--------------------------------------------------------------------------
[[1228,1],11]: A high-performance Open MPI point-to-point messaging module
was unable to find any relevant network interfaces:

Module: OpenFabrics (openib)
  Host: node3218

Another transport will be used instead, although this may result in
lower performance.
--------------------------------------------------------------------------

*************** JDFTx 1.7.0  ***************

Start date and time: Tue Mar 12 10:05:20 2024
Executable jdftx with command-line: -i /home/cam559/Valla_project/Be/Be16O16.in
Running on hosts (process indices):  node3218.physics.cornell.edu (0-27)
Divided in process groups (process indices):  0 (0)  1 (1)  2 (2)  3 (3)  4 (4)  5 (5)  6 (6)  7 (7)  8 (8)  9 (9)  10 (10)  11 (11)  12 (12)  13 (13)  14 (14)  15 (15)  16 (16)  17 (17)  18 (18)  19 (19)  20 (20)  21 (21)  22 (22)  23 (23)  24 (24)  25 (25)  26 (26)  27 (27)
Resource initialization completed at t[s]:      0.21
Run totals: 28 processes, 28 threads, 0 GPUs


Input parsed successfully to the following command list (including defaults):

basis kpoint-dependent
coords-type Cartesian
core-overlap-check vector
coulomb-interaction Periodic
davidson-band-ratio 1.1
dump End Ecomponents
dump-name Be16O16.$VAR
elec-cutoff 20 100
elec-eigen-algo Davidson
elec-ex-corr gga-PBE
elec-smearing Fermi 0.004
electronic-minimize  \
	dirUpdateScheme      FletcherReeves \
	linminMethod         DirUpdateRecommended \
	nIterations          100 \
	history              15 \
	knormThreshold       0 \
	energyDiffThreshold  1e-08 \
	nEnergyDiff          2 \
	alphaTstart          1 \
	alphaTmin            1e-10 \
	updateTestStepSize   yes \
	alphaTreduceFactor   0.1 \
	alphaTincreaseFactor 3 \
	nAlphaAdjustMax      3 \
	wolfeEnergy          0.0001 \
	wolfeGradient        0.9 \
	fdTest               no
exchange-regularization WignerSeitzTruncated
fluid None
fluid-ex-corr lda-TF lda-PZ
fluid-gummel-loop 10 1.000000e-05
fluid-minimize  \
	dirUpdateScheme      PolakRibiere \
	linminMethod         DirUpdateRecommended \
	nIterations          100 \
	history              15 \
	knormThreshold       0 \
	energyDiffThreshold  0 \
	nEnergyDiff          2 \
	alphaTstart          1 \
	alphaTmin            1e-10 \
	updateTestStepSize   yes \
	alphaTreduceFactor   0.1 \
	alphaTincreaseFactor 3 \
	nAlphaAdjustMax      3 \
	wolfeEnergy          0.0001 \
	wolfeGradient        0.9 \
	fdTest               no
fluid-solvent H2O 55.338 ScalarEOS \
	epsBulk 78.4 \
	pMol 0.92466 \
	epsInf 1.77 \
	Pvap 1.06736e-10 \
	sigmaBulk 4.62e-05 \
	Rvdw 2.61727 \
	Res 1.42 \
	tauNuc 343133 \
	poleEl 15 7 1
forces-output-coords Positions
initial-state Be16O16.$VAR
ion Be  -0.000001000000000   2.939548000000000   0.001325000000000 1
ion Be   2.545725999999999   1.469772000000000   4.136063000000000 1
ion Be  -0.000001000000000   2.939548000000000   8.270802000000000 1
ion Be   2.545725999999999   1.469772000000000  12.405539999999998 1
ion Be  -2.545722000000000   7.348869000000001   0.001325000000000 1
ion Be   0.000005000000000   5.879093000000001   4.136063000000000 1
ion Be  -2.545722000000000   7.348869000000001   8.270802000000000 1
ion Be   0.000005000000000   5.879093000000001  12.405539999999998 1
ion Be   5.091445000000000   2.939548000000000   0.001325000000000 1
ion Be   7.637172000000000   1.469772000000000   4.136063000000000 1
ion Be   5.091445000000000   2.939548000000000   8.270802000000000 1
ion Be   7.637172000000000   1.469772000000000  12.405539999999998 1
ion Be   2.545723999999999   7.348869000000001   0.001325000000000 1
ion Be   5.091450999999999   5.879093000000001   4.136063000000000 1
ion Be   2.545723999999999   7.348869000000001   8.270802000000000 1
ion Be   5.091450999999999   5.879093000000001  12.405539999999998 1
ion O  -0.000001000000000   2.939548000000000   3.120403000000000 1
ion O   2.545725999999999   1.469772000000000   7.255141999999999 1
ion O  -0.000001000000000   2.939548000000000  11.389879999999998 1
ion O   2.545725999999999   1.469772000000000  15.524619000000000 1
ion O  -2.545722000000000   7.348869000000001   3.120403000000000 1
ion O   0.000005000000000   5.879093000000001   7.255141999999999 1
ion O  -2.545722000000000   7.348869000000001  11.389879999999998 1
ion O   0.000005000000000   5.879093000000001  15.524619000000000 1
ion O   5.091445000000000   2.939548000000000   3.120403000000000 1
ion O   7.637172000000000   1.469772000000000   7.255141999999999 1
ion O   5.091445000000000   2.939548000000000  11.389879999999998 1
ion O   7.637172000000000   1.469772000000000  15.524619000000000 1
ion O   2.545723999999999   7.348869000000001   3.120403000000000 1
ion O   5.091450999999999   5.879093000000001   7.255141999999999 1
ion O   2.545723999999999   7.348869000000001  11.389879999999998 1
ion O   5.091450999999999   5.879093000000001  15.524619000000000 1
ion-species GBRV/$ID_pbe.uspp
ion-width 0
ionic-minimize  \
	dirUpdateScheme      L-BFGS \
	linminMethod         DirUpdateRecommended \
	nIterations          50 \
	history              15 \
	knormThreshold       0.0001 \
	energyDiffThreshold  1e-06 \
	nEnergyDiff          2 \
	alphaTstart          1 \
	alphaTmin            1e-10 \
	updateTestStepSize   yes \
	alphaTreduceFactor   0.1 \
	alphaTincreaseFactor 3 \
	nAlphaAdjustMax      3 \
	wolfeEnergy          0.0001 \
	wolfeGradient        0.9 \
	fdTest               no
kpoint   0.000000000000   0.000000000000   0.000000000000  1.00000000000000
kpoint-folding 6 6 6 
latt-move-scale 1 1 1
latt-scale 1 1 1 
lattice  \
	  10.182892000000001   -5.091442000000000    0.000000000000000  \
	   0.000000000000000    8.818641000000000    0.000000000000000  \
	   0.000000000000000    0.000000000000000   16.538954000000000 
lattice-minimize  \
	dirUpdateScheme      L-BFGS \
	linminMethod         DirUpdateRecommended \
	nIterations          0 \
	history              15 \
	knormThreshold       0 \
	energyDiffThreshold  1e-06 \
	nEnergyDiff          2 \
	alphaTstart          1 \
	alphaTmin            1e-10 \
	updateTestStepSize   yes \
	alphaTreduceFactor   0.1 \
	alphaTincreaseFactor 3 \
	nAlphaAdjustMax      3 \
	wolfeEnergy          0.0001 \
	wolfeGradient        0.9 \
	fdTest               no
lcao-params -1 1e-06 0.004
pcm-variant GLSSA13
spintype no-spin
subspace-rotation-factor 1 yes
symmetries automatic
symmetry-threshold 0.0001



---------- Setting up symmetries ----------

Found 24 point-group symmetries of the bravais lattice
Found 96 space-group symmetries with basis
Applied RMS atom displacement 2.67057e-06 bohrs to make symmetries exact.

---------- Initializing the Grid ----------
R = 
[      10.1829     -5.09144            0  ]
[            0      8.81864            0  ]
[            0            0       16.539  ]
unit cell volume = 1485.19
G =
[   0.617033   0.356244         -0  ]
[          0   0.712489          0  ]
[          0         -0   0.379902  ]
Minimum fftbox size, Smin = [  48  48  76  ]
Chosen fftbox size, S = [  48  48  80  ]

---------- Initializing tighter grid for wavefunction operations ----------
R = 
[      10.1829     -5.09144            0  ]
[            0      8.81864            0  ]
[            0            0       16.539  ]
unit cell volume = 1485.19
G =
[   0.617033   0.356244         -0  ]
[          0   0.712489          0  ]
[          0         -0   0.379902  ]
Minimum fftbox size, Smin = [  44  44  68  ]
Chosen fftbox size, S = [  48  48  70  ]

---------- Exchange Correlation functional ----------
Initalized PBE GGA exchange.
Initalized PBE GGA correlation.

---------- Setting up pseudopotentials ----------
Width of ionic core gaussian charges (only for fluid interactions / plotting) set to 0

Reading pseudopotential file '/home/cam559/JDFTx/build/pseudopotentials/GBRV/be_pbe.uspp':
  Title: Be.  Created by USPP 7.3.6 on 31-3-15
  Reference state energy: -13.986230.  4 valence electrons in orbitals:
    |100>  occupation: 2  eigenvalue: -3.902600
    |200>  occupation: 2  eigenvalue: -0.206120
    |210>  occupation: 0  eigenvalue: -0.074211
  lMax: 2  lLocal: 2  QijEcut: 7
  6 projectors sampled on a log grid with 539 points:
    l: 0  eig: -3.902600  rCut: 1.35
    l: 0  eig: -0.206120  rCut: 1.35
    l: 0  eig: 1.000000  rCut: 1.35
    l: 1  eig: -0.074211  rCut: 1.6
    l: 1  eig: 0.500000  rCut: 1.6
    l: 2  eig: 0.000000  rCut: 1.6
  Transforming local potential to a uniform radial grid of dG=0.02 with 1670 points.
  Transforming nonlocal projectors to a uniform radial grid of dG=0.02 with 432 points.
  Transforming density augmentations to a uniform radial grid of dG=0.02 with 1670 points.
  Transforming atomic orbitals to a uniform radial grid of dG=0.02 with 432 points.
  Core radius for overlap checks: 1.60 bohrs.

Reading pseudopotential file '/home/cam559/JDFTx/build/pseudopotentials/GBRV/o_pbe.uspp':
  Title: O.  Created by USPP 7.3.6 on 3-2-2014
  Reference state energy: -15.894388.  6 valence electrons in orbitals:
    |200>  occupation: 2  eigenvalue: -0.878823
    |210>  occupation: 4  eigenvalue: -0.332131
  lMax: 2  lLocal: 2  QijEcut: 6
  5 projectors sampled on a log grid with 511 points:
    l: 0  eig: -0.878823  rCut: 1.25
    l: 0  eig: 0.000000  rCut: 1.25
    l: 1  eig: -0.332132  rCut: 1.25
    l: 1  eig: 0.000000  rCut: 1.25
    l: 2  eig: 1.000000  rCut: 1.25
  Partial core density with radius 0.7
  Transforming core density to a uniform radial grid of dG=0.02 with 1670 points.
  Transforming local potential to a uniform radial grid of dG=0.02 with 1670 points.
  Transforming nonlocal projectors to a uniform radial grid of dG=0.02 with 432 points.
  Transforming density augmentations to a uniform radial grid of dG=0.02 with 1670 points.
  Transforming atomic orbitals to a uniform radial grid of dG=0.02 with 432 points.
  Core radius for overlap checks: 1.25 bohrs.

Initialized 2 species with 32 total atoms.

Folded 1 k-points by 6x6x6 to 216 k-points.

---------- Setting up k-points, bands, fillings ----------
Adding inversion symmetry to k-mesh for non-inversion-symmetric unit cell.
Reduced to 28 k-points under symmetry. 
Computing the number of bands and number of electrons
Calculating initial fillings.
nElectrons: 160.000000   nBands: 144   nStates: 28

----- Setting up reduced wavefunction bases (one per k-point) -----
average nbasis = 6345.005 , ideal nbasis = 6344.828

---------- Setting up ewald sum ----------
Optimum gaussian width for ewald sums = 2.554536 bohr.
Real space sum over 567 unit cells with max indices [  4  4  3  ]
Reciprocal space sum over 6647 terms with max indices [  8  8  11  ]

---------- Allocating electronic variables ----------
Initializing wave functions:  linear combination of atomic orbitals
Be pseudo-atom occupations:   s ( 2 2 )  p ( 0 )
O pseudo-atom occupations:   s ( 2 )  p ( 4 )
	FillingsUpdate:  mu: +0.497998226  nElectrons: 160.000000
LCAOMinimize: Iter:   0  F: -483.9007628273251953  |grad|_K:  2.725e-03  alpha:  1.000e+00
	FillingsUpdate:  mu: +0.434987406  nElectrons: 160.000000
LCAOMinimize: Iter:   1  F: -484.8772981554378134  |grad|_K:  2.793e-04  alpha:  3.847e-01  linmin: -4.472e-01  cgtest:  9.465e-01  t[s]:     58.56
LCAOMinimize: Encountered beta<0, resetting CG.
	FillingsUpdate:  mu: +0.428912357  nElectrons: 160.000000
LCAOMinimize: Iter:   2  F: -484.8867504849199008  |grad|_K:  1.346e-05  alpha:  4.119e-01  linmin:  6.422e-02  cgtest: -8.403e-02  t[s]:     75.03
	FillingsUpdate:  mu: +0.428896644  nElectrons: 160.000000
LCAOMinimize: Iter:   3  F: -484.8868018910674778  |grad|_K:  9.844e-07  alpha:  9.748e-01  linmin: -3.672e-03  cgtest:  1.605e-01  t[s]:     91.43
LCAOMinimize: Encountered beta<0, resetting CG.
	FillingsUpdate:  mu: +0.428917159  nElectrons: 160.000000
LCAOMinimize: Iter:   4  F: -484.8868020089736319  |grad|_K:  8.917e-08  alpha:  4.134e-01  linmin:  2.201e-04  cgtest: -2.694e-04  t[s]:    107.79
	FillingsUpdate:  mu: +0.428916947  nElectrons: 160.000000
LCAOMinimize: Iter:   5  F: -484.8868020112162185  |grad|_K:  4.503e-09  alpha:  9.545e-01  linmin: -4.864e-03  cgtest:  6.341e-02  t[s]:    124.22
LCAOMinimize: Encountered beta<0, resetting CG.
LCAOMinimize: Converged (|Delta F|<1.000000e-06 for 2 iters).


---- Citations for features of the code used in this run ----

   Software package:
      R. Sundararaman, K. Letchworth-Weaver, K.A. Schwarz, D. Gunceler, Y. Ozhabes and T.A. Arias, 'JDFTx: software for joint density-functional theory', SoftwareX 6, 278 (2017)

   gga-PBE exchange-correlation functional:
      J.P. Perdew, K. Burke and M. Ernzerhof, Phys. Rev. Lett. 77, 3865 (1996)

   Pseudopotentials:
      KF Garrity, JW Bennett, KM Rabe and D Vanderbilt, Comput. Mater. Sci. 81, 446 (2014)

   Total energy minimization with Auxiliary Hamiltonian:
      C. Freysoldt, S. Boeck, and J. Neugebauer, Phys. Rev. B 79, 241103(R) (2009)

This list may not be complete. Please suggest additional citations or
report any other bugs at https://github.com/shankar1729/jdftx/issues

Initialization completed successfully at t[s]:    137.02


-------- Electronic minimization -----------
	FillingsUpdate:  mu: +0.428916947  nElectrons: 160.000000
ElecMinimize: Iter:   0  F: -484.886802011216730  |grad|_K:  1.662e-04  alpha:  1.000e+00
	FillingsUpdate:  mu: +0.300000000  nElectrons: 160.000000
	SubspaceRotationAdjust: set factor to 0.865
ElecMinimize: Iter:   1  F: -485.305388677558369  |grad|_K:  7.533e-05  alpha:  5.820e-01  linmin:  2.264e-04  t[s]:    230.52
	FillingsUpdate:  mu: +0.414012380  nElectrons: 160.000000
	SubspaceRotationAdjust: set factor to 1.16
ElecMinimize: Iter:   2  F: -485.368644316617576  |grad|_K:  3.574e-05  alpha:  4.373e-01  linmin: -1.851e-05  t[s]:    293.68
	FillingsUpdate:  mu: +0.414690024  nElectrons: 160.000000
	SubspaceRotationAdjust: set factor to 1.29
ElecMinimize: Iter:   3  F: -485.377166839697566  |grad|_K:  2.246e-05  alpha:  2.569e-01  linmin:  4.185e-06  t[s]:    356.79
	FillingsUpdate:  mu: +0.413750992  nElectrons: 160.000000
	SubspaceRotationAdjust: set factor to 1.71
ElecMinimize: Iter:   4  F: -485.382515117986884  |grad|_K:  8.944e-06  alpha:  4.142e-01  linmin:  2.673e-04  t[s]:    419.84
	FillingsUpdate:  mu: +0.413318588  nElectrons: 160.000000
	SubspaceRotationAdjust: set factor to 1.92
ElecMinimize: Iter:   5  F: -485.383267981307370  |grad|_K:  4.357e-06  alpha:  3.736e-01  linmin:  3.379e-05  t[s]:    483.08
	FillingsUpdate:  mu: +0.413363158  nElectrons: 160.000000
	SubspaceRotationAdjust: set factor to 1.89
ElecMinimize: Iter:   6  F: -485.383453408142600  |grad|_K:  2.697e-06  alpha:  3.794e-01  linmin:  1.006e-05  t[s]:    546.32
	FillingsUpdate:  mu: +0.413354974  nElectrons: 160.000000
	SubspaceRotationAdjust: set factor to 2.3
ElecMinimize: Iter:   7  F: -485.383500432218398  |grad|_K:  1.163e-06  alpha:  2.507e-01  linmin: -1.561e-06  t[s]:    609.38
	FillingsUpdate:  mu: +0.413290509  nElectrons: 160.000000
	SubspaceRotationAdjust: set factor to 2.15
ElecMinimize: Iter:   8  F: -485.383516724803599  |grad|_K:  5.607e-07  alpha:  4.652e-01  linmin: -4.207e-06  t[s]:    672.26
	FillingsUpdate:  mu: +0.413324846  nElectrons: 160.000000
	SubspaceRotationAdjust: set factor to 1.95
ElecMinimize: Iter:   9  F: -485.383519060721085  |grad|_K:  2.756e-07  alpha:  2.869e-01  linmin: -2.494e-07  t[s]:    735.39
	FillingsUpdate:  mu: +0.413322131  nElectrons: 160.000000
	SubspaceRotationAdjust: set factor to 2.07
ElecMinimize: Iter:  10  F: -485.383519714077067  |grad|_K:  1.694e-07  alpha:  3.323e-01  linmin: -2.382e-07  t[s]:    798.52
	FillingsUpdate:  mu: +0.413314502  nElectrons: 160.000000
	SubspaceRotationAdjust: set factor to 2.14
ElecMinimize: Iter:  11  F: -485.383519955754309  |grad|_K:  7.427e-08  alpha:  3.256e-01  linmin:  2.716e-07  t[s]:    861.17
	FillingsUpdate:  mu: +0.413319227  nElectrons: 160.000000
	SubspaceRotationAdjust: set factor to 2
ElecMinimize: Iter:  12  F: -485.383520006994843  |grad|_K:  3.732e-08  alpha:  3.590e-01  linmin: -7.649e-08  t[s]:    923.87
	FillingsUpdate:  mu: +0.413318335  nElectrons: 160.000000
	SubspaceRotationAdjust: set factor to 2.06
ElecMinimize: Iter:  13  F: -485.383520020170977  |grad|_K:  2.124e-08  alpha:  3.654e-01  linmin:  5.169e-08  t[s]:    986.28
	FillingsUpdate:  mu: +0.413317687  nElectrons: 160.000000
	SubspaceRotationAdjust: set factor to 2.27
ElecMinimize: Iter:  14  F: -485.383520023280028  |grad|_K:  1.075e-08  alpha:  2.663e-01  linmin:  5.134e-08  t[s]:   1048.77
	FillingsUpdate:  mu: +0.413317936  nElectrons: 160.000000
	SubspaceRotationAdjust: set factor to 2.48
ElecMinimize: Iter:  15  F: -485.383520024529673  |grad|_K:  5.128e-09  alpha:  4.169e-01  linmin: -3.558e-07  t[s]:   1111.35
ElecMinimize: Converged (|Delta F|<1.000000e-08 for 2 iters).
Setting wave functions to eigenvectors of Hamiltonian

# Ionic positions in cartesian coordinates:
ion Be   0.000001333333333   2.939547000000001   0.001324749999999 1
ion Be   2.545723666666666   1.469773500000001   4.136063249999999 1
ion Be   0.000001333333333   2.939547000000001   8.270801749999999 1
ion Be   2.545723666666666   1.469773500000001  12.405540250000000 1
ion Be  -2.545719666666667   7.348867500000000   0.001324749999999 1
ion Be   0.000002666666666   5.879094000000000   4.136063249999999 1
ion Be  -2.545719666666667   7.348867500000000   8.270801749999999 1
ion Be   0.000002666666666   5.879094000000000  12.405540250000000 1
ion Be   5.091447333333333   2.939547000000001   0.001324749999999 1
ion Be   7.637169666666667   1.469773500000001   4.136063249999999 1
ion Be   5.091447333333333   2.939547000000001   8.270801749999999 1
ion Be   7.637169666666667   1.469773500000001  12.405540250000000 1
ion Be   2.545726333333334   7.348867500000000   0.001324749999999 1
ion Be   5.091448666666667   5.879094000000000   4.136063249999999 1
ion Be   2.545726333333334   7.348867500000000   8.270801749999999 1
ion Be   5.091448666666667   5.879094000000000  12.405540250000000 1
ion O   0.000001333333333   2.939547000000001   3.120403250000000 1
ion O   2.545723666666666   1.469773500000001   7.255141749999999 1
ion O   0.000001333333333   2.939547000000001  11.389880249999999 1
ion O   2.545723666666666   1.469773500000001  15.524618750000000 1
ion O  -2.545719666666667   7.348867500000000   3.120403250000000 1
ion O   0.000002666666666   5.879094000000000   7.255141749999999 1
ion O  -2.545719666666667   7.348867500000000  11.389880249999999 1
ion O   0.000002666666666   5.879094000000000  15.524618750000000 1
ion O   5.091447333333333   2.939547000000001   3.120403250000000 1
ion O   7.637169666666667   1.469773500000001   7.255141749999999 1
ion O   5.091447333333333   2.939547000000001  11.389880249999999 1
ion O   7.637169666666667   1.469773500000001  15.524618750000000 1
ion O   2.545726333333334   7.348867500000000   3.120403250000000 1
ion O   5.091448666666667   5.879094000000000   7.255141749999999 1
ion O   2.545726333333334   7.348867500000000  11.389880249999999 1
ion O   5.091448666666667   5.879094000000000  15.524618750000000 1

# Forces in Cartesian coordinates:
force Be  -0.000000000000000  -0.000000000000000  -0.000210965418691 1
force Be  -0.000000000000000   0.000000000000000  -0.000210965418691 1
force Be   0.000000000000000  -0.000000000000000  -0.000210965418691 1
force Be   0.000000000000000  -0.000000000000000  -0.000210965418691 1
force Be  -0.000000000000000  -0.000000000000000  -0.000210965418691 1
force Be   0.000000000000000  -0.000000000000000  -0.000210965418691 1
force Be  -0.000000000000000  -0.000000000000000  -0.000210965418691 1
force Be   0.000000000000000   0.000000000000000  -0.000210965418691 1
force Be   0.000000000000000   0.000000000000000  -0.000210965418691 1
force Be  -0.000000000000000  -0.000000000000000  -0.000210965418691 1
force Be  -0.000000000000000   0.000000000000000  -0.000210965418691 1
force Be  -0.000000000000000  -0.000000000000000  -0.000210965418691 1
force Be  -0.000000000000000  -0.000000000000000  -0.000210965418691 1
force Be  -0.000000000000000   0.000000000000000  -0.000210965418691 1
force Be  -0.000000000000000   0.000000000000000  -0.000210965418691 1
force Be   0.000000000000000   0.000000000000000  -0.000210965418691 1
force O  -0.000000000000000   0.000000000000000   0.000522051209559 1
force O  -0.000000000000000   0.000000000000000   0.000522051209559 1
force O  -0.000000000000000  -0.000000000000000   0.000522051209559 1
force O   0.000000000000000   0.000000000000000   0.000522051209559 1
force O   0.000000000000000   0.000000000000000   0.000522051209559 1
force O  -0.000000000000000   0.000000000000000   0.000522051209559 1
force O  -0.000000000000000   0.000000000000000   0.000522051209559 1
force O  -0.000000000000000   0.000000000000000   0.000522051209559 1
force O  -0.000000000000000  -0.000000000000000   0.000522051209559 1
force O   0.000000000000000   0.000000000000000   0.000522051209559 1
force O  -0.000000000000000  -0.000000000000000   0.000522051209559 1
force O  -0.000000000000000   0.000000000000000   0.000522051209559 1
force O  -0.000000000000000  -0.000000000000000   0.000522051209559 1
force O  -0.000000000000000  -0.000000000000000   0.000522051209559 1
force O   0.000000000000000  -0.000000000000000   0.000522051209559 1
force O  -0.000000000000000  -0.000000000000000   0.000522051209559 1

# Energy components:
   Eewald =     -307.7634788029234869
       EH =      100.3476364509754717
     Eloc =     -283.6514509529109773
      Enl =      -45.1502728454410018
      Exc =     -100.7388591194979597
 Exc_core =        1.0408104179516524
       KE =      150.5320948273166266
-------------------------------------
     Etot =     -485.3835200245296164
       TS =        0.0000000000000302
-------------------------------------
        F =     -485.3835200245296733

IonicMinimize: Iter:   0  F: -485.383520024529673  |grad|_K:  2.116e-04  t[s]:   1122.57

#--- Lowdin population analysis ---
# oxidation-state Be +0.474 +0.474 +0.474 +0.474 +0.474 +0.474 +0.474 +0.474 +0.474 +0.474 +0.474 +0.474 +0.474 +0.474 +0.474 +0.474
# oxidation-state O -0.455 -0.455 -0.455 -0.455 -0.455 -0.455 -0.455 -0.455 -0.455 -0.455 -0.455 -0.455 -0.455 -0.455 -0.455 -0.455


-------- Electronic minimization -----------
	FillingsUpdate:  mu: +0.413319255  nElectrons: 160.000000
ElecMinimize: Iter:   0  F: -485.383523322690621  |grad|_K:  2.138e-07  alpha:  1.000e+00
	FillingsUpdate:  mu: +0.413319994  nElectrons: 160.000000
	SubspaceRotationAdjust: set factor to 1.13
ElecMinimize: Iter:   1  F: -485.383523824851011  |grad|_K:  5.410e-08  alpha:  4.244e-01  linmin: -2.362e-06  t[s]:   1238.96
	FillingsUpdate:  mu: +0.413318543  nElectrons: 160.000000
	SubspaceRotationAdjust: set factor to 0.934
ElecMinimize: Iter:   2  F: -485.383523866953226  |grad|_K:  2.430e-08  alpha:  5.558e-01  linmin:  4.660e-08  t[s]:   1301.18
	FillingsUpdate:  mu: +0.413319289  nElectrons: 160.000000
	SubspaceRotationAdjust: set factor to 1.22
ElecMinimize: Iter:   3  F: -485.383523872582771  |grad|_K:  1.497e-08  alpha:  3.686e-01  linmin:  5.598e-08  t[s]:   1363.15
	FillingsUpdate:  mu: +0.413319554  nElectrons: 160.000000
	SubspaceRotationAdjust: set factor to 1.5
ElecMinimize: Iter:   4  F: -485.383523874413811  |grad|_K:  9.581e-09  alpha:  3.151e-01  linmin:  2.400e-08  t[s]:   1424.97
ElecMinimize: Converged (|Delta F|<1.000000e-08 for 2 iters).
Setting wave functions to eigenvectors of Hamiltonian

# Ionic positions in cartesian coordinates:
ion Be   0.000001333333333   2.939547000000001   0.000958241685874 1
ion Be   2.545723666666666   1.469773500000001   4.135696741685874 1
ion Be   0.000001333333333   2.939547000000001   8.270435241685874 1
ion Be   2.545723666666666   1.469773500000001  12.405173741685875 1
ion Be  -2.545719666666667   7.348867500000000   0.000958241685874 1
ion Be   0.000002666666666   5.879094000000000   4.135696741685874 1
ion Be  -2.545719666666667   7.348867500000000   8.270435241685874 1
ion Be   0.000002666666666   5.879094000000000  12.405173741685875 1
ion Be   5.091447333333333   2.939547000000001   0.000958241685874 1
ion Be   7.637169666666667   1.469773500000001   4.135696741685874 1
ion Be   5.091447333333333   2.939547000000001   8.270435241685874 1
ion Be   7.637169666666667   1.469773500000001  12.405173741685875 1
ion Be   2.545726333333334   7.348867500000000   0.000958241685874 1
ion Be   5.091448666666667   5.879094000000000   4.135696741685874 1
ion Be   2.545726333333334   7.348867500000000   8.270435241685874 1
ion Be   5.091448666666667   5.879094000000000  12.405173741685875 1
ion O   0.000001333333333   2.939547000000001   3.120769758314125 1
ion O   2.545723666666666   1.469773500000001   7.255508258314124 1
ion O   0.000001333333333   2.939547000000001  11.390246758314124 1
ion O   2.545723666666666   1.469773500000001  15.524985258314125 1
ion O  -2.545719666666667   7.348867500000000   3.120769758314125 1
ion O   0.000002666666666   5.879094000000000   7.255508258314124 1
ion O  -2.545719666666667   7.348867500000000  11.390246758314124 1
ion O   0.000002666666666   5.879094000000000  15.524985258314125 1
ion O   5.091447333333333   2.939547000000001   3.120769758314125 1
ion O   7.637169666666667   1.469773500000001   7.255508258314124 1
ion O   5.091447333333333   2.939547000000001  11.390246758314124 1
ion O   7.637169666666667   1.469773500000001  15.524985258314125 1
ion O   2.545726333333334   7.348867500000000   3.120769758314125 1
ion O   5.091448666666667   5.879094000000000   7.255508258314124 1
ion O   2.545726333333334   7.348867500000000  11.390246758314124 1
ion O   5.091448666666667   5.879094000000000  15.524985258314125 1

# Forces in Cartesian coordinates:
force Be  -0.000000000000000  -0.000000000000000  -0.000138242112820 1
force Be   0.000000000000000  -0.000000000000000  -0.000138242112820 1
force Be  -0.000000000000000  -0.000000000000000  -0.000138242112820 1
force Be   0.000000000000000  -0.000000000000000  -0.000138242112820 1
force Be  -0.000000000000000   0.000000000000000  -0.000138242112820 1
force Be   0.000000000000000  -0.000000000000000  -0.000138242112820 1
force Be   0.000000000000000   0.000000000000000  -0.000138242112820 1
force Be  -0.000000000000000  -0.000000000000000  -0.000138242112820 1
force Be  -0.000000000000000   0.000000000000000  -0.000138242112820 1
force Be   0.000000000000000  -0.000000000000000  -0.000138242112820 1
force Be  -0.000000000000000   0.000000000000000  -0.000138242112820 1
force Be   0.000000000000000  -0.000000000000000  -0.000138242112820 1
force Be  -0.000000000000000   0.000000000000000  -0.000138242112820 1
force Be   0.000000000000000   0.000000000000000  -0.000138242112820 1
force Be  -0.000000000000000   0.000000000000000  -0.000138242112820 1
force Be   0.000000000000000   0.000000000000000  -0.000138242112820 1
force O  -0.000000000000000  -0.000000000000000   0.000424813094025 1
force O   0.000000000000000  -0.000000000000000   0.000424813094025 1
force O  -0.000000000000000   0.000000000000000   0.000424813094025 1
force O   0.000000000000000  -0.000000000000000   0.000424813094025 1
force O   0.000000000000000  -0.000000000000000   0.000424813094025 1
force O  -0.000000000000000   0.000000000000000   0.000424813094025 1
force O   0.000000000000000  -0.000000000000000   0.000424813094025 1
force O   0.000000000000000   0.000000000000000   0.000424813094025 1
force O   0.000000000000000  -0.000000000000000   0.000424813094025 1
force O   0.000000000000000   0.000000000000000   0.000424813094025 1
force O   0.000000000000000  -0.000000000000000   0.000424813094025 1
force O   0.000000000000000  -0.000000000000000   0.000424813094025 1
force O   0.000000000000000  -0.000000000000000   0.000424813094025 1
force O   0.000000000000000  -0.000000000000000   0.000424813094025 1
force O   0.000000000000000  -0.000000000000000   0.000424813094025 1
force O   0.000000000000000  -0.000000000000000   0.000424813094025 1

# Energy components:
   Eewald =     -307.7631299185194393
       EH =      100.3479619051020535
     Eloc =     -283.6522057981096054
      Enl =      -45.1502464360948821
      Exc =     -100.7388855885710086
 Exc_core =        1.0408103066733601
       KE =      150.5321716551057989
-------------------------------------
     Etot =     -485.3835238744137541
       TS =        0.0000000000000302
-------------------------------------
        F =     -485.3835238744138110

IonicMinimize: Iter:   1  F: -485.383523874413811  |grad|_K:  1.625e-04  alpha:  1.000e+00  linmin: -8.912e-01  t[s]:   1436.16

#--- Lowdin population analysis ---
# oxidation-state Be +0.474 +0.474 +0.474 +0.474 +0.474 +0.474 +0.474 +0.474 +0.474 +0.474 +0.474 +0.474 +0.474 +0.474 +0.474 +0.474
# oxidation-state O -0.455 -0.455 -0.455 -0.455 -0.455 -0.455 -0.455 -0.455 -0.455 -0.455 -0.455 -0.455 -0.455 -0.455 -0.455 -0.455


-------- Electronic minimization -----------
	FillingsUpdate:  mu: +0.413324471  nElectrons: 160.000000
ElecMinimize: Iter:   0  F: -485.383524198471264  |grad|_K:  5.926e-07  alpha:  1.000e+00
	FillingsUpdate:  mu: +0.413325455  nElectrons: 160.000000
	SubspaceRotationAdjust: set factor to 1.45
ElecMinimize: Iter:   1  F: -485.383529946843623  |grad|_K:  1.474e-07  alpha:  6.325e-01  linmin: -8.996e-07  t[s]:   1551.43
	FillingsUpdate:  mu: +0.413324259  nElectrons: 160.000000
	SubspaceRotationAdjust: set factor to 1.58
ElecMinimize: Iter:   2  F: -485.383530161880628  |grad|_K:  7.332e-08  alpha:  3.823e-01  linmin:  4.099e-08  t[s]:   1613.27
	FillingsUpdate:  mu: +0.413324406  nElectrons: 160.000000
	SubspaceRotationAdjust: set factor to 1.63
ElecMinimize: Iter:   3  F: -485.383530210859192  |grad|_K:  4.601e-08  alpha:  3.521e-01  linmin:  1.252e-07  t[s]:   1675.17
	FillingsUpdate:  mu: +0.413324595  nElectrons: 160.000000
	SubspaceRotationAdjust: set factor to 1.84
ElecMinimize: Iter:   4  F: -485.383530224991375  |grad|_K:  1.964e-08  alpha:  2.580e-01  linmin:  1.512e-07  t[s]:   1736.75
	FillingsUpdate:  mu: +0.413324518  nElectrons: 160.000000
	SubspaceRotationAdjust: set factor to 1.84
ElecMinimize: Iter:   5  F: -485.383530230121607  |grad|_K:  8.900e-09  alpha:  5.133e-01  linmin: -1.263e-06  t[s]:   1798.25
	FillingsUpdate:  mu: +0.413324477  nElectrons: 160.000000
	SubspaceRotationAdjust: set factor to 1.88
ElecMinimize: Iter:   6  F: -485.383530230744952  |grad|_K:  4.732e-09  alpha:  3.036e-01  linmin:  4.862e-08  t[s]:   1859.69
ElecMinimize: Converged (|Delta F|<1.000000e-08 for 2 iters).
Setting wave functions to eigenvectors of Hamiltonian

# Ionic positions in cartesian coordinates:
ion Be   0.000001333333333   2.939547000000001  -0.000255942173705 1
ion Be   2.545723666666666   1.469773500000001   4.134482557826295 1
ion Be   0.000001333333333   2.939547000000001   8.269221057826295 1
ion Be   2.545723666666666   1.469773500000001  12.403959557826296 1
ion Be  -2.545719666666667   7.348867500000000  -0.000255942173705 1
ion Be   0.000002666666666   5.879094000000000   4.134482557826295 1
ion Be  -2.545719666666667   7.348867500000000   8.269221057826295 1
ion Be   0.000002666666666   5.879094000000000  12.403959557826296 1
ion Be   5.091447333333333   2.939547000000001  -0.000255942173705 1
ion Be   7.637169666666667   1.469773500000001   4.134482557826295 1
ion Be   5.091447333333333   2.939547000000001   8.269221057826295 1
ion Be   7.637169666666667   1.469773500000001  12.403959557826296 1
ion Be   2.545726333333334   7.348867500000000  -0.000255942173705 1
ion Be   5.091448666666667   5.879094000000000   4.134482557826295 1
ion Be   2.545726333333334   7.348867500000000   8.269221057826295 1
ion Be   5.091448666666667   5.879094000000000  12.403959557826296 1
ion O   0.000001333333333   2.939547000000001   3.121983942173704 1
ion O   2.545723666666666   1.469773500000001   7.256722442173704 1
ion O   0.000001333333333   2.939547000000001  11.391460942173705 1
ion O   2.545723666666666   1.469773500000001  15.526199442173704 1
ion O  -2.545719666666667   7.348867500000000   3.121983942173704 1
ion O   0.000002666666666   5.879094000000000   7.256722442173704 1
ion O  -2.545719666666667   7.348867500000000  11.391460942173705 1
ion O   0.000002666666666   5.879094000000000  15.526199442173704 1
ion O   5.091447333333333   2.939547000000001   3.121983942173704 1
ion O   7.637169666666667   1.469773500000001   7.256722442173704 1
ion O   5.091447333333333   2.939547000000001  11.391460942173705 1
ion O   7.637169666666667   1.469773500000001  15.526199442173704 1
ion O   2.545726333333334   7.348867500000000   3.121983942173704 1
ion O   5.091448666666667   5.879094000000000   7.256722442173704 1
ion O   2.545726333333334   7.348867500000000  11.391460942173705 1
ion O   5.091448666666667   5.879094000000000  15.526199442173704 1

# Forces in Cartesian coordinates:
force Be   0.000000000000000   0.000000000000000   0.000112979132478 1
force Be   0.000000000000000   0.000000000000000   0.000112979132478 1
force Be   0.000000000000000   0.000000000000000   0.000112979132478 1
force Be   0.000000000000000  -0.000000000000000   0.000112979132478 1
force Be   0.000000000000000   0.000000000000000   0.000112979132478 1
force Be  -0.000000000000000  -0.000000000000000   0.000112979132478 1
force Be   0.000000000000000  -0.000000000000000   0.000112979132478 1
force Be  -0.000000000000000   0.000000000000000   0.000112979132478 1
force Be  -0.000000000000000  -0.000000000000000   0.000112979132478 1
force Be  -0.000000000000000  -0.000000000000000   0.000112979132478 1
force Be  -0.000000000000000  -0.000000000000000   0.000112979132478 1
force Be  -0.000000000000000  -0.000000000000000   0.000112979132478 1
force Be  -0.000000000000000   0.000000000000000   0.000112979132478 1
force Be   0.000000000000000   0.000000000000000   0.000112979132478 1
force Be  -0.000000000000000   0.000000000000000   0.000112979132478 1
force Be  -0.000000000000000  -0.000000000000000   0.000112979132478 1
force O   0.000000000000000  -0.000000000000000   0.000185649461626 1
force O  -0.000000000000000  -0.000000000000000   0.000185649461626 1
force O   0.000000000000000  -0.000000000000000   0.000185649461626 1
force O  -0.000000000000000  -0.000000000000000   0.000185649461626 1
force O  -0.000000000000000  -0.000000000000000   0.000185649461626 1
force O  -0.000000000000000  -0.000000000000000   0.000185649461626 1
force O   0.000000000000000  -0.000000000000000   0.000185649461626 1
force O  -0.000000000000000   0.000000000000000   0.000185649461626 1
force O   0.000000000000000  -0.000000000000000   0.000185649461626 1
force O  -0.000000000000000   0.000000000000000   0.000185649461626 1
force O   0.000000000000000   0.000000000000000   0.000185649461626 1
force O  -0.000000000000000  -0.000000000000000   0.000185649461626 1
force O   0.000000000000000   0.000000000000000   0.000185649461626 1
force O   0.000000000000000   0.000000000000000   0.000185649461626 1
force O   0.000000000000000   0.000000000000000   0.000185649461626 1
force O  -0.000000000000000  -0.000000000000000   0.000185649461626 1

# Energy components:
   Eewald =     -307.7619067770782522
       EH =      100.3489415770993674
     Eloc =     -283.6544663894691212
      Enl =      -45.1502588454069738
      Exc =     -100.7389390512573470
 Exc_core =        1.0408099232010817
       KE =      150.5322893321663287
-------------------------------------
     Etot =     -485.3835302307448956
       TS =        0.0000000000000302
-------------------------------------
        F =     -485.3835302307449524

IonicMinimize: Iter:   2  F: -485.383530230744952  |grad|_K:  2.098e-05  alpha:  1.000e+00  linmin: -2.364e-01  t[s]:   1870.86
IonicMinimize: Converged (|grad|_K<1.000000e-04).

#--- Lowdin population analysis ---
# oxidation-state Be +0.474 +0.474 +0.474 +0.474 +0.474 +0.474 +0.474 +0.474 +0.474 +0.474 +0.474 +0.474 +0.474 +0.474 +0.474 +0.474
# oxidation-state O -0.455 -0.455 -0.455 -0.455 -0.455 -0.455 -0.455 -0.455 -0.455 -0.455 -0.455 -0.455 -0.455 -0.455 -0.455 -0.455


Dumping 'Be16O16.Ecomponents' ... done
End date and time: Tue Mar 12 10:36:41 2024  (Duration: 0-0:31:20.79)
Done!
