--------------------------------------------------------------------------
[[1768,1],4]: A high-performance Open MPI point-to-point messaging module
was unable to find any relevant network interfaces:

Module: OpenFabrics (openib)
  Host: node3217

Another transport will be used instead, although this may result in
lower performance.
--------------------------------------------------------------------------

*************** JDFTx 1.7.0  ***************

Start date and time: Tue Mar 12 10:03:59 2024
Executable jdftx with command-line: -i /home/cam559/Valla_project/Be/Be16O15.in
Running on hosts (process indices):  node3217.physics.cornell.edu (0-33)
Divided in process groups (process indices):  0 (0)  1 (1)  2 (2)  3 (3)  4 (4)  5 (5)  6 (6)  7 (7)  8 (8)  9 (9)  10 (10)  11 (11)  12 (12)  13 (13)  14 (14)  15 (15)  16 (16)  17 (17)  18 (18)  19 (19)  20 (20)  21 (21)  22 (22)  23 (23)  24 (24)  25 (25)  26 (26)  27 (27)  28 (28)  29 (29)  30 (30)  31 (31)  32 (32)  33 (33)
Resource initialization completed at t[s]:      0.05
Run totals: 34 processes, 34 threads, 0 GPUs


Input parsed successfully to the following command list (including defaults):

basis kpoint-dependent
coords-type Cartesian
core-overlap-check vector
coulomb-interaction Periodic
davidson-band-ratio 1.1
dump End Ecomponents
dump-name Be16O15.$VAR
elec-cutoff 20 100
elec-eigen-algo Davidson
elec-ex-corr gga-PBE
elec-smearing Fermi 0.004
electronic-minimize  \
	dirUpdateScheme      FletcherReeves \
	linminMethod         DirUpdateRecommended \
	nIterations          100 \
	history              15 \
	knormThreshold       0 \
	energyDiffThreshold  1e-08 \
	nEnergyDiff          2 \
	alphaTstart          1 \
	alphaTmin            1e-10 \
	updateTestStepSize   yes \
	alphaTreduceFactor   0.1 \
	alphaTincreaseFactor 3 \
	nAlphaAdjustMax      3 \
	wolfeEnergy          0.0001 \
	wolfeGradient        0.9 \
	fdTest               no
exchange-regularization WignerSeitzTruncated
fluid None
fluid-ex-corr lda-TF lda-PZ
fluid-gummel-loop 10 1.000000e-05
fluid-minimize  \
	dirUpdateScheme      PolakRibiere \
	linminMethod         DirUpdateRecommended \
	nIterations          100 \
	history              15 \
	knormThreshold       0 \
	energyDiffThreshold  0 \
	nEnergyDiff          2 \
	alphaTstart          1 \
	alphaTmin            1e-10 \
	updateTestStepSize   yes \
	alphaTreduceFactor   0.1 \
	alphaTincreaseFactor 3 \
	nAlphaAdjustMax      3 \
	wolfeEnergy          0.0001 \
	wolfeGradient        0.9 \
	fdTest               no
fluid-solvent H2O 55.338 ScalarEOS \
	epsBulk 78.4 \
	pMol 0.92466 \
	epsInf 1.77 \
	Pvap 1.06736e-10 \
	sigmaBulk 4.62e-05 \
	Rvdw 2.61727 \
	Res 1.42 \
	tauNuc 343133 \
	poleEl 15 7 1
forces-output-coords Positions
initial-state Be16O15.$VAR
ion Be  -0.000001000000000   2.939548000000000   0.001325000000000 1
ion Be   2.545725999999999   1.469772000000000   4.136063000000000 1
ion Be  -0.000001000000000   2.939548000000000   8.270802000000000 1
ion Be   2.545725999999999   1.469772000000000  12.405539999999998 1
ion Be  -2.545722000000000   7.348869000000001   0.001325000000000 1
ion Be   0.000005000000000   5.879093000000001   4.136063000000000 1
ion Be  -2.545722000000000   7.348869000000001   8.270802000000000 1
ion Be   0.000005000000000   5.879093000000001  12.405539999999998 1
ion Be   5.091445000000000   2.939548000000000   0.001325000000000 1
ion Be   7.637172000000000   1.469772000000000   4.136063000000000 1
ion Be   5.091445000000000   2.939548000000000   8.270802000000000 1
ion Be   7.637172000000000   1.469772000000000  12.405539999999998 1
ion Be   2.545723999999999   7.348869000000001   0.001325000000000 1
ion Be   5.091450999999999   5.879093000000001   4.136063000000000 1
ion Be   2.545723999999999   7.348869000000001   8.270802000000000 1
ion Be   5.091450999999999   5.879093000000001  12.405539999999998 1
ion O  -0.000001000000000   2.939548000000000   3.120403000000000 1
ion O   2.545725999999999   1.469772000000000   7.255141999999999 1
ion O  -0.000001000000000   2.939548000000000  11.389879999999998 1
ion O   2.545725999999999   1.469772000000000  15.524619000000000 1
ion O  -2.545722000000000   7.348869000000001   3.120403000000000 1
ion O   0.000005000000000   5.879093000000001   7.255141999999999 1
ion O  -2.545722000000000   7.348869000000001  11.389879999999998 1
ion O   0.000005000000000   5.879093000000001  15.524619000000000 1
ion O   5.091445000000000   2.939548000000000   3.120403000000000 1
ion O   7.637172000000000   1.469772000000000   7.255141999999999 1
ion O   5.091445000000000   2.939548000000000  11.389879999999998 1
ion O   7.637172000000000   1.469772000000000  15.524619000000000 1
ion O   2.545723999999999   7.348869000000001   3.120403000000000 1
ion O   5.091450999999999   5.879093000000001   7.255141999999999 1
ion O   2.545723999999999   7.348869000000001  11.389879999999998 1
ion-species GBRV/$ID_pbe.uspp
ion-width 0
ionic-minimize  \
	dirUpdateScheme      L-BFGS \
	linminMethod         DirUpdateRecommended \
	nIterations          50 \
	history              15 \
	knormThreshold       0.0001 \
	energyDiffThreshold  1e-06 \
	nEnergyDiff          2 \
	alphaTstart          1 \
	alphaTmin            1e-10 \
	updateTestStepSize   yes \
	alphaTreduceFactor   0.1 \
	alphaTincreaseFactor 3 \
	nAlphaAdjustMax      3 \
	wolfeEnergy          0.0001 \
	wolfeGradient        0.9 \
	fdTest               no
kpoint   0.000000000000   0.000000000000   0.000000000000  1.00000000000000
kpoint-folding 6 6 6 
latt-move-scale 1 1 1
latt-scale 1 1 1 
lattice  \
	  10.182892000000001   -5.091442000000000    0.000000000000000  \
	   0.000000000000000    8.818641000000000    0.000000000000000  \
	   0.000000000000000    0.000000000000000   16.538954000000000 
lattice-minimize  \
	dirUpdateScheme      L-BFGS \
	linminMethod         DirUpdateRecommended \
	nIterations          0 \
	history              15 \
	knormThreshold       0 \
	energyDiffThreshold  1e-06 \
	nEnergyDiff          2 \
	alphaTstart          1 \
	alphaTmin            1e-10 \
	updateTestStepSize   yes \
	alphaTreduceFactor   0.1 \
	alphaTincreaseFactor 3 \
	nAlphaAdjustMax      3 \
	wolfeEnergy          0.0001 \
	wolfeGradient        0.9 \
	fdTest               no
lcao-params -1 1e-06 0.004
pcm-variant GLSSA13
spintype no-spin
subspace-rotation-factor 1 yes
symmetries automatic
symmetry-threshold 0.0001



---------- Setting up symmetries ----------

Found 24 point-group symmetries of the bravais lattice
Found 6 space-group symmetries with basis
Applied RMS atom displacement 2.65733e-06 bohrs to make symmetries exact.

---------- Initializing the Grid ----------
R = 
[      10.1829     -5.09144            0  ]
[            0      8.81864            0  ]
[            0            0       16.539  ]
unit cell volume = 1485.19
G =
[   0.617033   0.356244         -0  ]
[          0   0.712489          0  ]
[          0         -0   0.379902  ]
Minimum fftbox size, Smin = [  48  48  76  ]
Chosen fftbox size, S = [  48  48  80  ]

---------- Initializing tighter grid for wavefunction operations ----------
R = 
[      10.1829     -5.09144            0  ]
[            0      8.81864            0  ]
[            0            0       16.539  ]
unit cell volume = 1485.19
G =
[   0.617033   0.356244         -0  ]
[          0   0.712489          0  ]
[          0         -0   0.379902  ]
Minimum fftbox size, Smin = [  44  44  68  ]
Chosen fftbox size, S = [  48  48  70  ]

---------- Exchange Correlation functional ----------
Initalized PBE GGA exchange.
Initalized PBE GGA correlation.

---------- Setting up pseudopotentials ----------
Width of ionic core gaussian charges (only for fluid interactions / plotting) set to 0

Reading pseudopotential file '/home/cam559/JDFTx/build/pseudopotentials/GBRV/be_pbe.uspp':
  Title: Be.  Created by USPP 7.3.6 on 31-3-15
  Reference state energy: -13.986230.  4 valence electrons in orbitals:
    |100>  occupation: 2  eigenvalue: -3.902600
    |200>  occupation: 2  eigenvalue: -0.206120
    |210>  occupation: 0  eigenvalue: -0.074211
  lMax: 2  lLocal: 2  QijEcut: 7
  6 projectors sampled on a log grid with 539 points:
    l: 0  eig: -3.902600  rCut: 1.35
    l: 0  eig: -0.206120  rCut: 1.35
    l: 0  eig: 1.000000  rCut: 1.35
    l: 1  eig: -0.074211  rCut: 1.6
    l: 1  eig: 0.500000  rCut: 1.6
    l: 2  eig: 0.000000  rCut: 1.6
  Transforming local potential to a uniform radial grid of dG=0.02 with 1670 points.
  Transforming nonlocal projectors to a uniform radial grid of dG=0.02 with 432 points.
  Transforming density augmentations to a uniform radial grid of dG=0.02 with 1670 points.
  Transforming atomic orbitals to a uniform radial grid of dG=0.02 with 432 points.
  Core radius for overlap checks: 1.60 bohrs.

Reading pseudopotential file '/home/cam559/JDFTx/build/pseudopotentials/GBRV/o_pbe.uspp':
  Title: O.  Created by USPP 7.3.6 on 3-2-2014
  Reference state energy: -15.894388.  6 valence electrons in orbitals:
    |200>  occupation: 2  eigenvalue: -0.878823
    |210>  occupation: 4  eigenvalue: -0.332131
  lMax: 2  lLocal: 2  QijEcut: 6
  5 projectors sampled on a log grid with 511 points:
    l: 0  eig: -0.878823  rCut: 1.25
    l: 0  eig: 0.000000  rCut: 1.25
    l: 1  eig: -0.332132  rCut: 1.25
    l: 1  eig: 0.000000  rCut: 1.25
    l: 2  eig: 1.000000  rCut: 1.25
  Partial core density with radius 0.7
  Transforming core density to a uniform radial grid of dG=0.02 with 1670 points.
  Transforming local potential to a uniform radial grid of dG=0.02 with 1670 points.
  Transforming nonlocal projectors to a uniform radial grid of dG=0.02 with 432 points.
  Transforming density augmentations to a uniform radial grid of dG=0.02 with 1670 points.
  Transforming atomic orbitals to a uniform radial grid of dG=0.02 with 432 points.
  Core radius for overlap checks: 1.25 bohrs.

Initialized 2 species with 31 total atoms.

Folded 1 k-points by 6x6x6 to 216 k-points.

---------- Setting up k-points, bands, fillings ----------
Adding inversion symmetry to k-mesh for non-inversion-symmetric unit cell.
Reduced to 34 k-points under symmetry. 
Computing the number of bands and number of electrons
Calculating initial fillings.
nElectrons: 154.000000   nBands: 140   nStates: 34

----- Setting up reduced wavefunction bases (one per k-point) -----
average nbasis = 6345.005 , ideal nbasis = 6344.828

---------- Setting up ewald sum ----------
Optimum gaussian width for ewald sums = 2.568089 bohr.
Real space sum over 567 unit cells with max indices [  4  4  3  ]
Reciprocal space sum over 5175 terms with max indices [  7  7  11  ]

---------- Allocating electronic variables ----------
Initializing wave functions:  linear combination of atomic orbitals
Be pseudo-atom occupations:   s ( 2 2 )  p ( 0 )
O pseudo-atom occupations:   s ( 2 )  p ( 4 )
	FillingsUpdate:  mu: +0.429380307  nElectrons: 154.000000
LCAOMinimize: Iter:   0  F: -467.6703864240858479  |grad|_K:  2.530e-03  alpha:  1.000e+00
	FillingsUpdate:  mu: +0.421676723  nElectrons: 154.000000
LCAOMinimize: Iter:   1  F: -468.6166190383713683  |grad|_K:  3.127e-04  alpha:  3.695e-01  linmin: -5.486e-01  cgtest:  9.321e-01  t[s]:    550.69
LCAOMinimize: Encountered beta<0, resetting CG.
	FillingsUpdate:  mu: +0.420914542  nElectrons: 154.000000
LCAOMinimize: Iter:   2  F: -468.6300740050472200  |grad|_K:  2.246e-05  alpha:  4.075e-01  linmin:  5.656e-02  cgtest: -8.336e-02  t[s]:    885.86
	FillingsUpdate:  mu: +0.418671616  nElectrons: 154.000000
LCAOMinimize: Iter:   3  F: -468.6301784092833600  |grad|_K:  6.923e-06  alpha:  6.204e-01  linmin: -1.169e-03  cgtest:  5.177e-02  t[s]:   1172.48
	FillingsUpdate:  mu: +0.418996921  nElectrons: 154.000000
LCAOMinimize: Iter:   4  F: -468.6301887683165432  |grad|_K:  2.325e-06  alpha:  6.380e-01  linmin: -2.908e-04  cgtest: -9.904e-03  t[s]:   1441.84
	FillingsUpdate:  mu: +0.419010649  nElectrons: 154.000000
LCAOMinimize: Iter:   5  F: -468.6301895519997629  |grad|_K:  5.342e-07  alpha:  4.287e-01  linmin: -8.945e-07  cgtest: -2.072e-03  t[s]:   1714.19
	FillingsUpdate:  mu: +0.419001970  nElectrons: 154.000000
LCAOMinimize: Iter:   6  F: -468.6301896058479315  |grad|_K:  1.605e-07  alpha:  5.583e-01  linmin:  1.033e-04  cgtest: -1.634e-04  t[s]:   1983.72
LCAOMinimize: Converged (|Delta F|<1.000000e-06 for 2 iters).


---- Citations for features of the code used in this run ----

   Software package:
      R. Sundararaman, K. Letchworth-Weaver, K.A. Schwarz, D. Gunceler, Y. Ozhabes and T.A. Arias, 'JDFTx: software for joint density-functional theory', SoftwareX 6, 278 (2017)

   gga-PBE exchange-correlation functional:
      J.P. Perdew, K. Burke and M. Ernzerhof, Phys. Rev. Lett. 77, 3865 (1996)

   Pseudopotentials:
      KF Garrity, JW Bennett, KM Rabe and D Vanderbilt, Comput. Mater. Sci. 81, 446 (2014)

   Total energy minimization with Auxiliary Hamiltonian:
      C. Freysoldt, S. Boeck, and J. Neugebauer, Phys. Rev. B 79, 241103(R) (2009)

This list may not be complete. Please suggest additional citations or
report any other bugs at https://github.com/shankar1729/jdftx/issues

Initialization completed successfully at t[s]:   2048.63


-------- Electronic minimization -----------
	FillingsUpdate:  mu: +0.419001970  nElectrons: 154.000000
ElecMinimize: Iter:   0  F: -468.630189605848159  |grad|_K:  1.481e-04  alpha:  1.000e+00
	FillingsUpdate:  mu: +0.404148404  nElectrons: 154.000000
	SubspaceRotationAdjust: set factor to 0.874
ElecMinimize: Iter:   1  F: -469.028189995310868  |grad|_K:  6.743e-05  alpha:  5.903e-01  linmin:  1.190e-03  t[s]:   2680.87
	FillingsUpdate:  mu: +0.401907461  nElectrons: 154.000000
	SubspaceRotationAdjust: set factor to 1.14
ElecMinimize: Iter:   2  F: -469.087030348158692  |grad|_K:  3.230e-05  alpha:  4.305e-01  linmin: -2.438e-05  t[s]:   3001.10
	FillingsUpdate:  mu: +0.402126083  nElectrons: 154.000000
	SubspaceRotationAdjust: set factor to 1.27
ElecMinimize: Iter:   3  F: -469.095290282495284  |grad|_K:  2.019e-05  alpha:  2.584e-01  linmin:  7.726e-06  t[s]:   3324.61
	FillingsUpdate:  mu: +0.403244682  nElectrons: 154.000000
	SubspaceRotationAdjust: set factor to 1.67
ElecMinimize: Iter:   4  F: -469.100560090357476  |grad|_K:  7.987e-06  alpha:  4.286e-01  linmin:  3.518e-04  t[s]:   3648.96
	FillingsUpdate:  mu: +0.403013778  nElectrons: 154.000000
	SubspaceRotationAdjust: set factor to 1.83
ElecMinimize: Iter:   5  F: -469.101294547850728  |grad|_K:  4.094e-06  alpha:  3.879e-01  linmin:  3.562e-05  t[s]:   3972.89
	FillingsUpdate:  mu: +0.402712090  nElectrons: 154.000000
	SubspaceRotationAdjust: set factor to 1.8
ElecMinimize: Iter:   6  F: -469.101483942401273  |grad|_K:  2.522e-06  alpha:  3.717e-01  linmin:  1.118e-05  t[s]:   4293.89
	FillingsUpdate:  mu: +0.402844522  nElectrons: 154.000000
	SubspaceRotationAdjust: set factor to 2.22
ElecMinimize: Iter:   7  F: -469.101535244963486  |grad|_K:  1.140e-06  alpha:  2.648e-01  linmin: -8.481e-07  t[s]:   4625.66
	FillingsUpdate:  mu: +0.403014767  nElectrons: 154.000000
	SubspaceRotationAdjust: set factor to 2.03
ElecMinimize: Iter:   8  F: -469.101553434625259  |grad|_K:  5.987e-07  alpha:  4.583e-01  linmin: -2.278e-06  t[s]:   4996.50
	FillingsUpdate:  mu: +0.402884719  nElectrons: 154.000000
	SubspaceRotationAdjust: set factor to 1.74
ElecMinimize: Iter:   9  F: -469.101556655124341  |grad|_K:  2.885e-07  alpha:  2.942e-01  linmin: -5.518e-07  t[s]:   5058.32
	FillingsUpdate:  mu: +0.402908870  nElectrons: 154.000000
	SubspaceRotationAdjust: set factor to 1.85
ElecMinimize: Iter:  10  F: -469.101557605699156  |grad|_K:  1.959e-07  alpha:  3.738e-01  linmin: -3.326e-07  t[s]:   5119.68
	FillingsUpdate:  mu: +0.402931859  nElectrons: 154.000000
	SubspaceRotationAdjust: set factor to 1.96
ElecMinimize: Iter:  11  F: -469.101557978850963  |grad|_K:  9.090e-08  alpha:  3.184e-01  linmin:  3.317e-07  t[s]:   5181.04
	FillingsUpdate:  mu: +0.402918242  nElectrons: 154.000000
	SubspaceRotationAdjust: set factor to 1.98
ElecMinimize: Iter:  12  F: -469.101558082620272  |grad|_K:  5.107e-08  alpha:  4.113e-01  linmin:  2.020e-07  t[s]:   5242.35
	FillingsUpdate:  mu: +0.402922125  nElectrons: 154.000000
	SubspaceRotationAdjust: set factor to 1.94
ElecMinimize: Iter:  13  F: -469.101558112783380  |grad|_K:  3.055e-08  alpha:  3.786e-01  linmin:  2.778e-07  t[s]:   5303.58
	FillingsUpdate:  mu: +0.402921269  nElectrons: 154.000000
	SubspaceRotationAdjust: set factor to 2.09
ElecMinimize: Iter:  14  F: -469.101558121158519  |grad|_K:  1.689e-08  alpha:  2.941e-01  linmin: -7.706e-08  t[s]:   5365.19
	FillingsUpdate:  mu: +0.402921265  nElectrons: 154.000000
	SubspaceRotationAdjust: set factor to 2.35
ElecMinimize: Iter:  15  F: -469.101558124800533  |grad|_K:  9.177e-09  alpha:  4.186e-01  linmin:  4.650e-07  t[s]:   5426.89
ElecMinimize: Converged (|Delta F|<1.000000e-08 for 2 iters).
Setting wave functions to eigenvectors of Hamiltonian

# Ionic positions in cartesian coordinates:
ion Be   0.000001258064515   2.939547032258065   0.001325000000000 1
ion Be   2.545723735735414   1.469773448924732   4.136063000000000 1
ion Be   0.000001258064515   2.939547032258065   8.270802000000000 1
ion Be   2.545723735735414   1.469773448924732  12.405539999999998 1
ion Be  -2.545719597597843   7.348867615591398   0.001325000000000 1
ion Be   0.000002591397924   5.879094198924732   4.136063000000000 1
ion Be  -2.545719597597843   7.348867615591398   8.270802000000000 1
ion Be   0.000002591397924   5.879094198924732  12.405539999999998 1
ion Be   5.091447258064440   2.939546865591398   0.001325000000000 1
ion Be   7.637169447060209   1.469773448924732   4.136063000000000 1
ion Be   5.091447258064440   2.939546865591398   8.270802000000000 1
ion Be   7.637169447060209   1.469773448924732  12.405539999999998 1
ion Be   2.545726113726951   7.348867615591398   0.001325000000000 1
ion Be   5.091448591397850   5.879094032258066   4.136063000000000 1
ion Be   2.545726113726951   7.348867615591398   8.270802000000000 1
ion Be   5.091448591397850   5.879094032258066  12.405539999999998 1
ion O   0.000001258064515   2.939547032258065   3.120403000000000 1
ion O   2.545723735735414   1.469773448924732   7.255141999999999 1
ion O   0.000001258064515   2.939547032258065  11.389879999999998 1
ion O   2.545723735735414   1.469773448924732  15.524619000000000 1
ion O  -2.545719597597843   7.348867615591398   3.120403000000000 1
ion O   0.000002591397924   5.879094198924732   7.255141999999999 1
ion O  -2.545719597597843   7.348867615591398  11.389879999999998 1
ion O   0.000002591397924   5.879094198924732  15.524619000000000 1
ion O   5.091447258064440   2.939546865591398   3.120403000000000 1
ion O   7.637169447060209   1.469773448924732   7.255141999999999 1
ion O   5.091447258064440   2.939546865591398  11.389879999999998 1
ion O   7.637169447060209   1.469773448924732  15.524619000000000 1
ion O   2.545726113726951   7.348867615591398   3.120403000000000 1
ion O   5.091448591397850   5.879094032258066   7.255141999999999 1
ion O   2.545726113726951   7.348867615591398  11.389879999999998 1

# Forces in Cartesian coordinates:
force Be   0.000000000000000   0.000000000000000   0.000032965134961 1
force Be  -0.000603890516085   0.000348656711178  -0.000797699145749 1
force Be   0.000000000000000  -0.000000000000000  -0.000060064770953 1
force Be  -0.000976900069517   0.000564014099105   0.001210484133622 1
force Be  -0.008836441797559  -0.005101719289701  -0.003009466700957 1
force Be   0.000000000000000  -0.000697312874526  -0.000797699145749 1
force Be  -0.000191098945377  -0.000110330967850  -0.000968007272471 1
force Be   0.000000000000000  -0.001128027311996   0.001210484133622 1
force Be   0.000000000000000   0.010203446595549  -0.003009466700957 1
force Be   0.000603890516085   0.000348656163347  -0.000797699145749 1
force Be   0.000000000000000   0.000220662109058  -0.000968007272471 1
force Be   0.000976900069517   0.000564013212891   0.001210484133622 1
force Be   0.008836441797558  -0.005101727305850  -0.003009466700957 1
force Be   0.000000000000000  -0.000000000000000  -0.005317470104372 1
force Be   0.000191098945377  -0.000110331141209  -0.000968007272471 1
force Be   0.000000000000000   0.000000000000000   0.009882255584710 1
force O   0.000000000000000  -0.000000000000000   0.001290725229224 1
force O   0.000103495659472  -0.000059753308409   0.000772258917879 1
force O   0.000000000000000   0.000000000000000   0.000210369807314 1
force O   0.000590403730820  -0.000340870104054   0.000815808658739 1
force O   0.000656212843637   0.000378864456897  -0.000037398336389 1
force O   0.000000000000000   0.000119506522930   0.000772258917879 1
force O  -0.000673957038347  -0.000389109066945   0.001276737419802 1
force O   0.000000000000000   0.000681739672511   0.000815808658739 1
force O   0.000000000000000  -0.000757729509090  -0.000037398336389 1
force O  -0.000103495659472  -0.000059753214521   0.000772258917879 1
force O   0.000000000000000   0.000778218745283   0.001276737419802 1
force O  -0.000590403730820  -0.000340869568458   0.000815808658739 1
force O  -0.000656212843637   0.000378865052193  -0.000037398336389 1
force O   0.000000000000000   0.000000000000000   0.000858631567288 1
force O   0.000673957038347  -0.000389109678338   0.001276737419802 1

# Energy components:
   Eewald =     -286.1256819450901503
       EH =      102.8596563001023299
     Eloc =     -285.2056289786493153
      Enl =      -47.4554000872997221
      Exc =      -96.8719926025297582
 Exc_core =        0.9757606675919404
       KE =      142.7217285215816105
-------------------------------------
     Etot =     -469.1015581242931489
       TS =        0.0000000005073561
-------------------------------------
        F =     -469.1015581248005333

IonicMinimize: Iter:   0  F: -469.101558124800533  |grad|_K:  2.308e-03  t[s]:   5438.18

#--- Lowdin population analysis ---
# oxidation-state Be +0.473 +0.473 +0.473 +0.474 +0.352 +0.473 +0.472 +0.474 +0.352 +0.473 +0.472 +0.474 +0.352 +0.463 +0.472 +0.360
# oxidation-state O -0.456 -0.455 -0.456 -0.450 -0.453 -0.455 -0.452 -0.450 -0.453 -0.455 -0.452 -0.450 -0.453 -0.455 -0.452


-------- Electronic minimization -----------
	FillingsUpdate:  mu: +0.400514961  nElectrons: 154.000000
ElecMinimize: Iter:   0  F: -469.101978099992948  |grad|_K:  1.788e-06  alpha:  1.000e+00
	FillingsUpdate:  mu: +0.401317189  nElectrons: 154.000000
	SubspaceRotationAdjust: set factor to 1.5
ElecMinimize: Iter:   1  F: -469.102006069700906  |grad|_K:  7.972e-07  alpha:  2.857e-01  linmin: -4.465e-05  t[s]:   5553.36
	FillingsUpdate:  mu: +0.401116278  nElectrons: 154.000000
	SubspaceRotationAdjust: set factor to 0.925
ElecMinimize: Iter:   2  F: -469.102011690811878  |grad|_K:  3.399e-07  alpha:  2.891e-01  linmin: -1.997e-06  t[s]:   5615.14
	FillingsUpdate:  mu: +0.401137495  nElectrons: 154.000000
	SubspaceRotationAdjust: set factor to 0.841
ElecMinimize: Iter:   3  F: -469.102013044784428  |grad|_K:  1.401e-07  alpha:  3.837e-01  linmin: -3.956e-06  t[s]:   5677.17
	FillingsUpdate:  mu: +0.401173444  nElectrons: 154.000000
	SubspaceRotationAdjust: set factor to 1.15
ElecMinimize: Iter:   4  F: -469.102013357199780  |grad|_K:  9.031e-08  alpha:  5.210e-01  linmin: -9.594e-07  t[s]:   5738.90
	FillingsUpdate:  mu: +0.401171414  nElectrons: 154.000000
	SubspaceRotationAdjust: set factor to 1.53
ElecMinimize: Iter:   5  F: -469.102013433839602  |grad|_K:  5.846e-08  alpha:  3.077e-01  linmin:  1.323e-07  t[s]:   5956.67
	FillingsUpdate:  mu: +0.401160004  nElectrons: 154.000000
	SubspaceRotationAdjust: set factor to 1.88
ElecMinimize: Iter:   6  F: -469.102013468370444  |grad|_K:  3.078e-08  alpha:  3.308e-01  linmin:  4.215e-07  t[s]:   6279.30
	FillingsUpdate:  mu: +0.401159306  nElectrons: 154.000000
	SubspaceRotationAdjust: set factor to 1.84
ElecMinimize: Iter:   7  F: -469.102013478127560  |grad|_K:  1.578e-08  alpha:  3.372e-01  linmin: -1.620e-07  t[s]:   6599.71
	FillingsUpdate:  mu: +0.401162548  nElectrons: 154.000000
	SubspaceRotationAdjust: set factor to 1.73
ElecMinimize: Iter:   8  F: -469.102013480702226  |grad|_K:  1.023e-08  alpha:  3.384e-01  linmin: -3.839e-07  t[s]:   6918.33
ElecMinimize: Converged (|Delta F|<1.000000e-08 for 2 iters).
Setting wave functions to eigenvectors of Hamiltonian

# Ionic positions in cartesian coordinates:
ion Be   0.000001258064515   2.939547032258065   0.001206817861683 1
ion Be   2.545119845219329   1.470122105635910   4.135114153580973 1
ion Be   0.000001258064515   2.939547032258065   8.270590787955769 1
ion Be   2.544746835665896   1.470337463023836  12.406599336860342 1
ion Be  -2.554556039395401   7.343765896301697  -0.001835613974235 1
ion Be   0.000002591397924   5.878396886050207   4.135114153580973 1
ion Be  -2.545910696543220   7.348757284623548   8.269682845454250 1
ion Be   0.000002591397925   5.877966171612736  12.406599336860342 1
ion Be   5.091447258064440   2.949750312186947  -0.001835613974235 1
ion Be   7.637773337576294   1.470122105088079   4.135114153580973 1
ion Be   5.091447258064440   2.939767527700456   8.269682845454250 1
ion Be   7.638146347129725   1.470337462137623  12.406599336860342 1
ion Be   2.554562555524509   7.343765888285549  -0.001835613974235 1
ion Be   5.091448591397850   5.879094032258066   4.130594382622350 1
ion Be   2.545917212672328   7.348757284450190   8.269682845454250 1
ion Be   5.091448591397850   5.879094032258066  12.415271108311432 1
ion O   0.000001258064515   2.939547032258065   3.121542577955947 1
ion O   2.545827231394886   1.469713695616323   7.255763111644601 1
ion O   0.000001258064515   2.939547032258065  11.389939222534034 1
ion O   2.546314139466234   1.469432578820678  15.525283661385460 1
ion O  -2.545063384754207   7.349246480048295   3.120214454390334 1
ion O   0.000002591397925   5.879213705447661   7.255763111644601 1
ion O  -2.546393554636190   7.348478506524453  11.391005590146523 1
ion O   0.000002591397925   5.879775938597244  15.525283661385460 1
ion O   5.091447258064440   2.938789136082309   3.120214454390334 1
ion O   7.637065951400736   1.469713695710211   7.255763111644601 1
ion O   5.091447258064440   2.940325084336682  11.391005590146523 1
ion O   7.636579043329388   1.469432579356274  15.525283661385460 1
ion O   2.545069900883314   7.349246480643591   3.120214454390334 1
ion O   5.091448591397850   5.879094032258066   7.255849484294011 1
ion O   2.546400070765297   7.348478505913060  11.391005590146523 1

# Forces in Cartesian coordinates:
force Be   0.000000000000000   0.000000000000000   0.000016655312157 1
force Be  -0.000432170512926   0.000249514019001  -0.000632345791426 1
force Be   0.000000000000000  -0.000000000000000   0.000004122021293 1
force Be  -0.000705047354854   0.000407059699433   0.000986675630566 1
force Be  -0.007393291214314  -0.004268516362872  -0.002637775723904 1
force Be   0.000000000000000  -0.000499027645950  -0.000632345791426 1
force Be  -0.000339928734395  -0.000196257840103  -0.000675226993832 1
force Be   0.000000000000000  -0.000814118759269   0.000986675630566 1
force Be   0.000000000000000   0.008537039432710  -0.002637775723904 1
force Be   0.000432170512926   0.000249513626949  -0.000632345791427 1
force Be   0.000000000000000   0.000392515988580  -0.000675226993832 1
force Be   0.000705047354854   0.000407059059836   0.000986675630566 1
force Be   0.007393291214314  -0.004268523069838  -0.002637775723904 1
force Be   0.000000000000000   0.000000000000000  -0.004209965949909 1
force Be   0.000339928734395  -0.000196258148476  -0.000675226993832 1
force Be   0.000000000000000  -0.000000000000000   0.008489739257536 1
force O   0.000000000000000  -0.000000000000000   0.000980536663097 1
force O   0.000089217975573  -0.000051510075275   0.000547457649068 1
force O   0.000000000000000   0.000000000000000   0.000290071567143 1
force O   0.000242886722231  -0.000140230858916   0.000794621825934 1
force O   0.000213584393268   0.000123312940217  -0.000438312105142 1
force O   0.000000000000000   0.000103020069614   0.000547457649068 1
force O  -0.000716252477875  -0.000413528337128   0.001643917333483 1
force O   0.000000000000000   0.000280461497493   0.000794621825934 1
force O   0.000000000000000  -0.000246626074191  -0.000438312105142 1
force O  -0.000089217975573  -0.000051509994339   0.000547457649068 1
force O   0.000000000000000   0.000827057324018   0.001643917333484 1
force O  -0.000242886722231  -0.000140230638577   0.000794621825934 1
force O  -0.000213584393268   0.000123313133974  -0.000438312105142 1
force O   0.000000000000000   0.000000000000000   0.000251605916883 1
force O   0.000716252477875  -0.000413528986890   0.001643917333483 1

# Energy components:
   Eewald =     -286.2310486308798545
       EH =      102.7730979764494350
     Eloc =     -285.0072052395287869
      Enl =      -47.4564643468614946
      Exc =      -96.8689402396033898
 Exc_core =        0.9757605092034255
       KE =      142.7127864909681136
-------------------------------------
     Etot =     -469.1020134802525945
       TS =        0.0000000004496523
-------------------------------------
        F =     -469.1020134807022259

IonicMinimize: Iter:   1  F: -469.102013480702226  |grad|_K:  1.947e-03  alpha:  1.000e+00  linmin: -9.948e-01  t[s]:   6933.30

#--- Lowdin population analysis ---
# oxidation-state Be +0.472 +0.473 +0.473 +0.474 +0.352 +0.473 +0.472 +0.474 +0.352 +0.473 +0.472 +0.474 +0.352 +0.463 +0.472 +0.360
# oxidation-state O -0.456 -0.455 -0.456 -0.450 -0.453 -0.455 -0.452 -0.450 -0.453 -0.455 -0.452 -0.450 -0.453 -0.455 -0.452


-------- Electronic minimization -----------
	FillingsUpdate:  mu: +0.352619646  nElectrons: 154.000000
ElecMinimize: Iter:   0  F: -468.960351881928659  |grad|_K:  1.205e-04  alpha:  1.000e+00
	FillingsUpdate:  mu: +0.397002269  nElectrons: 154.000000
	SubspaceRotationAdjust: set factor to 1.85
ElecMinimize: Iter:   1  F: -469.079166467203265  |grad|_K:  4.464e-05  alpha:  2.660e-01  linmin: -4.080e-05  t[s]:   7460.49
	FillingsUpdate:  mu: +0.393582796  nElectrons: 154.000000
	SubspaceRotationAdjust: set factor to 2.23
ElecMinimize: Iter:   2  F: -469.098262604740512  |grad|_K:  2.355e-05  alpha:  3.132e-01  linmin: -1.855e-05  t[s]:   7780.68
	FillingsUpdate:  mu: +0.390704505  nElectrons: 154.000000
	SubspaceRotationAdjust: set factor to 2.75
ElecMinimize: Iter:   3  F: -469.102201012013779  |grad|_K:  8.747e-06  alpha:  2.323e-01  linmin: -2.544e-06  t[s]:   8101.87
	FillingsUpdate:  mu: +0.392086003  nElectrons: 154.000000
	SubspaceRotationAdjust: set factor to 2.05
ElecMinimize: Iter:   4  F: -469.103089686629914  |grad|_K:  5.221e-06  alpha:  3.803e-01  linmin:  2.278e-06  t[s]:   8420.44
	FillingsUpdate:  mu: +0.391107135  nElectrons: 154.000000
	SubspaceRotationAdjust: set factor to 1.2
ElecMinimize: Iter:   5  F: -469.103276542671551  |grad|_K:  2.346e-06  alpha:  2.246e-01  linmin:  2.254e-06  t[s]:   8744.00
	FillingsUpdate:  mu: +0.391951022  nElectrons: 154.000000
	SubspaceRotationAdjust: set factor to 1.45
ElecMinimize: Iter:   6  F: -469.103326371696369  |grad|_K:  1.078e-06  alpha:  2.965e-01  linmin: -1.221e-06  t[s]:   9066.88
	FillingsUpdate:  mu: +0.392151608  nElectrons: 154.000000
	SubspaceRotationAdjust: set factor to 1.55
ElecMinimize: Iter:   7  F: -469.103340779564121  |grad|_K:  7.926e-07  alpha:  4.062e-01  linmin: -9.340e-07  t[s]:   9390.01
	FillingsUpdate:  mu: +0.391995316  nElectrons: 154.000000
	SubspaceRotationAdjust: set factor to 1.98
ElecMinimize: Iter:   8  F: -469.103346050610867  |grad|_K:  3.228e-07  alpha:  2.748e-01  linmin:  6.166e-08  t[s]:   9709.08
	FillingsUpdate:  mu: +0.391933878  nElectrons: 154.000000
	SubspaceRotationAdjust: set factor to 1.97
ElecMinimize: Iter:   9  F: -469.103347131947658  |grad|_K:  1.944e-07  alpha:  3.398e-01  linmin: -1.462e-06  t[s]:   9772.35
	FillingsUpdate:  mu: +0.392021738  nElectrons: 154.000000
	SubspaceRotationAdjust: set factor to 1.29
ElecMinimize: Iter:  10  F: -469.103347533590750  |grad|_K:  1.063e-07  alpha:  3.480e-01  linmin:  2.731e-07  t[s]:   9834.44
	FillingsUpdate:  mu: +0.391996682  nElectrons: 154.000000
	SubspaceRotationAdjust: set factor to 1.33
ElecMinimize: Iter:  11  F: -469.103347638329865  |grad|_K:  4.917e-08  alpha:  3.036e-01  linmin: -2.263e-07  t[s]:   9896.45
	FillingsUpdate:  mu: +0.391989123  nElectrons: 154.000000
	SubspaceRotationAdjust: set factor to 1.47
ElecMinimize: Iter:  12  F: -469.103347665796662  |grad|_K:  3.740e-08  alpha:  3.719e-01  linmin: -7.246e-07  t[s]:   9958.50
	FillingsUpdate:  mu: +0.391997323  nElectrons: 154.000000
	SubspaceRotationAdjust: set factor to 1.99
ElecMinimize: Iter:  13  F: -469.103347679978754  |grad|_K:  1.787e-08  alpha:  3.320e-01  linmin: -4.935e-07  t[s]:  10020.79
	FillingsUpdate:  mu: +0.392002616  nElectrons: 154.000000
	SubspaceRotationAdjust: set factor to 1.86
ElecMinimize: Iter:  14  F: -469.103347683137599  |grad|_K:  8.694e-09  alpha:  3.237e-01  linmin:  3.114e-06  t[s]:  10082.50
	FillingsUpdate:  mu: +0.391999088  nElectrons: 154.000000
	SubspaceRotationAdjust: set factor to 1.37
ElecMinimize: Iter:  15  F: -469.103347683923459  |grad|_K:  4.887e-09  alpha:  3.418e-01  linmin: -7.407e-06  t[s]:  10144.22
ElecMinimize: Converged (|Delta F|<1.000000e-08 for 2 iters).
Setting wave functions to eigenvectors of Hamiltonian

# Ionic positions in cartesian coordinates:
ion Be   0.000001258064515   2.939547032258065  -0.000568369549165 1
ion Be   2.543602541099826   1.470998122480143   4.129530083584722 1
ion Be   0.000001258064515   2.939547032258065   8.270287924176182 1
ion Be   2.542104971245470   1.471862745729344  12.411802556487185 1
ion Be  -2.610522192083971   7.311453840467131  -0.026317533887930 1
ion Be   0.000002591397924   5.876644853738192   4.129530083584722 1
ion Be  -2.552804649355743   7.344777061265357   8.266164754534049 1
ion Be   0.000002591397925   5.874915608598339  12.411802556487185 1
ion Be   5.091447258064440   3.014374474626853  -0.026317533887930 1
ion Be   7.639290641695797   1.470998120555861   4.129530083584722 1
ion Be   5.091447258064441   2.947727980670820   8.266164754534049 1
ion Be   7.640788211550152   1.471862742446512  12.411802556487185 1
ion Be   2.610528708213078   7.311453781680210  -0.026317533887930 1
ion Be   5.091448591397850   5.879094032258066   4.102823775188632 1
ion Be   2.552811165484850   7.344777054838017   8.266164754534049 1
ion Be   5.091448591397850   5.879094032258066  12.483212329788978 1
ion O   0.000001258064515   2.939547032258065   3.124940806807261 1
ion O   2.546565596219259   1.469287400047079   7.255900090891291 1
ion O   0.000001258064515   2.939547032258065  11.393233249259389 1
ion O   2.542126810356535   1.471850136899703  15.532348835699771 1
ion O  -2.551497156096395   7.345531942442102   3.105489400921054 1
ion O   0.000002591397925   5.880066295916328   7.255900090891291 1
ion O  -2.555472059084661   7.343237032373716  11.415626738152310 1
ion O   0.000002591397925   5.874940826237809  15.532348835699771 1
ion O   5.091447258064439   2.946218217131214   3.105489400921054 1
ion O   7.636327586576363   1.469287400810789   7.255900090891291 1
ion O   5.091447258064440   2.950808040873896  11.415626738152310 1
ion O   7.640766372439087   1.471850133636683  15.532348835699771 1
ion O   2.551503672225504   7.345531937200877   3.105489400921054 1
ion O   5.091448591397850   5.879094032258066   7.244912505181337 1
ion O   2.555478575213769   7.343237023526582  11.415626738152310 1

# Forces in Cartesian coordinates:
force Be   0.000000000000000   0.000000000000000   0.000569040519357 1
force Be   0.000128283063987  -0.000074064337820  -0.001782259694011 1
force Be   0.000000000000000   0.000000000000000   0.000297606395240 1
force Be  -0.000352381255824   0.000203447622481   0.001623676187994 1
force Be   0.001343178304135   0.000775483935808  -0.000552605309396 1
force Be   0.000000000000000   0.000148128559265  -0.001782259694011 1
force Be  -0.000079636669399  -0.000045978227634   0.001068032887704 1
force Be   0.000000000000000  -0.000406894925292   0.001623676187994 1
force Be   0.000000000000000  -0.001550969090107  -0.000552605309396 1
force Be  -0.000128283063987  -0.000074064221445  -0.001782259694011 1
force Be   0.000000000000000   0.000091956527511   0.001068032887704 1
force Be   0.000352381255824   0.000203447302812   0.001623676187994 1
force Be  -0.001343178304135   0.000775485154298  -0.000552605309396 1
force Be   0.000000000000000  -0.000000000000000  -0.000506873104091 1
force Be   0.000079636669399  -0.000045978299878   0.001068032887704 1
force Be   0.000000000000000   0.000000000000000   0.002091735660496 1
force O   0.000000000000000   0.000000000000000   0.001037684770721 1
force O   0.000495508334025  -0.000286082164732   0.000820201333435 1
force O   0.000000000000000  -0.000000000000000  -0.001093035689369 1
force O   0.000246682836758  -0.000142422548918  -0.000485040716838 1
force O   0.000239913869690   0.000138514262291  -0.000155512466323 1
force O   0.000000000000000   0.000572163879954   0.000820201333435 1
force O   0.000041437715508   0.000023924063257  -0.000389116354220 1
force O   0.000000000000000   0.000284844874053  -0.000485040716838 1
force O   0.000000000000000  -0.000277028742224  -0.000155512466323 1
force O  -0.000495508334025  -0.000286081715222   0.000820201333435 1
force O   0.000000000000000  -0.000047848164104  -0.000389116354220 1
force O  -0.000246682836758  -0.000142422325135  -0.000485040716838 1
force O  -0.000239913869690   0.000138514479933  -0.000155512466323 1
force O   0.000000000000000   0.000000000000000   0.000904641513672 1
force O  -0.000041437715508   0.000023924100848  -0.000389116354220 1

# Energy components:
   Eewald =     -287.0467641865271844
       EH =      102.0607186049572022
     Eloc =     -283.4345628452298911
      Enl =      -47.4636383440441136
      Exc =      -96.8484411110708550
 Exc_core =        0.9757586873578029
       KE =      142.6535815108477436
-------------------------------------
     Etot =     -469.1033476837092167
       TS =        0.0000000002142523
-------------------------------------
        F =     -469.1033476839234595

IonicMinimize: Iter:   2  F: -469.103347683923459  |grad|_K:  6.718e-04  alpha:  1.000e+00  linmin:  1.083e-01  t[s]:  10155.40

#--- Lowdin population analysis ---
# oxidation-state Be +0.467 +0.475 +0.473 +0.471 +0.354 +0.475 +0.474 +0.471 +0.354 +0.475 +0.474 +0.471 +0.354 +0.459 +0.474 +0.359
# oxidation-state O -0.456 -0.455 -0.456 -0.449 -0.452 -0.455 -0.452 -0.449 -0.452 -0.455 -0.452 -0.449 -0.452 -0.455 -0.452


-------- Electronic minimization -----------
	FillingsUpdate:  mu: +0.388145869  nElectrons: 154.000000
ElecMinimize: Iter:   0  F: -469.103204170892184  |grad|_K:  3.672e-06  alpha:  1.000e+00
	FillingsUpdate:  mu: +0.390702408  nElectrons: 154.000000
	SubspaceRotationAdjust: set factor to 0.956
ElecMinimize: Iter:   1  F: -469.103345536871245  |grad|_K:  1.593e-06  alpha:  3.430e-01  linmin: -1.269e-05  t[s]:  10270.64
	FillingsUpdate:  mu: +0.390194079  nElectrons: 154.000000
	SubspaceRotationAdjust: set factor to 1.24
ElecMinimize: Iter:   2  F: -469.103379425306059  |grad|_K:  5.336e-07  alpha:  4.368e-01  linmin: -2.842e-06  t[s]:  10332.67
	FillingsUpdate:  mu: +0.390085887  nElectrons: 154.000000
	SubspaceRotationAdjust: set factor to 1.56
ElecMinimize: Iter:   3  F: -469.103382564396782  |grad|_K:  2.581e-07  alpha:  3.610e-01  linmin: -8.932e-08  t[s]:  10394.28
	FillingsUpdate:  mu: +0.390063920  nElectrons: 154.000000
	SubspaceRotationAdjust: set factor to 1.6
ElecMinimize: Iter:   4  F: -469.103383143767246  |grad|_K:  1.458e-07  alpha:  2.847e-01  linmin: -6.149e-08  t[s]:  10455.98
	FillingsUpdate:  mu: +0.390075324  nElectrons: 154.000000
	SubspaceRotationAdjust: set factor to 1.71
ElecMinimize: Iter:   5  F: -469.103383358776853  |grad|_K:  6.967e-08  alpha:  3.314e-01  linmin:  1.005e-06  t[s]:  10517.84
	FillingsUpdate:  mu: +0.390088530  nElectrons: 154.000000
	SubspaceRotationAdjust: set factor to 1.62
ElecMinimize: Iter:   6  F: -469.103383408372338  |grad|_K:  3.196e-08  alpha:  3.346e-01  linmin:  9.201e-07  t[s]:  10579.42
	FillingsUpdate:  mu: +0.390083321  nElectrons: 154.000000
	SubspaceRotationAdjust: set factor to 1.53
ElecMinimize: Iter:   7  F: -469.103383421004594  |grad|_K:  1.992e-08  alpha:  4.047e-01  linmin: -1.010e-06  t[s]:  10640.88
	FillingsUpdate:  mu: +0.390081409  nElectrons: 154.000000
	SubspaceRotationAdjust: set factor to 1.83
ElecMinimize: Iter:   8  F: -469.103383424114838  |grad|_K:  8.966e-09  alpha:  2.572e-01  linmin: -3.329e-06  t[s]:  10702.42
	FillingsUpdate:  mu: +0.390083486  nElectrons: 154.000000
	SubspaceRotationAdjust: set factor to 1.48
ElecMinimize: Iter:   9  F: -469.103383425107836  |grad|_K:  4.471e-09  alpha:  3.988e-01  linmin: -1.530e-05  t[s]:  10764.05
ElecMinimize: Converged (|Delta F|<1.000000e-08 for 2 iters).
Setting wave functions to eigenvectors of Hamiltonian

# Ionic positions in cartesian coordinates:
ion Be   0.000001258064515   2.939547032258065   0.002286462212844 1
ion Be   2.544365479446400   1.470557639366626   4.116305762541950 1
ion Be   0.000001258064515   2.939547032258065   8.271461876410312 1
ion Be   2.539562958758301   1.473330378834921  12.422298534578651 1
ion Be  -2.606042089536511   7.314040427479171  -0.032870875336205 1
ion Be   0.000002591397924   5.877525819273112   4.116305762541950 1
ion Be  -2.553959097997961   7.344110540391696   8.272277569789285 1
ion Be   0.000002591397924   5.871980344693222  12.422298534578651 1
ion Be   5.091447258064440   3.009201296538562  -0.032870875336205 1
ion Be   7.638527703349221   1.470557638134458   4.116305762541950 1
ion Be   5.091447258064440   2.949061023465424   8.272277569789285 1
ion Be   7.643330224037321   1.473330373246054  12.422298534578651 1
ion Be   2.606048605665619   7.314040372756461  -0.032870875336205 1
ion Be   5.091448591397850   5.879094032258066   4.096432124032687 1
ion Be   2.553965614127068   7.344110532917075   8.272277569789285 1
ion Be   5.091448591397850   5.879094032258066  12.502020994924179 1
ion O   0.000001258064515   2.939547032258065   3.131331513813416 1
ion O   2.549953034471665   1.467331659645558   7.260566510906886 1
ion O   0.000001258064515   2.939547032258065  11.385382666729154 1
ion O   2.543358597617691   1.471138963460302  15.528885213979626 1
ion O  -2.550521462574465   7.346095259054796   3.102295998985508 1
ion O   0.000002591397925   5.883977773646390   7.260566510906886 1
ion O  -2.555981415773631   7.342942955311365  11.414387216690185 1
ion O   0.000002591397925   5.876363171999171  15.528885213979626 1
ion O   5.091447258064439   2.945091583020706   3.102295998985508 1
ion O   7.632940148323959   1.467331663482248   7.260566510906886 1
ion O   5.091447258064440   2.951396195460670  11.414387216690185 1
ion O   7.639534585177932   1.471138961314722  15.528885213979626 1
ion O   2.550527978703572   7.346095254698691   3.102295998985508 1
ion O   5.091448591397850   5.879094032258066   7.249123565469716 1
ion O   2.555987931902739   7.342942946002159  11.414387216690185 1

# Forces in Cartesian coordinates:
force Be   0.000000000000000   0.000000000000000   0.000525826972044 1
force Be   0.000432206920410  -0.000249535038893   0.001914476092924 1
force Be   0.000000000000000  -0.000000000000000  -0.000674721196411 1
force Be   0.000120066680225  -0.000069320601557  -0.001934410499792 1
force Be   0.000572222756929   0.000330372783968   0.000128279714110 1
force Be   0.000000000000000   0.000499069685701   0.001914476092924 1
force Be   0.000285650149639   0.000164920101541   0.000399521267546 1
force Be   0.000000000000000   0.000138641094193  -0.001934410499792 1
force Be   0.000000000000000  -0.000660746087039   0.000128279714110 1
force Be  -0.000432206920410  -0.000249534646808   0.001914476092924 1
force Be   0.000000000000000  -0.000329840462216   0.000399521267546 1
force Be  -0.000120066680225  -0.000069320492636  -0.001934410499792 1
force Be  -0.000572222756929   0.000330373303071   0.000128279714110 1
force Be   0.000000000000000   0.000000000000000   0.001550283040984 1
force Be  -0.000285650149639   0.000164920360674   0.000399521267546 1
force Be   0.000000000000000   0.000000000000000  -0.000541874384127 1
force O   0.000000000000000  -0.000000000000000  -0.001921572205435 1
force O  -0.000257042143795   0.000148403503786  -0.001149139645633 1
force O   0.000000000000000   0.000000000000000   0.002344501438911 1
force O  -0.000450896770502   0.000260325639991   0.000973801155354 1
force O  -0.000090548300166  -0.000052278057185  -0.001685796243582 1
force O   0.000000000000000  -0.000296806774390  -0.001149139645633 1
force O  -0.000018604738195  -0.000010741444793   0.002326474672389 1
force O   0.000000000000000  -0.000520650870942   0.000973801155354 1
force O   0.000000000000000   0.000104556196513  -0.001685796243582 1
force O   0.000257042143795   0.000148403270605  -0.001149139645633 1
force O   0.000000000000000   0.000021482906463   0.002326474672389 1
force O   0.000450896770502   0.000260325230951   0.000973801155354 1
force O   0.000090548300166  -0.000052278139328  -0.001685796243581 1
force O   0.000000000000000  -0.000000000000000  -0.000845596630429 1
force O   0.000018604738195  -0.000010741461670   0.002326474672389 1

# Energy components:
   Eewald =     -287.1230007928146506
       EH =      101.9956170125760906
     Eloc =     -283.2913562096588294
      Enl =      -47.4638924774695283
      Exc =      -96.8475845131831079
 Exc_core =        0.9757588525857233
       KE =      142.6510747030699235
-------------------------------------
     Etot =     -469.1033834248943890
       TS =        0.0000000002134721
-------------------------------------
        F =     -469.1033834251078360

IonicMinimize: Iter:   3  F: -469.103383425107836  |grad|_K:  8.728e-04  alpha:  1.000e+00  linmin:  5.436e-01  t[s]:  10775.29

#--- Lowdin population analysis ---
# oxidation-state Be +0.469 +0.476 +0.472 +0.471 +0.355 +0.476 +0.472 +0.471 +0.355 +0.476 +0.472 +0.471 +0.355 +0.460 +0.472 +0.355
# oxidation-state O -0.456 -0.455 -0.456 -0.449 -0.452 -0.455 -0.452 -0.449 -0.452 -0.455 -0.452 -0.449 -0.452 -0.456 -0.452


-------- Electronic minimization -----------
	FillingsUpdate:  mu: +0.392231636  nElectrons: 154.000000
ElecMinimize: Iter:   0  F: -469.103423580070285  |grad|_K:  1.681e-06  alpha:  1.000e+00
	FillingsUpdate:  mu: +0.391046593  nElectrons: 154.000000
	SubspaceRotationAdjust: set factor to 1.07
ElecMinimize: Iter:   1  F: -469.103450647276873  |grad|_K:  7.465e-07  alpha:  3.139e-01  linmin:  1.103e-05  t[s]:  10890.76
	FillingsUpdate:  mu: +0.391216317  nElectrons: 154.000000
	SubspaceRotationAdjust: set factor to 1.14
ElecMinimize: Iter:   2  F: -469.103458089879155  |grad|_K:  2.502e-07  alpha:  4.376e-01  linmin: -3.213e-07  t[s]:  10952.54
	FillingsUpdate:  mu: +0.391292634  nElectrons: 154.000000
	SubspaceRotationAdjust: set factor to 1.36
ElecMinimize: Iter:   3  F: -469.103458791651065  |grad|_K:  1.096e-07  alpha:  3.670e-01  linmin: -9.130e-08  t[s]:  11176.09
	FillingsUpdate:  mu: +0.391304421  nElectrons: 154.000000
	SubspaceRotationAdjust: set factor to 1.48
ElecMinimize: Iter:   4  F: -469.103458895690380  |grad|_K:  6.717e-08  alpha:  2.835e-01  linmin:  1.006e-06  t[s]:  11237.75
	FillingsUpdate:  mu: +0.391298768  nElectrons: 154.000000
	SubspaceRotationAdjust: set factor to 1.66
ElecMinimize: Iter:   5  F: -469.103458944912802  |grad|_K:  3.234e-08  alpha:  3.573e-01  linmin:  4.071e-07  t[s]:  11299.27
	FillingsUpdate:  mu: +0.391293343  nElectrons: 154.000000
	SubspaceRotationAdjust: set factor to 1.73
ElecMinimize: Iter:   6  F: -469.103458955169742  |grad|_K:  1.392e-08  alpha:  3.211e-01  linmin:  3.786e-08  t[s]:  11360.77
	FillingsUpdate:  mu: +0.391294629  nElectrons: 154.000000
	SubspaceRotationAdjust: set factor to 1.66
ElecMinimize: Iter:   7  F: -469.103458957557734  |grad|_K:  8.459e-09  alpha:  4.036e-01  linmin:  6.940e-07  t[s]:  11422.33
	FillingsUpdate:  mu: +0.391294762  nElectrons: 154.000000
	SubspaceRotationAdjust: set factor to 1.9
ElecMinimize: Iter:   8  F: -469.103458958087117  |grad|_K:  3.571e-09  alpha:  2.446e-01  linmin:  2.136e-06  t[s]:  11483.81
ElecMinimize: Converged (|Delta F|<1.000000e-08 for 2 iters).
Setting wave functions to eigenvectors of Hamiltonian

# Ionic positions in cartesian coordinates:
ion Be   0.000001258064515   2.939547032258065   0.002674228411959 1
ion Be   2.544915456420680   1.470240109685387   4.120647587181899 1
ion Be   0.000001258064515   2.939547032258065   8.270078283595371 1
ion Be   2.539965587223595   1.473097920942642  12.417918297184702 1
ion Be  -2.605041009758885   7.314618400845493  -0.031739088486822 1
ion Be   0.000002591397925   5.878160878136669   4.120647587181899 1
ion Be  -2.553159191750644   7.344572366228993   8.272004849421181 1
ion Be   0.000002591397924   5.872445260112527  12.417918297184702 1
ion Be   5.091447258064440   3.008045348897768  -0.031739088486822 1
ion Be   7.637977726374943   1.470240108952141   4.120647587181899 1
ion Be   5.091447258064441   2.948137371065178   8.272004849421181 1
ion Be   7.642927595572027   1.473097915719027  12.417918297184702 1
ion Be   2.605047525887992   7.314618347030932  -0.031739088486822 1
ion Be   5.091448591397850   5.879094032258066   4.099514759835506 1
ion Be   2.553165707879751   7.344572359480023   8.272004849421181 1
ion Be   5.091448591397850   5.879094032258066  12.498038610309438 1
ion O   0.000001258064515   2.939547032258065   3.127503991023481 1
ion O   2.549166180873725   1.467785950250111   7.258176465861072 1
ion O   0.000001258064515   2.939547032258065  11.389647846281274 1
ion O   2.542769292787695   1.471479199113016  15.530475495592974 1
ion O  -2.550421939250811   7.346152718841404   3.100344432762963 1
ion O   0.000002591397925   5.883069193151093   7.258176465861072 1
ion O  -2.555730459146623   7.343087845109116  11.417282905497858 1
ion O   0.000002591397925   5.875682701228343  15.530475495592974 1
ion O   5.091447258064440   2.944976663357207   3.100344432762963 1
ion O   7.633727001921897   1.467785953372992   7.258176465861072 1
ion O   5.091447258064440   2.951106415637508  11.417282905497858 1
ion O   7.640123890007928   1.471479196432837  15.530475495592974 1
ion O   2.550428455379919   7.346152714575583   3.100344432762963 1
ion O   5.091448591397850   5.879094032258066   7.247686445495459 1
ion O   2.555736975275730   7.343087836027570  11.417282905497858 1

# Forces in Cartesian coordinates:
force Be   0.000000000000000  -0.000000000000000   0.000351022889924 1
force Be   0.000212961156887  -0.000122953307911   0.000331500002665 1
force Be   0.000000000000000   0.000000000000000  -0.000254342669765 1
force Be   0.000025433870683  -0.000014684267212  -0.000241792902006 1
force Be   0.000492008005081   0.000284060800457  -0.000147833083186 1
force Be   0.000000000000000   0.000245906422631   0.000331500002665 1
force Be   0.000062235784941   0.000035931827745   0.000512162971792 1
force Be   0.000000000000000   0.000029368511350  -0.000241792902006 1
force Be   0.000000000000000  -0.000568122047249  -0.000147833083186 1
force Be  -0.000212961156887  -0.000122953114720   0.000331500002665 1
force Be   0.000000000000000  -0.000071863711948   0.000512162971792 1
force Be  -0.000025433870683  -0.000014684244139  -0.000241792902006 1
force Be  -0.000492008005081   0.000284061246792  -0.000147833083186 1
force Be   0.000000000000000  -0.000000000000000   0.000349628811408 1
force Be  -0.000062235784941   0.000035931884203   0.000512162971792 1
force Be   0.000000000000000  -0.000000000000000   0.000684225648053 1
force O   0.000000000000000  -0.000000000000000  -0.000315443811288 1
force O  -0.000033826124639   0.000019529542284  -0.000216273803001 1
force O   0.000000000000000  -0.000000000000000   0.000511468822629 1
force O  -0.000211519690036   0.000122121075780   0.000208196055936 1
force O  -0.000089189941669  -0.000051493808966  -0.000522566961436 1
force O   0.000000000000000  -0.000039059053881  -0.000216273803001 1
force O  -0.000004785860981  -0.000002763116630   0.000810676359757 1
force O   0.000000000000000  -0.000244241959675   0.000208196055936 1
force O   0.000000000000000   0.000102987698842  -0.000522566961436 1
force O   0.000033826124639   0.000019529511598  -0.000216273803001 1
force O   0.000000000000000   0.000005526237602   0.000810676359757 1
force O   0.000211519690036   0.000122120883896   0.000208196055936 1
force O   0.000089189941669  -0.000051493889876  -0.000522566961436 1
force O   0.000000000000000  -0.000000000000000  -0.000074399609812 1
force O   0.000004785860981  -0.000002763120972   0.000810676359757 1

# Energy components:
   Eewald =     -287.1106510110634531
       EH =      102.0007611318078204
     Eloc =     -283.3100887855936207
      Enl =      -47.4637839733001314
      Exc =      -96.8481511455289734
 Exc_core =        0.9757587523355196
       KE =      142.6526960734722138
-------------------------------------
     Etot =     -469.1034589578706004
       TS =        0.0000000002165114
-------------------------------------
        F =     -469.1034589580871170

IonicMinimize: Iter:   4  F: -469.103458958087117  |grad|_K:  2.656e-04  alpha:  1.000e+00  linmin: -5.899e-01  t[s]:  11494.99

#--- Lowdin population analysis ---
# oxidation-state Be +0.469 +0.475 +0.473 +0.471 +0.355 +0.475 +0.473 +0.471 +0.355 +0.475 +0.473 +0.471 +0.355 +0.460 +0.473 +0.355
# oxidation-state O -0.456 -0.455 -0.456 -0.449 -0.452 -0.455 -0.452 -0.449 -0.452 -0.455 -0.452 -0.449 -0.452 -0.455 -0.452


-------- Electronic minimization -----------
	FillingsUpdate:  mu: +0.391682895  nElectrons: 154.000000
ElecMinimize: Iter:   0  F: -469.103469651496823  |grad|_K:  6.989e-07  alpha:  1.000e+00
	FillingsUpdate:  mu: +0.391452047  nElectrons: 154.000000
	SubspaceRotationAdjust: set factor to 1.33
ElecMinimize: Iter:   1  F: -469.103474491209454  |grad|_K:  4.065e-07  alpha:  3.248e-01  linmin:  1.390e-05  t[s]:  11609.87
	FillingsUpdate:  mu: +0.391523768  nElectrons: 154.000000
	SubspaceRotationAdjust: set factor to 0.792
ElecMinimize: Iter:   2  F: -469.103476025726707  |grad|_K:  1.330e-07  alpha:  3.044e-01  linmin: -3.551e-07  t[s]:  11927.48
	FillingsUpdate:  mu: +0.391558009  nElectrons: 154.000000
	SubspaceRotationAdjust: set factor to 0.787
ElecMinimize: Iter:   3  F: -469.103476248476511  |grad|_K:  5.413e-08  alpha:  4.122e-01  linmin: -1.494e-07  t[s]:  12244.71
	FillingsUpdate:  mu: +0.391548198  nElectrons: 154.000000
	SubspaceRotationAdjust: set factor to 1
ElecMinimize: Iter:   4  F: -469.103476291138463  |grad|_K:  3.795e-08  alpha:  4.768e-01  linmin:  3.142e-06  t[s]:  12563.40
	FillingsUpdate:  mu: +0.391544123  nElectrons: 154.000000
	SubspaceRotationAdjust: set factor to 1.36
ElecMinimize: Iter:   5  F: -469.103476302955869  |grad|_K:  2.101e-08  alpha:  2.688e-01  linmin: -1.885e-06  t[s]:  12885.13
	FillingsUpdate:  mu: +0.391544071  nElectrons: 154.000000
	SubspaceRotationAdjust: set factor to 1.78
ElecMinimize: Iter:   6  F: -469.103476308310178  |grad|_K:  1.144e-08  alpha:  3.964e-01  linmin: -5.062e-06  t[s]:  13207.70
	FillingsUpdate:  mu: +0.391544310  nElectrons: 154.000000
	SubspaceRotationAdjust: set factor to 1.86
ElecMinimize: Iter:   7  F: -469.103476309788675  |grad|_K:  5.520e-09  alpha:  3.695e-01  linmin: -9.054e-06  t[s]:  13530.82
ElecMinimize: Converged (|Delta F|<1.000000e-08 for 2 iters).
Setting wave functions to eigenvectors of Hamiltonian

# Ionic positions in cartesian coordinates:
ion Be   0.000001258064515   2.939547032258065   0.003796124556748 1
ion Be   2.545700775213774   1.469786705201737   4.120399833450248 1
ion Be   0.000001258064515   2.939547032258065   8.268856925740446 1
ion Be   2.539727478583784   1.473235393171545  12.417431349074375 1
ion Be  -2.603691119836655   7.315397759733719  -0.033436214442582 1
ion Be   0.000002591397924   5.879067686391551   4.120399833450248 1
ion Be  -2.553013129660553   7.344656695170390   8.273811190438344 1
ion Be   0.000002591397924   5.872170315870727  12.417431349074375 1
ion Be   5.091447258064440   3.006486629896739  -0.033436214442582 1
ion Be   7.637192407581850   1.469786705180908   4.120399833450248 1
ion Be   5.091447258064441   2.947968713049881   8.273811190438344 1
ion Be   7.643165704211839   1.473235387731925  12.417431349074375 1
ion Be   2.603697635965762   7.315397707143736  -0.033436214442582 1
ion Be   5.091448591397850   5.879094032258066   4.099520067309181 1
ion Be   2.553019645789662   7.344656688553923   8.273811190438344 1
ion Be   5.091448591397850   5.879094032258066  12.502292307846755 1
ion O   0.000001258064515   2.939547032258065   3.126391967696923 1
ion O   2.549345048022061   1.467682681147491   7.257366601892919 1
ion O   0.000001258064515   2.939547032258065  11.390693626834782 1
ion O   2.542196420735905   1.471809947287036  15.530714209061284 1
ion O  -2.550539543728343   7.346084819901387   3.097608648639196 1
ion O   0.000002591397925   5.883275731194070   7.257366601892919 1
ion O  -2.555850044734533   7.343018802375107  11.419955731394758 1
ion O   0.000002591397925   5.875021205399995  15.530714209061284 1
ion O   5.091447258064440   2.945112461343929   3.097608648639196 1
ion O   7.633548134773562   1.467682684432635   7.257366601892919 1
ion O   5.091447258064440   2.951244501214011  11.419955731394758 1
ion O   7.640696762059716   1.471809944087164  15.530714209061284 1
ion O   2.550546059857450   7.346084815528878   3.097608648639196 1
ion O   5.091448591397850   5.879094032258066   7.247371931489510 1
ion O   2.555856560863642   7.343018793185077  11.419955731394758 1

# Forces in Cartesian coordinates:
force Be   0.000000000000000   0.000000000000000   0.000244641164505 1
force Be   0.000095660988706  -0.000055229954473   0.000052195363826 1
force Be   0.000000000000000  -0.000000000000000  -0.000141928706826 1
force Be   0.000010102248997  -0.000005832542186   0.000090720785750 1
force Be   0.000324010785507   0.000187067613001  -0.000096516965075 1
force Be   0.000000000000000   0.000110459822166   0.000052195363826 1
force Be  -0.000015674110615  -0.000009049447086   0.000376842466040 1
force Be   0.000000000000000   0.000011665075208   0.000090720785750 1
force Be   0.000000000000000  -0.000374135519935  -0.000096516965075 1
force Be  -0.000095660988706  -0.000055229867692   0.000052195363826 1
force Be   0.000000000000000   0.000018098908391   0.000376842466040 1
force Be  -0.000010102248997  -0.000005832533022   0.000090720785750 1
force Be  -0.000324010785507   0.000187067906934  -0.000096516965075 1
force Be   0.000000000000000  -0.000000000000000   0.000074982170194 1
force Be   0.000015674110615  -0.000009049461305   0.000376842466040 1
force Be   0.000000000000000  -0.000000000000000   0.000759745738206 1
force O   0.000000000000000  -0.000000000000000   0.000120071830492 1
force O   0.000010436600691  -0.000006025580425   0.000056219192236 1
force O   0.000000000000000   0.000000000000000  -0.000000298352499 1
force O  -0.000105415617886   0.000060861798058   0.000008394571099 1
force O  -0.000061035832167  -0.000035239035062  -0.000063584963189 1
force O   0.000000000000000   0.000012051151383   0.000056219192236 1
force O   0.000008044798941   0.000004644664321   0.000305756090891 1
force O   0.000000000000000  -0.000121723500486   0.000008394571099 1
force O   0.000000000000000   0.000070478125494  -0.000063584963190 1
force O  -0.000010436600691  -0.000006025570957   0.000056219192236 1
force O   0.000000000000000  -0.000009289335939   0.000305756090890 1
force O   0.000105415617886   0.000060861702428   0.000008394571099 1
force O   0.000061035832167  -0.000035239090432  -0.000063584963189 1
force O   0.000000000000000   0.000000000000000   0.000152189424005 1
force O  -0.000008044798941   0.000004644671619   0.000305756090891 1

# Energy components:
   Eewald =     -287.1378425664648830
       EH =      101.9726586842350713
     Eloc =     -283.2543895912963308
      Enl =      -47.4638921184340461
      Exc =      -96.8479800762375334
 Exc_core =        0.9757586167064572
       KE =      142.6522107419186796
-------------------------------------
     Etot =     -469.1034763095725566
       TS =        0.0000000002161423
-------------------------------------
        F =     -469.1034763097886753

IonicMinimize: Iter:   5  F: -469.103476309788675  |grad|_K:  1.326e-04  alpha:  1.000e+00  linmin: -7.760e-01  t[s]:  13545.85

#--- Lowdin population analysis ---
# oxidation-state Be +0.469 +0.475 +0.473 +0.471 +0.355 +0.475 +0.473 +0.471 +0.355 +0.475 +0.473 +0.471 +0.355 +0.460 +0.473 +0.354
# oxidation-state O -0.456 -0.455 -0.456 -0.449 -0.452 -0.455 -0.452 -0.449 -0.452 -0.455 -0.452 -0.449 -0.452 -0.455 -0.452


-------- Electronic minimization -----------
	FillingsUpdate:  mu: +0.391501262  nElectrons: 154.000000
ElecMinimize: Iter:   0  F: -469.103475421738608  |grad|_K:  8.855e-07  alpha:  1.000e+00
	FillingsUpdate:  mu: +0.391599759  nElectrons: 154.000000
	SubspaceRotationAdjust: set factor to 1.28
ElecMinimize: Iter:   1  F: -469.103484279185523  |grad|_K:  4.830e-07  alpha:  3.708e-01  linmin:  4.989e-05  t[s]:  14083.15
	FillingsUpdate:  mu: +0.391549825  nElectrons: 154.000000
	SubspaceRotationAdjust: set factor to 0.753
ElecMinimize: Iter:   2  F: -469.103486312706082  |grad|_K:  1.692e-07  alpha:  2.860e-01  linmin: -1.851e-07  t[s]:  14405.12
	FillingsUpdate:  mu: +0.391554114  nElectrons: 154.000000
	SubspaceRotationAdjust: set factor to 0.864
ElecMinimize: Iter:   3  F: -469.103486659273187  |grad|_K:  6.940e-08  alpha:  3.965e-01  linmin:  7.414e-08  t[s]:  14725.85
	FillingsUpdate:  mu: +0.391560503  nElectrons: 154.000000
	SubspaceRotationAdjust: set factor to 1.05
ElecMinimize: Iter:   4  F: -469.103486728826169  |grad|_K:  4.887e-08  alpha:  4.729e-01  linmin: -3.332e-07  t[s]:  15037.48
	FillingsUpdate:  mu: +0.391561709  nElectrons: 154.000000
	SubspaceRotationAdjust: set factor to 1.42
ElecMinimize: Iter:   5  F: -469.103486748805494  |grad|_K:  2.711e-08  alpha:  2.739e-01  linmin:  5.223e-07  t[s]:  15160.08
	FillingsUpdate:  mu: +0.391559980  nElectrons: 154.000000
	SubspaceRotationAdjust: set factor to 1.74
ElecMinimize: Iter:   6  F: -469.103486757415453  |grad|_K:  1.402e-08  alpha:  3.836e-01  linmin: -7.987e-06  t[s]:  15527.60
	FillingsUpdate:  mu: +0.391558994  nElectrons: 154.000000
	SubspaceRotationAdjust: set factor to 1.75
ElecMinimize: Iter:   7  F: -469.103486759654686  |grad|_K:  6.945e-09  alpha:  3.731e-01  linmin: -2.199e-06  t[s]:  15896.58
ElecMinimize: Converged (|Delta F|<1.000000e-08 for 2 iters).
Setting wave functions to eigenvectors of Hamiltonian

# Ionic positions in cartesian coordinates:
ion Be   0.000001258064515   2.939547032258065   0.005488489437762 1
ion Be   2.546709424923322   1.469204360420531   4.119118616604426 1
ion Be   0.000001258064515   2.939547032258065   8.266730841191599 1
ion Be   2.539317243902020   1.473472242519475  12.417555816238210 1
ion Be  -2.601595121938291   7.316607884029700  -0.036315153985210 1
ion Be   0.000002591397925   5.880232375038947   4.119118616604426 1
ion Be  -2.553136496923459   7.344585469086486   8.276654966733060 1
ion Be   0.000002591397924   5.871696617547020  12.417555816238210 1
ion Be   5.091447258064441   3.004066379403350  -0.036315153985210 1
ion Be   7.636183757872301   1.469204361314718   4.119118616604426 1
ion Be   5.091447258064441   2.948111165329602   8.276654966733060 1
ion Be   7.643575938893603   1.473472236707702  12.417555816238210 1
ion Be   2.601601638067398   7.316607833341143  -0.036315153985210 1
ion Be   5.091448591397850   5.879094032258066   4.098633183936700 1
ion Be   2.553143013052566   7.344585462358104   8.276654966733060 1
ion Be   5.091448591397850   5.879094032258066  12.510605234074287 1
ion O   0.000001258064515   2.939547032258065   3.126076777319860 1
ion O   2.549811522901658   1.467413361472756   7.256901649016808 1
ion O   0.000001258064515   2.939547032258065  11.390418307290153 1
ion O   2.541440777163576   1.472246218756340  15.530246120891732 1
ion O  -2.550754889586472   7.345960489979508   3.094451794656150 1
ion O   0.000002591397925   5.883814370120368   7.256901649016808 1
ion O  -2.556000390154288   7.342932000453512  11.422995019117849 1
ion O   0.000002591397926   5.874148663146883  15.530246120891732 1
ion O   5.091447258064439   2.945361121383040   3.094451794656150 1
ion O   7.633081659893964   1.467413365181071   7.256901649016808 1
ion O   5.091447258064440   2.951418105193587  11.422995019117849 1
ion O   7.641452405632045   1.472246214870972  15.530246120891732 1
ion O   2.550761405715578   7.345960485411646   3.094451794656150 1
ion O   5.091448591397850   5.879094032258066   7.247697678930533 1
ion O   2.556006906283397   7.342931991127093  11.422995019117849 1

# Forces in Cartesian coordinates:
force Be   0.000000000000000  -0.000000000000000   0.000103276150963 1
force Be  -0.000013867321691   0.000008006310159   0.000077995619030 1
force Be   0.000000000000000  -0.000000000000000  -0.000006901157166 1
force Be  -0.000016766417395   0.000009680105568   0.000106251990476 1
force Be   0.000056810017162   0.000032799260952   0.000069177236426 1
force Be   0.000000000000000  -0.000016012607737   0.000077995619030 1
force Be  -0.000056836554419  -0.000032814582236   0.000153158047087 1
force Be   0.000000000000000  -0.000019360195926   0.000106251990476 1
force Be   0.000000000000000  -0.000065598573439   0.000069177236426 1
force Be   0.000013867321691   0.000008006297579   0.000077995619030 1
force Be   0.000000000000000   0.000065629216032   0.000153158047087 1
force Be   0.000016766417395   0.000009680090358   0.000106251990476 1
force Be  -0.000056810017161   0.000032799312488   0.000069177236426 1
force Be   0.000000000000000  -0.000000000000000   0.000037637891721 1
force Be   0.000056836554419  -0.000032814633796   0.000153158047087 1
force Be   0.000000000000000  -0.000000000000000   0.000444400165949 1
force O   0.000000000000000  -0.000000000000000   0.000259785351852 1
force O   0.000027740559449  -0.000016016035964   0.000164500383807 1
force O   0.000000000000000  -0.000000000000000  -0.000172337530216 1
force O  -0.000010349777801   0.000005975453155   0.000007259857584 1
force O  -0.000015594021576  -0.000009003207683   0.000202112835275 1
force O   0.000000000000000   0.000032032046762   0.000164500383807 1
force O  -0.000023497341147  -0.000013566188895   0.000021417383453 1
force O   0.000000000000000  -0.000011950896921   0.000007259857584 1
force O   0.000000000000000   0.000018006429512   0.000202112835275 1
force O  -0.000027740559449  -0.000016016010798   0.000164500383807 1
force O   0.000000000000000   0.000027132399106   0.000021417383453 1
force O   0.000010349777801   0.000005975443766   0.000007259857584 1
force O   0.000015594021576  -0.000009003221829   0.000202112835275 1
force O   0.000000000000000   0.000000000000000   0.000185915237198 1
force O   0.000023497341147  -0.000013566210211   0.000021417383453 1

# Energy components:
   Eewald =     -287.1773551397246820
       EH =      101.9338414857687951
     Eloc =     -283.1751863514676870
      Enl =      -47.4640566170167162
      Exc =      -96.8475978403792794
 Exc_core =        0.9757584481519491
       KE =      142.6511092552281355
-------------------------------------
     Etot =     -469.1034867594395337
       TS =        0.0000000002151715
-------------------------------------
        F =     -469.1034867596546860

IonicMinimize: Iter:   6  F: -469.103486759654686  |grad|_K:  6.355e-05  alpha:  1.000e+00  linmin: -2.370e-01  t[s]:  15912.25
IonicMinimize: Converged (|grad|_K<1.000000e-04).

#--- Lowdin population analysis ---
# oxidation-state Be +0.469 +0.475 +0.473 +0.471 +0.355 +0.475 +0.473 +0.471 +0.355 +0.475 +0.473 +0.471 +0.355 +0.461 +0.473 +0.352
# oxidation-state O -0.456 -0.455 -0.456 -0.449 -0.452 -0.455 -0.452 -0.449 -0.452 -0.455 -0.452 -0.449 -0.452 -0.455 -0.452


Dumping 'Be16O15.Ecomponents' ... done
End date and time: Tue Mar 12 14:29:23 2024  (Duration: 0-4:25:24.56)
Done!
