--------------------------------------------------------------------------
Initialization of PSM library failed.

  Error: PSM is in the finalized state
--------------------------------------------------------------------------

*************** JDFTx 1.7.0 (git hash 3664913) ***************

Start date and time: Mon Jul  8 03:59:20 2024
Executable jdftx with command-line: -i Bi_int1.in
Running on hosts (process indices):  node3204.physics.cornell.edu (0-15)
Divided in process groups (process indices):  0 (0)  1 (1)  2 (2)  3 (3)  4 (4)  5 (5)  6 (6)  7 (7)  8 (8)  9 (9)  10 (10)  11 (11)  12 (12)  13 (13)  14 (14)  15 (15)
Resource initialization completed at t[s]:      0.01
Run totals: 16 processes, 32 threads, 0 GPUs


Input parsed successfully to the following command list (including defaults):

basis kpoint-dependent
coords-type Lattice
core-overlap-check vector
coulomb-interaction Periodic
davidson-band-ratio 1.1
dump End Ecomponents
dump-name /data/rc652/Bi/int1/Bi_int1.$VAR
elec-cutoff 20 100
elec-eigen-algo Davidson
elec-ex-corr gga-PBEsol
elec-smearing Fermi 0.01
electronic-minimize  \
	dirUpdateScheme      FletcherReeves \
	linminMethod         DirUpdateRecommended \
	nIterations          100 \
	history              15 \
	knormThreshold       0 \
	maxThreshold         no \
	energyDiffThreshold  1e-08 \
	nEnergyDiff          2 \
	alphaTstart          1 \
	alphaTmin            1e-10 \
	updateTestStepSize   yes \
	alphaTreduceFactor   0.1 \
	alphaTincreaseFactor 3 \
	nAlphaAdjustMax      3 \
	wolfeEnergy          0.0001 \
	wolfeGradient        0.9 \
	fdTest               no
electronic-scf  \
	nIterations	50 \
	energyDiffThreshold	1e-08 \
	residualThreshold	1e-07 \
	mixFraction	0.5 \
	qMetric	0.8 \
	history	10 \
	nEigSteps	2 \
	eigDiffThreshold	1e-08 \
	mixedVariable	Density \
	qKerker	0.8 \
	qKappa	-1 \
	verbose	no \
	mixFractionMag	1.5
exchange-regularization WignerSeitzTruncated
fluid None
fluid-ex-corr lda-TF lda-PZ
fluid-gummel-loop 10 1.000000e-05
fluid-minimize  \
	dirUpdateScheme      PolakRibiere \
	linminMethod         DirUpdateRecommended \
	nIterations          100 \
	history              15 \
	knormThreshold       0 \
	maxThreshold         no \
	energyDiffThreshold  0 \
	nEnergyDiff          2 \
	alphaTstart          1 \
	alphaTmin            1e-10 \
	updateTestStepSize   yes \
	alphaTreduceFactor   0.1 \
	alphaTincreaseFactor 3 \
	nAlphaAdjustMax      3 \
	wolfeEnergy          0.0001 \
	wolfeGradient        0.9 \
	fdTest               no
fluid-solvent H2O 55.338 ScalarEOS \
	epsBulk 78.4 \
	pMol 0.92466 \
	epsInf 1.77 \
	Pvap 1.06736e-10 \
	sigmaBulk 4.62e-05 \
	Rvdw 2.61727 \
	Res 1.42 \
	tauNuc 343133 \
	poleEl 15 7 1
forces-output-coords Positions
ion Bi   0.248886822493375   0.252791650539735   0.248037274319651 1
ion Bi   0.082671346952975   0.078218477682337   0.074033601112519 1
ion Bi   0.247283928923045   0.250348573690957   0.586999644597669 1
ion Bi   0.075409554864089   0.093805224266897   0.408264038048269 1
ion Bi   0.245289459565442   0.250365590481859   0.918342584653162 1
ion Bi   0.085563982234054   0.081436704618696   0.764434882301551 1
ion Bi   0.245165554678062   0.589276432907665   0.248002813094003 1
ion Bi   0.074407101724840   0.414613593274366   0.088044335728500 1
ion Bi   0.252871130538233   0.585132134569724   0.584627370725699 1
ion Bi   0.085347313578752   0.418222287752846   0.416298026824205 1
ion Bi   0.236265889316925   0.584386865863523   0.930359266848367 1
ion Bi   0.081216625356922   0.423360067679955   0.747352915817374 1
ion Bi   0.246027591629330   0.920251340840230   0.247651261887433 1
ion Bi   0.083521652885122   0.769631589059702   0.078031553944749 1
ion Bi   0.237430649958378   0.933145831913683   0.579786333968289 1
ion Bi   0.082053670587333   0.750956501241746   0.419823676156101 1
ion Bi   0.265860607523475   0.914510818165074   0.913160897541778 1
ion Bi   0.083212230205090   0.754998835600778   0.749257100808459 1
ion Bi   0.582977384336938   0.253614976754144   0.249563679860175 1
ion Bi   0.413455470115538   0.086319706741667   0.081410552303080 1
ion Bi   0.579450899602841   0.271953251982867   0.578663618130088 1
ion Bi   0.415003419273429   0.089222689915922   0.414721269023117 1
ion Bi   0.583026360602564   0.249534704404827   0.920913090431150 1
ion Bi   0.428474015129857   0.096086515018018   0.738808457928464 1
ion Bi   0.579855967798440   0.581884281436059   0.270190919053830 1
ion Bi   0.415037182322777   0.420817052343024   0.083089587801810 1
ion Bi   0.569137028375766   0.590051878839522   0.587079982831979 1
ion Bi   0.411907037167483   0.421097819152022   0.414732394972674 1
ion Bi   0.576517750411585   0.591706125141626   0.908389971958295 1
ion Bi   0.405956295441597   0.420352429115785   0.763337574021994 1
ion Bi   0.581655792496075   0.922411078248854   0.247752558324549 1
ion Bi   0.426996673010594   0.741804945589314   0.092115685411839 1
ion Bi   0.575387623854404   0.913254073288535   0.588348155024676 1
ion Bi   0.404529773608776   0.767055421621247   0.416580658682739 1
ion Bi   0.581989690915612   0.917239494756241   0.917340429240874 1
ion Bi   0.397466727526957   0.758632264724728   0.753353912869290 1
ion Bi   0.913323029271684   0.236867159403031   0.232716532235325 1
ion Bi   0.751743500711554   0.086266106649217   0.083557387073512 1
ion Bi   0.922444954295115   0.242761507769574   0.594315192560527 1
ion Bi   0.736024891611103   0.086495184115600   0.429410387479124 1
ion Bi   0.908324013061908   0.262825437230094   0.916609229985655 1
ion Bi   0.745667044189976   0.089037326164831   0.748505599261533 1
ion Bi   0.921732479601769   0.593650881600451   0.243716383302650 1
ion Bi   0.736581721907879   0.434414435280303   0.080501265699039 1
ion Bi   0.914501868068667   0.585372117628391   0.582270189990135 1
ion Bi   0.809367750877244   0.391959952296899   0.393522434529571 1
ion Bi   0.914909130799611   0.588329563061212   0.915358697844866 1
ion Bi   0.744666444434087   0.422167743863340   0.744914473959204 1
ion Bi   0.908266552923039   0.919164853786111   0.261897979589062 1
ion Bi   0.747667080393482   0.751414559185994   0.085430557907706 1
ion Bi   0.915616003895878   0.919921307784559   0.583891477969206 1
ion Bi   0.743412553468849   0.749988976084549   0.418250127090253 1
ion Bi   0.910652496591972   0.920489410207810   0.916902860749175 1
ion Bi   0.748470119952477   0.754221481964696   0.747283104590273 1
ion O   0.620918158937032   0.493870766699161   0.468336041934785 1
ion-species GBRV/$ID_pbesol.uspp
ion-width 0
ionic-minimize  \
	dirUpdateScheme      L-BFGS \
	linminMethod         DirUpdateRecommended \
	nIterations          30 \
	history              15 \
	knormThreshold       0.0001 \
	maxThreshold         no \
	energyDiffThreshold  1e-06 \
	nEnergyDiff          2 \
	alphaTstart          1 \
	alphaTmin            1e-10 \
	updateTestStepSize   yes \
	alphaTreduceFactor   0.1 \
	alphaTincreaseFactor 3 \
	nAlphaAdjustMax      3 \
	wolfeEnergy          0.0001 \
	wolfeGradient        0.9 \
	fdTest               no
kpoint   0.500000000000   0.500000000000   0.500000000000  1.00000000000000
kpoint-folding 3 3 3 
latt-move-scale 1 1 1
latt-scale 1 1 1 
lattice  \
	  22.481092393079685   22.481092393079685   15.481952819880670  \
	 -12.778055096862824   12.778055096862824    0.000000000000000  \
	  -0.282453082909267   -0.282453082909267   20.713932684412821 
lattice-minimize  \
	dirUpdateScheme      L-BFGS \
	linminMethod         DirUpdateRecommended \
	nIterations          0 \
	history              15 \
	knormThreshold       0 \
	maxThreshold         no \
	energyDiffThreshold  1e-06 \
	nEnergyDiff          2 \
	alphaTstart          1 \
	alphaTmin            1e-10 \
	updateTestStepSize   yes \
	alphaTreduceFactor   0.1 \
	alphaTincreaseFactor 3 \
	nAlphaAdjustMax      3 \
	wolfeEnergy          0.0001 \
	wolfeGradient        0.9 \
	fdTest               no
lcao-params -1 1e-06 0.01
pcm-variant GLSSA13
perturb-minimize  \
	nIterations            0 \
	algorithm              MINRES \
	residualTol            0.0001 \
	residualDiffThreshold  0.0001 \
	CGBypass               no \
	recomputeResidual      no
spintype no-spin
subspace-rotation-factor 1 yes
symmetries automatic
symmetry-threshold 0.0001



---------- Setting up symmetries ----------

Non-trivial transmission matrix:
[   1   0   0  ]
[  -1   1   0  ]
[   0  -1   1  ]
with reduced lattice vectors:
[      0.000000      6.999140     15.481953  ]
[    -25.556110     12.778055      0.000000  ]
[      0.000000    -20.996386     20.713933  ]

Found 12 point-group symmetries of the bravais lattice
Found 1 space-group symmetries with basis
Applied RMS atom displacement 0 bohrs to make symmetries exact.

---------- Initializing the Grid ----------
R = 
[      22.4811      22.4811       15.482  ]
[     -12.7781      12.7781            0  ]
[    -0.282453    -0.282453      20.7139  ]
unit cell volume = 12012.5
G =
[   0.138444  -0.245858  -0.103475  ]
[   0.138444   0.245858  -0.103475  ]
[ 0.00377561          0   0.300509  ]
Minimum fftbox size, Smin = [  120  120  120  ]
Chosen fftbox size, S = [  120  120  120  ]

---------- Initializing tighter grid for wavefunction operations ----------
R = 
[      22.4811      22.4811       15.482  ]
[     -12.7781      12.7781            0  ]
[    -0.282453    -0.282453      20.7139  ]
unit cell volume = 12012.5
G =
[   0.138444  -0.245858  -0.103475  ]
[   0.138444   0.245858  -0.103475  ]
[ 0.00377561          0   0.300509  ]
Minimum fftbox size, Smin = [  108  108  108  ]
Chosen fftbox size, S = [  108  108  108  ]

---------- Exchange Correlation functional ----------
Initalized PBEsol GGA exchange.
Initalized PBEsol GGA correlation.

---------- Setting up pseudopotentials ----------
Width of ionic core gaussian charges (only for fluid interactions / plotting) set to 0

Reading pseudopotential file '/home/rc652/build/pseudopotentials/GBRV/bi_pbesol.uspp':
  Title: Bi.  Created by USPP 7.3.6 on 16-12-2017
  Reference state energy: -92.043361.  15 valence electrons in orbitals:
    |520>  occupation: 10  eigenvalue: -1.293232
    |600>  occupation: 2  eigenvalue: -0.815623
    |610>  occupation: 2  eigenvalue: -0.421990
  lMax: 2  lLocal: 3  QijEcut: 5
  6 projectors sampled on a log grid with 747 points:
    l: 0  eig: -0.815622  rCut: 2.5
    l: 0  eig: 0.500000  rCut: 2.5
    l: 1  eig: -0.421989  rCut: 2.5
    l: 1  eig: 1.000000  rCut: 2.5
    l: 2  eig: -1.293232  rCut: 2.3
    l: 2  eig: -0.500000  rCut: 2.3
  Partial core density with radius 1
  Transforming core density to a uniform radial grid of dG=0.02 with 1734 points.
  Transforming local potential to a uniform radial grid of dG=0.02 with 1734 points.
  Transforming nonlocal projectors to a uniform radial grid of dG=0.02 with 432 points.
  Transforming density augmentations to a uniform radial grid of dG=0.02 with 1734 points.
  Transforming atomic orbitals to a uniform radial grid of dG=0.02 with 432 points.
  Core radius for overlap checks: 2.50 bohrs.

Reading pseudopotential file '/home/rc652/build/pseudopotentials/GBRV/o_pbesol.uspp':
  Title: O.  Created by USPP 7.3.6 on 3-2-2014
  Reference state energy: -15.849885.  6 valence electrons in orbitals:
    |200>  occupation: 2  eigenvalue: -0.873214
    |210>  occupation: 4  eigenvalue: -0.330058
  lMax: 2  lLocal: 2  QijEcut: 6
  5 projectors sampled on a log grid with 511 points:
    l: 0  eig: -0.873214  rCut: 1.25
    l: 0  eig: 0.000000  rCut: 1.25
    l: 1  eig: -0.330058  rCut: 1.25
    l: 1  eig: 0.000000  rCut: 1.25
    l: 2  eig: 1.000000  rCut: 1.25
  Partial core density with radius 0.7
  Transforming core density to a uniform radial grid of dG=0.02 with 1734 points.
  Transforming local potential to a uniform radial grid of dG=0.02 with 1734 points.
  Transforming nonlocal projectors to a uniform radial grid of dG=0.02 with 432 points.
  Transforming density augmentations to a uniform radial grid of dG=0.02 with 1734 points.
  Transforming atomic orbitals to a uniform radial grid of dG=0.02 with 432 points.
  Core radius for overlap checks: 1.25 bohrs.

Initialized 2 species with 55 total atoms.

Folded 1 k-points by 3x3x3 to 27 k-points.

---------- Setting up k-points, bands, fillings ----------
Adding inversion symmetry to k-mesh for non-inversion-symmetric unit cell.
Reduced to 14 k-points under symmetry. 
Computing the number of bands and number of electrons
Calculating initial fillings.
nElectrons: 816.000000   nBands: 490   nStates: 14

----- Setting up reduced wavefunction bases (one per k-point) -----
average nbasis = 51319.852 , ideal nbasis = 51318.382

---------- Setting up ewald sum ----------
Optimum gaussian width for ewald sums = 4.756753 bohr.
Real space sum over 729 unit cells with max indices [  4  4  4  ]
Reciprocal space sum over 9261 terms with max indices [  10  10  10  ]

---------- Allocating electronic variables ----------
Initializing wave functions:  linear combination of atomic orbitals
Bi pseudo-atom occupations:   s ( 2 )  p ( 3 )  d ( 10 )
O pseudo-atom occupations:   s ( 2 )  p ( 4 )
	FillingsUpdate:  mu: +0.421795158  nElectrons: 816.000000
LCAOMinimize: Iter:   0  F: -3896.6927028789154974  |grad|_K:  9.104e-04  alpha:  1.000e+00
	FillingsUpdate:  mu: +0.421101534  nElectrons: 816.000000
LCAOMinimize: Iter:   1  F: -3896.9077325777129772  |grad|_K:  6.835e-04  alpha:  8.197e-02  linmin: -3.525e-01  cgtest:  7.406e-01  t[s]:    302.73
LCAOMinimize: 	Predicted alpha/alphaT>3.000000, increasing alphaT to 2.458955e-01.
	FillingsUpdate:  mu: +0.416352313  nElectrons: 816.000000
LCAOMinimize: Iter:   2  F: -3897.1186107989692573  |grad|_K:  3.264e-04  alpha:  1.923e-01  linmin:  9.420e-02  cgtest: -1.877e-01  t[s]:    438.02
	FillingsUpdate:  mu: +0.415836551  nElectrons: 816.000000
LCAOMinimize: Iter:   3  F: -3897.1303288396402422  |grad|_K:  2.654e-04  alpha:  7.985e-02  linmin: -8.906e-03  cgtest:  8.062e-01  t[s]:    546.81
	FillingsUpdate:  mu: +0.416408331  nElectrons: 816.000000
LCAOMinimize: Iter:   4  F: -3897.1423759159170004  |grad|_K:  5.576e-05  alpha:  1.006e-01  linmin: -4.303e-02  cgtest:  9.195e-02  t[s]:    653.86
	FillingsUpdate:  mu: +0.416362880  nElectrons: 816.000000
LCAOMinimize: Iter:   5  F: -3897.1437276513706820  |grad|_K:  2.979e-05  alpha:  2.541e-01  linmin:  1.615e-04  cgtest: -2.001e-02  t[s]:    761.92
	FillingsUpdate:  mu: +0.416355985  nElectrons: 816.000000
LCAOMinimize: Iter:   6  F: -3897.1440541041347387  |grad|_K:  1.483e-05  alpha:  2.179e-01  linmin:  2.310e-04  cgtest:  5.776e-03  t[s]:    870.99
	FillingsUpdate:  mu: +0.416310908  nElectrons: 816.000000
LCAOMinimize: Iter:   7  F: -3897.1441782401707314  |grad|_K:  1.221e-05  alpha:  3.365e-01  linmin:  2.195e-03  cgtest:  1.972e-03  t[s]:    981.12
	FillingsUpdate:  mu: +0.416357502  nElectrons: 816.000000
LCAOMinimize: Iter:   8  F: -3897.1442159622861254  |grad|_K:  3.391e-06  alpha:  1.521e-01  linmin:  3.797e-04  cgtest:  4.701e-02  t[s]:   1088.24
	FillingsUpdate:  mu: +0.416360469  nElectrons: 816.000000
LCAOMinimize: Iter:   9  F: -3897.1442203231599706  |grad|_K:  1.764e-06  alpha:  2.249e-01  linmin: -2.337e-06  cgtest: -9.740e-04  t[s]:   1197.03
	FillingsUpdate:  mu: +0.416363357  nElectrons: 816.000000
LCAOMinimize: Iter:  10  F: -3897.1442214945354863  |grad|_K:  1.015e-06  alpha:  2.231e-01  linmin:  1.086e-06  cgtest: -4.339e-04  t[s]:   1303.92
	FillingsUpdate:  mu: +0.416359734  nElectrons: 816.000000
LCAOMinimize: Iter:  11  F: -3897.1442219394293716  |grad|_K:  5.856e-07  alpha:  2.558e-01  linmin:  6.974e-06  cgtest:  2.207e-04  t[s]:   1412.00
	FillingsUpdate:  mu: +0.416362392  nElectrons: 816.000000
LCAOMinimize: Iter:  12  F: -3897.1442220960962004  |grad|_K:  3.656e-07  alpha:  2.706e-01  linmin:  5.302e-05  cgtest: -8.979e-04  t[s]:   1521.36
LCAOMinimize: Converged (|Delta F|<1.000000e-06 for 2 iters).


---- Citations for features of the code used in this run ----

   Software package:
      R. Sundararaman, K. Letchworth-Weaver, K.A. Schwarz, D. Gunceler, Y. Ozhabes and T.A. Arias, 'JDFTx: software for joint density-functional theory', SoftwareX 6, 278 (2017)

   gga-PBEsol exchange-correlation functional:
      J.P. Perdew et al., Phys. Rev. Lett. 100, 136406 (2008)

   Pseudopotentials:
      KF Garrity, JW Bennett, KM Rabe and D Vanderbilt, Comput. Mater. Sci. 81, 446 (2014)

This list may not be complete. Please suggest additional citations or
report any other bugs at https://github.com/shankar1729/jdftx/issues

Initialization completed successfully at t[s]:   1561.40


-------- Electronic minimization -----------
Will mix electronic density at each iteration.
	FillingsUpdate:  mu: +0.416362392  nElectrons: 816.000000
	FillingsUpdate:  mu: +0.402432704  nElectrons: 816.000000
SCF: Cycle:  0   F: -3898.356444520461537   dF: -1.212e+00   |Residual|: 4.385e-01   |deigs|: 1.375e-02  t[s]:   1976.27
	FillingsUpdate:  mu: +0.396870449  nElectrons: 816.000000
SCF: Cycle:  1   F: -3898.507341518503381   dF: -1.509e-01   |Residual|: 2.001e-01   |deigs|: 1.947e-02  t[s]:   2309.31
	FillingsUpdate:  mu: +0.394304944  nElectrons: 816.000000
SCF: Cycle:  2   F: -3898.528889858515868   dF: -2.155e-02   |Residual|: 1.684e-01   |deigs|: 1.029e-02  t[s]:   2645.55
	FillingsUpdate:  mu: +0.392624198  nElectrons: 816.000000
SCF: Cycle:  3   F: -3898.575410507040488   dF: -4.652e-02   |Residual|: 5.216e-02   |deigs|: 4.339e-03  t[s]:   2975.76
	FillingsUpdate:  mu: +0.391890274  nElectrons: 816.000000
SCF: Cycle:  4   F: -3898.575887900244652   dF: -4.774e-04   |Residual|: 1.709e-02   |deigs|: 8.761e-04  t[s]:   3260.03
	FillingsUpdate:  mu: +0.391592877  nElectrons: 816.000000
SCF: Cycle:  5   F: -3898.576378134271636   dF: -4.902e-04   |Residual|: 5.414e-03   |deigs|: 8.888e-04  t[s]:   3540.38
	FillingsUpdate:  mu: +0.391614890  nElectrons: 816.000000
SCF: Cycle:  6   F: -3898.576403096816648   dF: -2.496e-05   |Residual|: 1.876e-03   |deigs|: 1.903e-04  t[s]:   3741.42
	FillingsUpdate:  mu: +0.391582832  nElectrons: 816.000000
SCF: Cycle:  7   F: -3898.576407999802996   dF: -4.903e-06   |Residual|: 8.081e-04   |deigs|: 1.262e-04  t[s]:   3945.20
	FillingsUpdate:  mu: +0.391586693  nElectrons: 816.000000
SCF: Cycle:  8   F: -3898.576409815176703   dF: -1.815e-06   |Residual|: 3.393e-04   |deigs|: 2.812e-05  t[s]:   4149.43
	FillingsUpdate:  mu: +0.391585859  nElectrons: 816.000000
SCF: Cycle:  9   F: -3898.576410243451846   dF: -4.283e-07   |Residual|: 3.828e-04   |deigs|: 8.643e-06  t[s]:   4356.61
	FillingsUpdate:  mu: +0.391588806  nElectrons: 816.000000
SCF: Cycle: 10   F: -3898.576410609267896   dF: -3.658e-07   |Residual|: 1.593e-04   |deigs|: 1.731e-05  t[s]:   4561.32
	FillingsUpdate:  mu: +0.391588525  nElectrons: 816.000000
SCF: Cycle: 11   F: -3898.576410753347318   dF: -1.441e-07   |Residual|: 7.990e-05   |deigs|: 3.669e-06  t[s]:   4765.82
	FillingsUpdate:  mu: +0.391588604  nElectrons: 816.000000
SCF: Cycle: 12   F: -3898.576410819450302   dF: -6.610e-08   |Residual|: 7.211e-05   |deigs|: 6.462e-07  t[s]:   4976.22
	FillingsUpdate:  mu: +0.391588722  nElectrons: 816.000000
SCF: Cycle: 13   F: -3898.576410855950598   dF: -3.650e-08   |Residual|: 8.088e-05   |deigs|: 1.279e-06  t[s]:   5180.14
	FillingsUpdate:  mu: +0.391588238  nElectrons: 816.000000
SCF: Cycle: 14   F: -3898.576410871029111   dF: -1.508e-08   |Residual|: 5.782e-05   |deigs|: 3.521e-06  t[s]:   5385.16
	FillingsUpdate:  mu: +0.391587954  nElectrons: 816.000000
SCF: Cycle: 15   F: -3898.576410871352891   dF: -3.238e-10   |Residual|: 9.928e-05   |deigs|: 2.071e-06  t[s]:   5587.37
	FillingsUpdate:  mu: +0.391587464  nElectrons: 816.000000
SCF: Cycle: 16   F: -3898.576410866583956   dF: +4.769e-09   |Residual|: 1.558e-04   |deigs|: 3.367e-06  t[s]:   5852.76
	FillingsUpdate:  mu: +0.391587157  nElectrons: 816.000000
SCF: Cycle: 17   F: -3898.576410854869209   dF: +1.171e-08   |Residual|: 2.151e-04   |deigs|: 2.659e-06  t[s]:   6053.68
	FillingsUpdate:  mu: +0.391587369  nElectrons: 816.000000
SCF: Cycle: 18   F: -3898.576410864332502   dF: -9.463e-09   |Residual|: 1.818e-04   |deigs|: 1.442e-06  t[s]:   6258.45
	FillingsUpdate:  mu: +0.391587479  nElectrons: 816.000000
SCF: Cycle: 19   F: -3898.576410868261064   dF: -3.929e-09   |Residual|: 1.641e-04   |deigs|: 8.402e-07  t[s]:   6465.52
SCF: Converged (|Delta E|<1.000000e-08 for 2 iters).

Setting wave functions to eigenvectors of Hamiltonian

# Ionic positions in lattice coordinates:
ion Bi   0.248886822493375   0.252791650539735   0.248037274319651 1
ion Bi   0.082671346952975   0.078218477682337   0.074033601112519 1
ion Bi   0.247283928923045   0.250348573690957   0.586999644597669 1
ion Bi   0.075409554864089   0.093805224266897   0.408264038048269 1
ion Bi   0.245289459565442   0.250365590481859   0.918342584653162 1
ion Bi   0.085563982234054   0.081436704618696   0.764434882301551 1
ion Bi   0.245165554678062   0.589276432907665   0.248002813094003 1
ion Bi   0.074407101724840   0.414613593274366   0.088044335728500 1
ion Bi   0.252871130538233   0.585132134569724   0.584627370725699 1
ion Bi   0.085347313578752   0.418222287752846   0.416298026824205 1
ion Bi   0.236265889316925   0.584386865863523   0.930359266848367 1
ion Bi   0.081216625356922   0.423360067679955   0.747352915817374 1
ion Bi   0.246027591629330   0.920251340840230   0.247651261887433 1
ion Bi   0.083521652885122   0.769631589059702   0.078031553944749 1
ion Bi   0.237430649958378   0.933145831913683   0.579786333968289 1
ion Bi   0.082053670587333   0.750956501241746   0.419823676156101 1
ion Bi   0.265860607523475   0.914510818165074   0.913160897541778 1
ion Bi   0.083212230205090   0.754998835600778   0.749257100808459 1
ion Bi   0.582977384336938   0.253614976754144   0.249563679860175 1
ion Bi   0.413455470115538   0.086319706741667   0.081410552303080 1
ion Bi   0.579450899602841   0.271953251982867   0.578663618130088 1
ion Bi   0.415003419273429   0.089222689915922   0.414721269023117 1
ion Bi   0.583026360602564   0.249534704404827   0.920913090431150 1
ion Bi   0.428474015129857   0.096086515018018   0.738808457928464 1
ion Bi   0.579855967798440   0.581884281436059   0.270190919053830 1
ion Bi   0.415037182322777   0.420817052343024   0.083089587801810 1
ion Bi   0.569137028375766   0.590051878839522   0.587079982831979 1
ion Bi   0.411907037167483   0.421097819152022   0.414732394972674 1
ion Bi   0.576517750411585   0.591706125141626   0.908389971958295 1
ion Bi   0.405956295441597   0.420352429115785   0.763337574021994 1
ion Bi   0.581655792496075   0.922411078248854   0.247752558324549 1
ion Bi   0.426996673010594   0.741804945589314   0.092115685411839 1
ion Bi   0.575387623854404   0.913254073288535   0.588348155024676 1
ion Bi   0.404529773608776   0.767055421621247   0.416580658682739 1
ion Bi   0.581989690915612   0.917239494756241   0.917340429240874 1
ion Bi   0.397466727526957   0.758632264724728   0.753353912869290 1
ion Bi   0.913323029271684   0.236867159403031   0.232716532235325 1
ion Bi   0.751743500711554   0.086266106649217   0.083557387073512 1
ion Bi   0.922444954295115   0.242761507769574   0.594315192560527 1
ion Bi   0.736024891611103   0.086495184115600   0.429410387479124 1
ion Bi   0.908324013061908   0.262825437230094   0.916609229985655 1
ion Bi   0.745667044189976   0.089037326164831   0.748505599261533 1
ion Bi   0.921732479601769   0.593650881600451   0.243716383302650 1
ion Bi   0.736581721907879   0.434414435280303   0.080501265699039 1
ion Bi   0.914501868068667   0.585372117628391   0.582270189990135 1
ion Bi   0.809367750877244   0.391959952296899   0.393522434529571 1
ion Bi   0.914909130799611   0.588329563061212   0.915358697844866 1
ion Bi   0.744666444434087   0.422167743863340   0.744914473959204 1
ion Bi   0.908266552923039   0.919164853786111   0.261897979589062 1
ion Bi   0.747667080393482   0.751414559185994   0.085430557907706 1
ion Bi   0.915616003895878   0.919921307784559   0.583891477969206 1
ion Bi   0.743412553468849   0.749988976084549   0.418250127090253 1
ion Bi   0.910652496591972   0.920489410207810   0.916902860749175 1
ion Bi   0.748470119952477   0.754221481964696   0.747283104590273 1
ion O   0.620918158937032   0.493870766699161   0.468336041934785 1

# Forces in Lattice coordinates:
force Bi  -0.012657945654504  -0.010979049076808  -0.007857627240942 1
force Bi   0.007714697315395   0.004689345108180   0.000874240809860 1
force Bi  -0.006957639938784  -0.005881934030324  -0.006460061075454 1
force Bi   0.001357781497430   0.003561064367619  -0.001209304645901 1
force Bi  -0.017331735150049  -0.016817465571624  -0.014500327673068 1
force Bi   0.027762829747485   0.012188242457884   0.027641404764268 1
force Bi  -0.005727887390904  -0.003799587462077  -0.001620417634715 1
force Bi   0.008392462716190   0.001939255030337   0.005525481555169 1
force Bi  -0.021222229236588  -0.007403998351681  -0.008660071874788 1
force Bi   0.006853173022802   0.007670550282030   0.004502848645310 1
force Bi  -0.018251877881837  -0.006664335480435  -0.014916116494927 1
force Bi   0.014777101148676   0.006881362346013   0.008306843497262 1
force Bi  -0.020465002717444  -0.010913738405174  -0.021579546452573 1
force Bi   0.020349358252713   0.011380348384395   0.006503101646061 1
force Bi  -0.021700295874362  -0.000546824846657  -0.000597120863364 1
force Bi   0.014656656827355   0.010589688945072   0.005512522227446 1
force Bi   0.035581224439437  -0.007821582759772   0.003615017652809 1
force Bi  -0.000368549879240  -0.004053369827506  -0.001133917171953 1
force Bi  -0.006451417718096  -0.006377031175321  -0.004459909862208 1
force Bi   0.015168905481967   0.010461198676637   0.012762718718928 1
force Bi   0.008493708704268   0.008178500155857  -0.003338100753726 1
force Bi   0.006829327723178   0.006048291669673   0.003966944943508 1
force Bi  -0.015107576964324  -0.005301018762825  -0.014844267482741 1
force Bi   0.014675013025942   0.010563405863071   0.004136658014193 1
force Bi   0.011242858280093   0.000166452409163   0.020053326041388 1
force Bi   0.011458149285125   0.008401510899324   0.010469445326245 1
force Bi  -0.020266195873213  -0.024889358367400  -0.032807346075843 1
force Bi   0.008078647811984   0.010915072994429   0.016366444247996 1
force Bi  -0.013805751956063  -0.002797880265747  -0.007973422318817 1
force Bi   0.005703698815428   0.001200264296783   0.013826720751130 1
force Bi  -0.005537778472918  -0.003675319383890  -0.000717314375384 1
force Bi   0.013005414058165   0.003045286404996   0.008576213344061 1
force Bi  -0.014444886994909  -0.006550394734990  -0.008488677321192 1
force Bi  -0.001210085876885   0.023718684115407   0.002642540353574 1
force Bi  -0.004726185865068  -0.003929694066167  -0.006629540906674 1
force Bi  -0.005731278755211  -0.027515605432077  -0.028947261324193 1
force Bi  -0.009038716430693   0.032092208268091   0.030116560593941 1
force Bi   0.005091235141860   0.010520808996011   0.013585142097871 1
force Bi   0.014101412252853  -0.008654518135481   0.025396888408231 1
force Bi   0.002245176797673   0.006692060254770   0.006303213486693 1
force Bi  -0.020426034606546  -0.007612650957274  -0.008080668903407 1
force Bi   0.006880131613986   0.005796033000577   0.004518681770495 1
force Bi   0.016834932922254   0.020885833619872  -0.004304958350899 1
force Bi   0.004288671018805   0.010395526912791   0.008947928607808 1
force Bi  -0.014517952369529  -0.009770293299773  -0.008007538125594 1
force Bi   0.025339062592407   0.008204509697837   0.006466312338661 1
force Bi  -0.013661782407502  -0.010872582005691  -0.009544069074054 1
force Bi   0.010571726952150   0.004572917853532   0.012138268907877 1
force Bi  -0.019241757080907  -0.015175377889213  -0.012959849313304 1
force Bi   0.011254621678968   0.008762061821669   0.011765038762754 1
force Bi  -0.017119316326870  -0.011197772575590  -0.009718073911813 1
force Bi   0.017504385594469   0.012518132588296   0.006535377493075 1
force Bi  -0.009578226596369  -0.006068993291508  -0.006873431182494 1
force Bi   0.006189820465486   0.002210651212270   0.008236785458130 1
force O  -0.041363173891845  -0.044769183736942  -0.048341867521305 1

# Energy components:
   Eewald =    -2860.1403051863117071
       EH =      932.6049838656522297
     Eloc =    -2967.3723972264633630
      Enl =     1280.2695709422703203
      Exc =    -1739.0161087551259698
 Exc_core =     1112.0876042464396960
       KE =      343.2577420142750952
-------------------------------------
     Etot =    -3898.3089100992638123
       TS =        0.2675007689974513
-------------------------------------
        F =    -3898.5764108682610640

IonicMinimize: Iter:   0  F: -3898.576410868261064  |grad|_K:  4.808e-04  t[s]:   6516.86

#--- Lowdin population analysis ---
# oxidation-state Bi +0.039 +0.039 +0.041 +0.023 +0.041 +0.034 +0.042 +0.028 +0.043 +0.033 +0.042 +0.038 +0.041 +0.037 +0.043 +0.038 +0.080 +0.038 +0.040 +0.040 +0.138 +0.039 +0.041 +0.019 +0.205 +0.039 +0.365 +0.044 +0.039 +0.044 +0.041 +0.006 +0.039 +0.053 +0.041 +0.009 +0.054 +0.038 +0.043 +0.038 +0.043 +0.036 +0.036 +0.033 +0.040 +0.415 +0.040 +0.023 +0.042 +0.035 +0.039 +0.024 +0.039 +0.039
# oxidation-state O -0.746


-------- Electronic minimization -----------
Will mix electronic density at each iteration.
	FillingsUpdate:  mu: +0.391587479  nElectrons: 816.000000
	FillingsUpdate:  mu: +0.391590967  nElectrons: 816.000000
SCF: Cycle:  0   F: -3898.576447214239579   dF: -9.294e-07   |Residual|: 3.992e-04   |deigs|: 3.662e-07  t[s]:   6863.66
	FillingsUpdate:  mu: +0.391590241  nElectrons: 816.000000
SCF: Cycle:  1   F: -3898.576448572376194   dF: -1.358e-06   |Residual|: 1.817e-04   |deigs|: 7.122e-06  t[s]:   7063.52
	FillingsUpdate:  mu: +0.391589608  nElectrons: 816.000000
SCF: Cycle:  2   F: -3898.576448724356851   dF: -1.520e-07   |Residual|: 1.228e-04   |deigs|: 2.607e-06  t[s]:   7266.56
	FillingsUpdate:  mu: +0.391589711  nElectrons: 816.000000
SCF: Cycle:  3   F: -3898.576448757810340   dF: -3.345e-08   |Residual|: 4.693e-05   |deigs|: 1.385e-06  t[s]:   7469.70
	FillingsUpdate:  mu: +0.391589561  nElectrons: 816.000000
SCF: Cycle:  4   F: -3898.576448761200481   dF: -3.390e-09   |Residual|: 1.299e-05   |deigs|: 5.421e-07  t[s]:   7678.69
	FillingsUpdate:  mu: +0.391589546  nElectrons: 816.000000
SCF: Cycle:  5   F: -3898.576448761833490   dF: -6.330e-10   |Residual|: 5.068e-06   |deigs|: 2.097e-07  t[s]:   7883.06
SCF: Converged (|Delta E|<1.000000e-08 for 2 iters).

Setting wave functions to eigenvectors of Hamiltonian
IonicMinimize: 	Wolfe criterion not satisfied: alpha: 1  (E-E0)/|gdotd0|: -0.993317  gdotd/gdotd0: 0.986247 (taking cubic step)

-------- Electronic minimization -----------
Will mix electronic density at each iteration.
	FillingsUpdate:  mu: +0.391589546  nElectrons: 816.000000
	FillingsUpdate:  mu: +0.391591530  nElectrons: 816.000000
SCF: Cycle:  0   F: -3898.576516978550444   dF: -3.864e-06   |Residual|: 7.648e-04   |deigs|: 2.999e-07  t[s]:   8281.66
	FillingsUpdate:  mu: +0.391591653  nElectrons: 816.000000
SCF: Cycle:  1   F: -3898.576522205875335   dF: -5.227e-06   |Residual|: 3.638e-04   |deigs|: 1.090e-05  t[s]:   8488.69
	FillingsUpdate:  mu: +0.391590925  nElectrons: 816.000000
SCF: Cycle:  2   F: -3898.576522803729858   dF: -5.979e-07   |Residual|: 2.593e-04   |deigs|: 4.560e-06  t[s]:   8695.68
	FillingsUpdate:  mu: +0.391591320  nElectrons: 816.000000
SCF: Cycle:  3   F: -3898.576522961810042   dF: -1.581e-07   |Residual|: 8.961e-05   |deigs|: 2.717e-06  t[s]:   8900.22
	FillingsUpdate:  mu: +0.391591229  nElectrons: 816.000000
SCF: Cycle:  4   F: -3898.576522975805347   dF: -1.400e-08   |Residual|: 2.461e-05   |deigs|: 6.941e-07  t[s]:   9103.79
	FillingsUpdate:  mu: +0.391591212  nElectrons: 816.000000
SCF: Cycle:  5   F: -3898.576522979270521   dF: -3.465e-09   |Residual|: 9.380e-06   |deigs|: 2.482e-07  t[s]:   9345.16
	FillingsUpdate:  mu: +0.391591201  nElectrons: 816.000000
SCF: Cycle:  6   F: -3898.576522980615664   dF: -1.345e-09   |Residual|: 5.872e-06   |deigs|: 4.271e-07  t[s]:   9603.68
SCF: Converged (|Delta E|<1.000000e-08 for 2 iters).

Setting wave functions to eigenvectors of Hamiltonian
IonicMinimize: 	Wolfe criterion not satisfied: alpha: 3  (E-E0)/|gdotd0|: -2.93884  gdotd/gdotd0: 0.958415 (taking cubic step)

-------- Electronic minimization -----------
Will mix electronic density at each iteration.
	FillingsUpdate:  mu: +0.391591201  nElectrons: 816.000000
	FillingsUpdate:  mu: +0.391595420  nElectrons: 816.000000
SCF: Cycle:  0   F: -3898.576641084127914   dF: -1.521e-05   |Residual|: 1.525e-03   |deigs|: 3.917e-07  t[s]:   9994.57
	FillingsUpdate:  mu: +0.391595486  nElectrons: 816.000000
SCF: Cycle:  1   F: -3898.576662185165787   dF: -2.110e-05   |Residual|: 7.124e-04   |deigs|: 2.115e-05  t[s]:  10203.07
	FillingsUpdate:  mu: +0.391594247  nElectrons: 816.000000
SCF: Cycle:  2   F: -3898.576664758129027   dF: -2.573e-06   |Residual|: 4.444e-04   |deigs|: 8.538e-06  t[s]:  10402.92
	FillingsUpdate:  mu: +0.391594942  nElectrons: 816.000000
SCF: Cycle:  3   F: -3898.576665210882766   dF: -4.528e-07   |Residual|: 1.834e-04   |deigs|: 4.721e-06  t[s]:  10605.07
	FillingsUpdate:  mu: +0.391594730  nElectrons: 816.000000
SCF: Cycle:  4   F: -3898.576665270757076   dF: -5.987e-08   |Residual|: 4.890e-05   |deigs|: 1.433e-06  t[s]:  10810.75
	FillingsUpdate:  mu: +0.391594699  nElectrons: 816.000000
SCF: Cycle:  5   F: -3898.576665284387218   dF: -1.363e-08   |Residual|: 1.852e-05   |deigs|: 1.963e-07  t[s]:  11012.89
	FillingsUpdate:  mu: +0.391594676  nElectrons: 816.000000
SCF: Cycle:  6   F: -3898.576665289612720   dF: -5.226e-09   |Residual|: 1.202e-05   |deigs|: 4.151e-07  t[s]:  11266.69
	FillingsUpdate:  mu: +0.391594671  nElectrons: 816.000000
SCF: Cycle:  7   F: -3898.576665291994232   dF: -2.382e-09   |Residual|: 4.714e-06   |deigs|: 3.975e-07  t[s]:  11519.91
SCF: Converged (|Delta E|<1.000000e-08 for 2 iters).

Setting wave functions to eigenvectors of Hamiltonian
IonicMinimize: 	Wolfe criterion not satisfied: alpha: 7  (E-E0)/|gdotd0|: -6.66929  gdotd/gdotd0: 0.905502 (taking cubic step)

-------- Electronic minimization -----------
Will mix electronic density at each iteration.
	FillingsUpdate:  mu: +0.391594671  nElectrons: 816.000000
	FillingsUpdate:  mu: +0.391603725  nElectrons: 816.000000
SCF: Cycle:  0   F: -3898.576830414606320   dF: -6.271e-05   |Residual|: 3.083e-03   |deigs|: 1.085e-06  t[s]:  11987.31
	FillingsUpdate:  mu: +0.391603552  nElectrons: 816.000000
SCF: Cycle:  1   F: -3898.576913902505112   dF: -8.349e-05   |Residual|: 1.411e-03   |deigs|: 4.087e-05  t[s]:  12193.45
	FillingsUpdate:  mu: +0.391601825  nElectrons: 816.000000
SCF: Cycle:  2   F: -3898.576924362062528   dF: -1.046e-05   |Residual|: 6.481e-04   |deigs|: 1.562e-05  t[s]:  12398.19
	FillingsUpdate:  mu: +0.391602921  nElectrons: 816.000000
SCF: Cycle:  3   F: -3898.576925131080770   dF: -7.690e-07   |Residual|: 3.853e-04   |deigs|: 7.681e-06  t[s]:  12604.80
	FillingsUpdate:  mu: +0.391602330  nElectrons: 816.000000
SCF: Cycle:  4   F: -3898.576925400787331   dF: -2.697e-07   |Residual|: 8.800e-05   |deigs|: 3.471e-06  t[s]:  12815.25
	FillingsUpdate:  mu: +0.391602248  nElectrons: 816.000000
SCF: Cycle:  5   F: -3898.576925440956529   dF: -4.017e-08   |Residual|: 3.057e-05   |deigs|: 3.028e-07  t[s]:  13022.43
	FillingsUpdate:  mu: +0.391602222  nElectrons: 816.000000
SCF: Cycle:  6   F: -3898.576925455930905   dF: -1.497e-08   |Residual|: 2.042e-05   |deigs|: 2.653e-07  t[s]:  13265.26
	FillingsUpdate:  mu: +0.391602215  nElectrons: 816.000000
SCF: Cycle:  7   F: -3898.576925463170483   dF: -7.240e-09   |Residual|: 7.811e-06   |deigs|: 2.445e-07  t[s]:  13518.49
	FillingsUpdate:  mu: +0.391602209  nElectrons: 816.000000
SCF: Cycle:  8   F: -3898.576925466406010   dF: -3.236e-09   |Residual|: 4.950e-06   |deigs|: 2.100e-07  t[s]:  13765.35
SCF: Converged (|Delta E|<1.000000e-08 for 2 iters).

Setting wave functions to eigenvectors of Hamiltonian

# Ionic positions in lattice coordinates:
ion Bi   0.248671719046533   0.252654735082503   0.248043309579568 1
ion Bi   0.082871944529793   0.078281179536664   0.073920633332214 1
ion Bi   0.247189002520029   0.250304128477832   0.586928216073514 1
ion Bi   0.075429307877233   0.093927252290095   0.408166517522932 1
ion Bi   0.245058946131463   0.250159769370760   0.918242770463960 1
ion Bi   0.086054541552762   0.081212934989418   0.764920506491419 1
ion Bi   0.245032423239943   0.589232945486332   0.248058995295028 1
ion Bi   0.074608874448927   0.414520016074403   0.088115059611184 1
ion Bi   0.252329914791726   0.585226711765171   0.584663823901692 1
ion Bi   0.085441564935900   0.418355154300440   0.416284961350597 1
ion Bi   0.235890688030250   0.584544993667486   0.930137931731218 1
ion Bi   0.081547785916007   0.423329617474462   0.747387515652203 1
ion Bi   0.245703206835300   0.920366751280852   0.247276324128740 1
ion Bi   0.084012731136606   0.769711757199027   0.077887264379350 1
ion Bi   0.236699713185507   0.933387623051912   0.580025386943594 1
ion Bi   0.082370080513806   0.751087170148436   0.419720704248348 1
ion Bi   0.267131007808990   0.913788635453095   0.912963613030467 1
ion Bi   0.083260314770162   0.754878732627596   0.749270671444339 1
ion Bi   0.582882347255916   0.253524426525675   0.249560762382381 1
ion Bi   0.413706732110981   0.086355796186107   0.081551931524602 1
ion Bi   0.579686631580057   0.272175575255371   0.578356513327645 1
ion Bi   0.415121921939461   0.089306386680558   0.414708934095978 1
ion Bi   0.582742392840953   0.249702258479454   0.920641859681390 1
ion Bi   0.428807342596631   0.096232051016172   0.738658361820157 1
ion Bi   0.580007394199523   0.581527997157681   0.270747685361496 1
ion Bi   0.415211665092014   0.420852202298767   0.083219298049669 1
ion Bi   0.569112233791215   0.589815795139864   0.586479768556814 1
ion Bi   0.411867845109583   0.421189984694697   0.415074534651387 1
ion Bi   0.576169568153191   0.591864645533650   0.908310332584983 1
ion Bi   0.405977951932060   0.420168296044115   0.763732993473428 1
ion Bi   0.581517250994011   0.922359156447958   0.247836080950498 1
ion Bi   0.427308465160591   0.741660301886513   0.092224670163449 1
ion Bi   0.575067083271456   0.913297226213577   0.588301847572332 1
ion Bi   0.404182505230842   0.767854294732618   0.416410998223853 1
ion Bi   0.581950633651999   0.917238093335896   0.917214586026896 1
ion Bi   0.397926403124252   0.758092374857151   0.752747833924164 1
ion Bi   0.912290689808291   0.237725186892577   0.233483383091006 1
ion Bi   0.751638675952008   0.086411752491414   0.083843361470496 1
ion Bi   0.922734873519161   0.242007232142365   0.595124597330741 1
ion Bi   0.735951460815849   0.086627085282839   0.429523999755426 1
ion Bi   0.907805814056270   0.262896874780833   0.916658741852561 1
ion Bi   0.745783811529199   0.089105366807663   0.748514538722935 1
ion Bi   0.922118082291424   0.594223627285878   0.243131594410581 1
ion Bi   0.736504677143269   0.434618971210459   0.080638880349929 1
ion Bi   0.914210634015602   0.585300031284788   0.582278645727165 1
ion Bi   0.810067382022615   0.391873599449221   0.393355812248963 1
ion Bi   0.914677931417695   0.588227552069362   0.915317282573980 1
ion Bi   0.744835595671640   0.422062417400654   0.745156224618294 1
ion Bi   0.907933522945617   0.919019677789490   0.261854143207199 1
ion Bi   0.747815340515757   0.751449396727828   0.085602905728662 1
ion Bi   0.915271949191443   0.919850321696231   0.583888032101986 1
ion Bi   0.743792407607403   0.750140863005019   0.418126776167256 1
ion Bi   0.910474612791730   0.920473788597434   0.916849860508781 1
ion Bi   0.748561655811737   0.754131309723041   0.747469307472964 1
ion O   0.620580747587617   0.493377974600593   0.467678715109591 1

# Forces in Lattice coordinates:
force Bi  -0.012552496820985  -0.008820263299953  -0.008291992702912 1
force Bi   0.004049829950367   0.007174218803062   0.003659687959752 1
force Bi  -0.007618374065535  -0.006749724910559  -0.006852457016673 1
force Bi   0.002440859619457   0.003369053594041   0.002337335609015 1
force Bi  -0.016192762034320  -0.016495531000571  -0.010683170400994 1
force Bi   0.025533026872757   0.012774594033940   0.029811733061157 1
force Bi  -0.004699094150129  -0.004925936336685  -0.002701429727369 1
force Bi   0.009411669974891   0.003850688998395   0.005053351026949 1
force Bi  -0.014812605507115  -0.006684706617783  -0.009102422950663 1
force Bi   0.005428861118309   0.005598379802619   0.006067341024159 1
force Bi  -0.013997005425610  -0.006866024186571  -0.009973760378130 1
force Bi   0.010125267764288   0.005205983623726   0.007189805334204 1
force Bi  -0.020716932155394  -0.009148670183890  -0.021826175988892 1
force Bi   0.020934768719610   0.015974375267628   0.006050464251273 1
force Bi  -0.018595534576678  -0.000237543537315  -0.001434283862435 1
force Bi   0.010963847221088   0.008991690012032   0.006924513981665 1
force Bi   0.031893568345684   0.000714784223499   0.011076626505107 1
force Bi   0.000468559881445   0.002950842994661   0.003875797422613 1
force Bi  -0.011028721324215  -0.004285465039185  -0.004689050915200 1
force Bi   0.014510836293357   0.009370579247894   0.010148786721841 1
force Bi   0.005945366636032   0.010312543606663  -0.002840172389266 1
force Bi   0.006550048891004   0.004921086290210   0.006624948756797 1
force Bi  -0.015854662087212  -0.006815412908453  -0.011015394155106 1
force Bi   0.013178441120770   0.009096705831910   0.003466453250626 1
force Bi   0.007879893271186   0.003313076779472   0.022006182086692 1
force Bi   0.008187705839576   0.007372697332755   0.007104953351148 1
force Bi  -0.024021535544868  -0.029636218716938  -0.036024580835694 1
force Bi   0.008989984474328   0.009368725652482   0.012945188036277 1
force Bi  -0.015840362978650  -0.006350847202904  -0.008186432190274 1
force Bi   0.008084313130801   0.005643622521396   0.009321306695231 1
force Bi  -0.010931733312042  -0.006902288523918  -0.004842570224450 1
force Bi   0.014079775952631   0.004641256141779   0.009805954021282 1
force Bi  -0.014183389601878  -0.007290262580247  -0.008307846617369 1
force Bi   0.003180360013547   0.019459783127832   0.007287549043905 1
force Bi  -0.005720114765861  -0.004930534506361  -0.004403972872791 1
force Bi  -0.003154914747833  -0.022144613181734  -0.025145466789422 1
force Bi  -0.015877807907110   0.000133904510832  -0.002919458736079 1
force Bi   0.007366161480924   0.009219613595691   0.009575655903621 1
force Bi   0.010813943240426  -0.007554163194162   0.015845944566516 1
force Bi   0.003689976015035   0.002102228256057   0.006281875952341 1
force Bi  -0.016056870203987  -0.005124007844682  -0.003692676929360 1
force Bi   0.009621776932939   0.005490304860428   0.006974155873331 1
force Bi   0.009690504167619   0.010825984494361  -0.007136057203762 1
force Bi   0.002889140618239   0.009477469252824   0.005576833969046 1
force Bi  -0.012343022205715  -0.009394298134957  -0.008288697249811 1
force Bi   0.038430062541794   0.031889953372914   0.033924466199323 1
force Bi  -0.013395308753753  -0.010381803053687  -0.006931238206310 1
force Bi   0.008388471793152   0.007345043754567   0.006194700311295 1
force Bi  -0.013640450389549  -0.007317993273360  -0.011486959820509 1
force Bi   0.010910586318761   0.008364436667420   0.008904787242809 1
force Bi  -0.017274936347308  -0.010867936441504  -0.011515827039606 1
force Bi   0.014393289219346   0.007961996079525   0.009739766117751 1
force Bi  -0.007527040366462  -0.004563969252757  -0.004910999573021 1
force Bi   0.006563522428923   0.004135873266634   0.006825201925538 1
force O  -0.031306032610361  -0.046982980114564  -0.049682501316918 1

# Energy components:
   Eewald =    -2860.2053102765021322
       EH =      932.5405404935056595
     Eloc =    -2967.2360387231701679
      Enl =     1280.2618805297840936
      Exc =    -1739.0123867261277155
 Exc_core =     1112.0876047147839927
       KE =      343.2542235601060838
-------------------------------------
     Etot =    -3898.3094864276208682
       TS =        0.2674390387849419
-------------------------------------
        F =    -3898.5769254664060099

IonicMinimize: Iter:   1  F: -3898.576925466406010  |grad|_K:  4.252e-04  alpha:  1.500e+01  linmin: -9.027e-01  t[s]:  13816.12

#--- Lowdin population analysis ---
# oxidation-state Bi +0.039 +0.038 +0.041 +0.023 +0.041 +0.033 +0.042 +0.028 +0.043 +0.033 +0.042 +0.038 +0.041 +0.036 +0.043 +0.038 +0.082 +0.039 +0.040 +0.040 +0.140 +0.039 +0.041 +0.019 +0.210 +0.039 +0.360 +0.043 +0.040 +0.043 +0.041 +0.005 +0.039 +0.052 +0.041 +0.009 +0.054 +0.038 +0.044 +0.038 +0.043 +0.037 +0.037 +0.032 +0.040 +0.412 +0.040 +0.024 +0.042 +0.034 +0.039 +0.025 +0.039 +0.039
# oxidation-state O -0.745


-------- Electronic minimization -----------
Will mix electronic density at each iteration.
	FillingsUpdate:  mu: +0.391602209  nElectrons: 816.000000
	FillingsUpdate:  mu: +0.391495368  nElectrons: 816.000000
SCF: Cycle:  0   F: -3898.422318821299996   dF: -4.538e-01   |Residual|: 2.679e-01   |deigs|: 1.008e-03  t[s]:  14286.80
	FillingsUpdate:  mu: +0.391808387  nElectrons: 816.000000
SCF: Cycle:  1   F: -3898.540067790844660   dF: -1.177e-01   |Residual|: 1.602e-01   |deigs|: 2.811e-03  t[s]:  14618.69
	FillingsUpdate:  mu: +0.391531413  nElectrons: 816.000000
SCF: Cycle:  2   F: -3898.556315420204555   dF: -1.625e-02   |Residual|: 1.060e-01   |deigs|: 1.856e-03  t[s]:  14949.05
	FillingsUpdate:  mu: +0.391688357  nElectrons: 816.000000
SCF: Cycle:  3   F: -3898.577953100942068   dF: -2.164e-02   |Residual|: 1.817e-02   |deigs|: 1.043e-03  t[s]:  15277.64
	FillingsUpdate:  mu: +0.391680365  nElectrons: 816.000000
SCF: Cycle:  4   F: -3898.578116112777934   dF: -1.630e-04   |Residual|: 5.657e-03   |deigs|: 8.701e-05  t[s]:  15476.89
	FillingsUpdate:  mu: +0.391673671  nElectrons: 816.000000
SCF: Cycle:  5   F: -3898.578146341405045   dF: -3.023e-05   |Residual|: 1.477e-03   |deigs|: 2.347e-05  t[s]:  15678.97
	FillingsUpdate:  mu: +0.391673945  nElectrons: 816.000000
SCF: Cycle:  6   F: -3898.578149614202630   dF: -3.273e-06   |Residual|: 7.361e-04   |deigs|: 5.410e-06  t[s]:  15883.84
	FillingsUpdate:  mu: +0.391673245  nElectrons: 816.000000
SCF: Cycle:  7   F: -3898.578150644895686   dF: -1.031e-06   |Residual|: 2.743e-04   |deigs|: 5.644e-06  t[s]:  16088.21
	FillingsUpdate:  mu: +0.391673611  nElectrons: 816.000000
SCF: Cycle:  8   F: -3898.578151051845907   dF: -4.070e-07   |Residual|: 1.072e-04   |deigs|: 3.824e-06  t[s]:  16296.98
	FillingsUpdate:  mu: +0.391673590  nElectrons: 816.000000
SCF: Cycle:  9   F: -3898.578151225575766   dF: -1.737e-07   |Residual|: 7.906e-05   |deigs|: 6.848e-07  t[s]:  16502.99
	FillingsUpdate:  mu: +0.391673650  nElectrons: 816.000000
SCF: Cycle: 10   F: -3898.578151309031909   dF: -8.346e-08   |Residual|: 4.254e-05   |deigs|: 3.466e-07  t[s]:  16707.45
	FillingsUpdate:  mu: +0.391673637  nElectrons: 816.000000
SCF: Cycle: 11   F: -3898.578151351805445   dF: -4.277e-08   |Residual|: 4.523e-05   |deigs|: 3.392e-07  t[s]:  16912.86
	FillingsUpdate:  mu: +0.391673675  nElectrons: 816.000000
SCF: Cycle: 12   F: -3898.578151378065741   dF: -2.626e-08   |Residual|: 1.242e-05   |deigs|: 2.056e-07  t[s]:  17116.20
	FillingsUpdate:  mu: +0.391673683  nElectrons: 816.000000
SCF: Cycle: 13   F: -3898.578151391995561   dF: -1.393e-08   |Residual|: 2.067e-05   |deigs|: 1.188e-07  t[s]:  17323.88
	FillingsUpdate:  mu: +0.391673693  nElectrons: 816.000000
SCF: Cycle: 14   F: -3898.578151400903153   dF: -8.908e-09   |Residual|: 7.923e-06   |deigs|: 1.228e-07  t[s]:  17524.71
	FillingsUpdate:  mu: +0.391673691  nElectrons: 816.000000
SCF: Cycle: 15   F: -3898.578151406041343   dF: -5.138e-09   |Residual|: 1.530e-05   |deigs|: 1.090e-07  t[s]:  17722.01
SCF: Converged (|Delta E|<1.000000e-08 for 2 iters).

Setting wave functions to eigenvectors of Hamiltonian

# Ionic positions in lattice coordinates:
ion Bi   0.247965358629616   0.252371971967769   0.247982109058416 1
ion Bi   0.083146623351338   0.078658453847494   0.073771673173680 1
ion Bi   0.246875810817488   0.250130380943372   0.586710242464827 1
ion Bi   0.075487963707652   0.094194779230649   0.408069970149259 1
ion Bi   0.244318299043550   0.249424400536013   0.918144082067911 1
ion Bi   0.087388447757957   0.080549097172428   0.766620792149364 1
ion Bi   0.244730299989760   0.589023274355957   0.248165174883065 1
ion Bi   0.075277018648375   0.414337856808885   0.088239768747171 1
ion Bi   0.251042596610497   0.585437948774213   0.584590277743734 1
ion Bi   0.085655880066351   0.418633212250920   0.416421146690953 1
ion Bi   0.234885629588112   0.584824456753832   0.929673908007741 1
ion Bi   0.082345870844676   0.423251200250656   0.747561020322693 1
ion Bi   0.244635041864197   0.920854177191509   0.246047970664182 1
ion Bi   0.085501189786462   0.770258988448878   0.077288662230661 1
ion Bi   0.234619193147212   0.934115889725826   0.580644064382638 1
ion Bi   0.083126863647101   0.751442638026785   0.419604297606045 1
ion Bi   0.270525894474004   0.911993715707373   0.912721722044346 1
ion Bi   0.083200857488124   0.754828292760795   0.749464892185802 1
ion Bi   0.582244677941013   0.253481606351346   0.249589615113197 1
ion Bi   0.414534396533131   0.086469290204189   0.081862084924342 1
ion Bi   0.580202571100450   0.273056903684131   0.577432144451515 1
ion Bi   0.415442021650147   0.089442292450489   0.414872572999280 1
ion Bi   0.581751275571288   0.250060667705024   0.920087936032679 1
ion Bi   0.429803400504645   0.096640231025536   0.738206978746482 1
ion Bi   0.580151157964964   0.580644816932762   0.272625646988386 1
ion Bi   0.415643246023827   0.421040960515270   0.083500170289893 1
ion Bi   0.568965409617077   0.588918232184184   0.584571562337102 1
ion Bi   0.411913853443290   0.421433002215057   0.415937737168668 1
ion Bi   0.575027091887110   0.592179406024870   0.908167815768890 1
ion Bi   0.406202515863151   0.419925810799805   0.764528253974243 1
ion Bi   0.580893062967390   0.922194948341271   0.248017715509074 1
ion Bi   0.428294994860126   0.741258515190408   0.092586143186962 1
ion Bi   0.574090275193255   0.913373815619039   0.588176925963812 1
ion Bi   0.403370030218870   0.769884352928019   0.416176324433154 1
ion Bi   0.581736296114682   0.917140397211426   0.917006693049732 1
ion Bi   0.399335042773352   0.756605973523013   0.750915780161529 1
ion Bi   0.910038066156973   0.239214705237329   0.234591679761461 1
ion Bi   0.751575083505410   0.086821528756133   0.084456425126962 1
ion Bi   0.923617227541292   0.239993419279565   0.597089408343393 1
ion Bi   0.735916889730488   0.086709725696753   0.429946751245617 1
ion Bi   0.906312184353387   0.263089237430704   0.916946967816830 1
ion Bi   0.746281685981118   0.089183487864342   0.748647001102287 1
ion Bi   0.923147399508470   0.595585147514136   0.241488942257558 1
ion Bi   0.736266290025252   0.435305560506900   0.080900420804006 1
ion Bi   0.913436101199784   0.585055562893197   0.582228703867848 1
ion Bi   0.811988675943570   0.392250713442431   0.393809050429625 1
ion Bi   0.913901111943939   0.587874883683873   0.915338956530234 1
ion Bi   0.745294338700727   0.422090810769463   0.745512904535528 1
ion Bi   0.907047351945636   0.918919054611391   0.261513735298413 1
ion Bi   0.748330272049478   0.751602630002400   0.085972008635201 1
ion Bi   0.914214190949273   0.919691166085205   0.583754320438571 1
ion Bi   0.744811982588053   0.750317782253835   0.418115630705060 1
ion Bi   0.909973447324375   0.920433391702958   0.916731035371602 1
ion Bi   0.748862094428688   0.753995701730135   0.747909240792166 1
ion O   0.620255446433846   0.491493532880054   0.465352941266208 1

# Forces in Lattice coordinates:
force Bi  -0.012324158395624  -0.005724653940741  -0.007862766693303 1
force Bi   0.002191640017377  -0.001247508873668  -0.004435228109386 1
force Bi  -0.009905775086138  -0.009000168652268  -0.005340617618918 1
force Bi   0.002887711927127   0.003325683696885   0.004092333685563 1
force Bi  -0.012262451391540  -0.012090937772349  -0.006729622768055 1
force Bi   0.021182915716166   0.014261539926237   0.030332632609599 1
force Bi  -0.005945623142042  -0.006352768382355  -0.006038551235711 1
force Bi   0.007804273564959   0.003213483051297   0.003394149121534 1
force Bi  -0.005082433710224  -0.004638580664386  -0.008265335504224 1
force Bi   0.005805181318314   0.002788900834394   0.008062797008851 1
force Bi  -0.006703352726405  -0.003566992554271  -0.001542191593208 1
force Bi   0.005386333005017   0.004051575552231   0.007877153125219 1
force Bi  -0.017592494825956  -0.007094427753081  -0.015869257739040 1
force Bi   0.023502844525318   0.023345461737668   0.007968519211122 1
force Bi  -0.011771628451898   0.001366121035039   0.000999544621181 1
force Bi   0.005839495737831   0.006420912585303   0.007196611740639 1
force Bi   0.016422019029339   0.006577763025722   0.011936707855989 1
force Bi   0.003821851048116   0.014661320424925   0.012944949301928 1
force Bi  -0.019573243262545  -0.003992811465618  -0.006964955940377 1
force Bi   0.011646049546897   0.006897172262548   0.006030508175051 1
force Bi  -0.003321570242894   0.003648313201321  -0.002359345891595 1
force Bi   0.006249343068806   0.003242699050086   0.009471492756323 1
force Bi  -0.012740729475146  -0.008215144890896  -0.003753682935582 1
force Bi   0.012280152009266   0.009344678189218   0.004017310784932 1
force Bi  -0.006501998790888   0.006558278093463   0.010049044287431 1
force Bi   0.003255045599777   0.005211639544593   0.002992104014332 1
force Bi  -0.028268933557097  -0.024765981854696  -0.029727726440974 1
force Bi   0.009199362217041   0.005318571970104   0.004824959472394 1
force Bi  -0.019064025639918  -0.013461068290336  -0.012451772447881 1
force Bi   0.009306758362161   0.010373371588093   0.000070842311771 1
force Bi  -0.016942082155127  -0.011268287207728  -0.010758370371953 1
force Bi   0.014800188690587   0.007354671925496   0.014040669322821 1
force Bi  -0.014041133920764  -0.010890752882757  -0.008951401784851 1
force Bi   0.008233915586809   0.009478394823653   0.012648217587488 1
force Bi  -0.007447989219494  -0.007108029984682  -0.003334689662375 1
force Bi   0.005930809764928  -0.002381204512019  -0.006758848472662 1
force Bi  -0.016558240811386  -0.018314025232883  -0.020664169682640 1
force Bi   0.009277109005965   0.007233785413389   0.003637761195239 1
force Bi   0.011048044023950  -0.004416244298361   0.009605693066785 1
force Bi   0.006614313341314  -0.001442298368036   0.004429373063072 1
force Bi  -0.013153745928519   0.000664744152119  -0.002052542963410 1
force Bi   0.012362799470958   0.005426237855219   0.011489173568622 1
force Bi  -0.000001617417553  -0.000181346071434  -0.010305372504840 1
force Bi   0.000958445590250   0.008840894481799   0.004196238984078 1
force Bi  -0.008496836649850  -0.008005115453594  -0.007619123293071 1
force Bi   0.064414626383511   0.026821018597730   0.036136518981246 1
force Bi  -0.012376489012072  -0.008192249395699  -0.004514238306085 1
force Bi   0.004033643466099   0.010971762593224  -0.003656451960004 1
force Bi  -0.008753438959984   0.000472565485874  -0.008997563268904 1
force Bi   0.008866748468213   0.006819944824501   0.004196200112765 1
force Bi  -0.014312543115983  -0.008351165878651  -0.011178950438857 1
force Bi   0.007484685613099   0.000318274735754   0.012056425451200 1
force Bi  -0.003305151191816  -0.000979714281296  -0.000507808922739 1
force Bi   0.006969831804225   0.007117874681831   0.005660907341447 1
force O  -0.021135437731019  -0.039983046901455  -0.038896572940476 1

# Energy components:
   Eewald =    -2860.2055393391624420
       EH =      932.5564889658533048
     Eloc =    -2967.2527997003198834
      Enl =     1280.2606400749996283
      Exc =    -1739.0108245995472771
 Exc_core =     1112.0876043539508373
       KE =      343.2528235182186336
-------------------------------------
     Etot =    -3898.3116067260075397
       TS =        0.2665446800335938
-------------------------------------
        F =    -3898.5781514060413429

IonicMinimize: Iter:   2  F: -3898.578151406041343  |grad|_K:  4.028e-04  alpha:  3.522e-01  linmin: -7.493e-01  t[s]:  17772.85

#--- Lowdin population analysis ---
# oxidation-state Bi +0.039 +0.036 +0.041 +0.023 +0.040 +0.031 +0.042 +0.029 +0.042 +0.032 +0.042 +0.038 +0.041 +0.035 +0.044 +0.038 +0.087 +0.038 +0.041 +0.040 +0.148 +0.038 +0.042 +0.017 +0.226 +0.038 +0.345 +0.042 +0.040 +0.042 +0.041 +0.002 +0.039 +0.048 +0.041 +0.008 +0.053 +0.037 +0.046 +0.038 +0.043 +0.037 +0.040 +0.032 +0.040 +0.405 +0.040 +0.024 +0.042 +0.034 +0.039 +0.026 +0.039 +0.039
# oxidation-state O -0.740


-------- Electronic minimization -----------
Will mix electronic density at each iteration.
	FillingsUpdate:  mu: +0.391673691  nElectrons: 816.000000
	FillingsUpdate:  mu: +0.391619848  nElectrons: 816.000000
SCF: Cycle:  0   F: -3898.463703708669073   dF: -5.146e-01   |Residual|: 2.577e-01   |deigs|: 1.024e-03  t[s]:  18235.51
	FillingsUpdate:  mu: +0.391789746  nElectrons: 816.000000
SCF: Cycle:  1   F: -3898.552100789954693   dF: -8.840e-02   |Residual|: 1.349e-01   |deigs|: 1.665e-03  t[s]:  18560.32
	FillingsUpdate:  mu: +0.391618986  nElectrons: 816.000000
SCF: Cycle:  2   F: -3898.562484030521773   dF: -1.038e-02   |Residual|: 9.514e-02   |deigs|: 1.530e-03  t[s]:  18890.88
	FillingsUpdate:  mu: +0.391773194  nElectrons: 816.000000
SCF: Cycle:  3   F: -3898.578923749974820   dF: -1.644e-02   |Residual|: 1.814e-02   |deigs|: 9.697e-04  t[s]:  19221.15
	FillingsUpdate:  mu: +0.391764224  nElectrons: 816.000000
SCF: Cycle:  4   F: -3898.579076621682816   dF: -1.529e-04   |Residual|: 5.307e-03   |deigs|: 9.792e-05  t[s]:  19507.87
	FillingsUpdate:  mu: +0.391760998  nElectrons: 816.000000
SCF: Cycle:  5   F: -3898.579114847797428   dF: -3.823e-05   |Residual|: 1.737e-03   |deigs|: 3.008e-05  t[s]:  19709.41
	FillingsUpdate:  mu: +0.391760065  nElectrons: 816.000000
SCF: Cycle:  6   F: -3898.579117299142126   dF: -2.451e-06   |Residual|: 5.307e-04   |deigs|: 1.050e-05  t[s]:  19910.83
	FillingsUpdate:  mu: +0.391760323  nElectrons: 816.000000
SCF: Cycle:  7   F: -3898.579117904306258   dF: -6.052e-07   |Residual|: 1.966e-04   |deigs|: 3.115e-06  t[s]:  20114.70
	FillingsUpdate:  mu: +0.391760354  nElectrons: 816.000000
SCF: Cycle:  8   F: -3898.579118126504000   dF: -2.222e-07   |Residual|: 9.622e-05   |deigs|: 1.467e-06  t[s]:  20318.41
	FillingsUpdate:  mu: +0.391760545  nElectrons: 816.000000
SCF: Cycle:  9   F: -3898.579118220980035   dF: -9.448e-08   |Residual|: 4.637e-05   |deigs|: 1.239e-06  t[s]:  20521.98
	FillingsUpdate:  mu: +0.391760515  nElectrons: 816.000000
SCF: Cycle: 10   F: -3898.579118269612991   dF: -4.863e-08   |Residual|: 3.185e-05   |deigs|: 5.138e-07  t[s]:  20727.83
	FillingsUpdate:  mu: +0.391760564  nElectrons: 816.000000
SCF: Cycle: 11   F: -3898.579118297887362   dF: -2.827e-08   |Residual|: 2.095e-05   |deigs|: 2.611e-07  t[s]:  20927.68
	FillingsUpdate:  mu: +0.391760557  nElectrons: 816.000000
SCF: Cycle: 12   F: -3898.579118315741198   dF: -1.785e-08   |Residual|: 1.737e-05   |deigs|: 1.870e-07  t[s]:  21132.89
	FillingsUpdate:  mu: +0.391760572  nElectrons: 816.000000
SCF: Cycle: 13   F: -3898.579118327228571   dF: -1.149e-08   |Residual|: 9.462e-06   |deigs|: 1.265e-07  t[s]:  21333.93
	FillingsUpdate:  mu: +0.391760573  nElectrons: 816.000000
SCF: Cycle: 14   F: -3898.579118334671421   dF: -7.443e-09   |Residual|: 1.057e-05   |deigs|: 1.079e-07  t[s]:  21544.01
	FillingsUpdate:  mu: +0.391760578  nElectrons: 816.000000
SCF: Cycle: 15   F: -3898.579118340107925   dF: -5.437e-09   |Residual|: 5.252e-06   |deigs|: 1.134e-07  t[s]:  21746.84
SCF: Converged (|Delta E|<1.000000e-08 for 2 iters).

Setting wave functions to eigenvectors of Hamiltonian

# Ionic positions in lattice coordinates:
ion Bi   0.247120385763134   0.252191821097826   0.247893419341543 1
ion Bi   0.083812111495161   0.078691830467799   0.073236706513524 1
ion Bi   0.246396575177247   0.249815354129252   0.586661145758675 1
ion Bi   0.075545500344317   0.094478789749807   0.407997813200374 1
ion Bi   0.243564647450112   0.248739972533245   0.918036265427293 1
ion Bi   0.088622843150054   0.079971293440674   0.768565172030819 1
ion Bi   0.244377096558709   0.588818032136875   0.248147938918053 1
ion Bi   0.075959906922861   0.414125650133049   0.088351799791046 1
ion Bi   0.250034294221953   0.585600883267409   0.584363344675246 1
ion Bi   0.085964347207520   0.418753070236197   0.416698452676506 1
ion Bi   0.233918300632390   0.585074543013341   0.929392855123726 1
ion Bi   0.083020447336216   0.423169659784105   0.747907822918570 1
ion Bi   0.243480236264248   0.921291263209400   0.244960374498217 1
ion Bi   0.087148604012468   0.771154476656425   0.076570189469789 1
ion Bi   0.232571835758376   0.934840487980899   0.581352201634413 1
ion Bi   0.083768772899584   0.751796329935204   0.419592604029941 1
ion Bi   0.273369322105818   0.910528907176122   0.912594192794822 1
ion Bi   0.082962728125011   0.755151299141752   0.749890425712701 1
ion Bi   0.581127834301057   0.253610020859948   0.249642271006814 1
ion Bi   0.415407497940866   0.086587124111244   0.082101989711477 1
ion Bi   0.580386633125382   0.273742850616424   0.576764161928232 1
ion Bi   0.415771744667808   0.089468571307836   0.415217804190916 1
ion Bi   0.580745670408511   0.250195376975880   0.919803743331951 1
ion Bi   0.430859492900564   0.097135171210735   0.737743814478581 1
ion Bi   0.579676151869915   0.580366922172832   0.274154753908950 1
ion Bi   0.415981448173877   0.421283389210632   0.083743856148864 1
ion Bi   0.568300657375629   0.588232590721280   0.582835467534416 1
ion Bi   0.412191188032797   0.421629043208754   0.416529444034661 1
ion Bi   0.573802794191014   0.592292055536540   0.907922243068209 1
ion Bi   0.406581535426706   0.420026857149483   0.764831353787032 1
ion Bi   0.580089908967408   0.921987729277029   0.248090293593984 1
ion Bi   0.429291406351580   0.740856375617492   0.093183821256773 1
ion Bi   0.573087870511271   0.913253569592822   0.588063584768206 1
ion Bi   0.402798629139327   0.771434772995996   0.416272394189324 1
ion Bi   0.581437292533708   0.916932011382314   0.916867295615009 1
ion Bi   0.400675459847808   0.755550418906669   0.749399111222229 1
ion Bi   0.907943288707960   0.240479981872362   0.235523050029448 1
ion Bi   0.751715352693376   0.087253585626480   0.084850831437853 1
ion Bi   0.924698032836226   0.237955143622565   0.598998204675816 1
ion Bi   0.736122607416490   0.086654017541894   0.430291298839691 1
ion Bi   0.904619372842363   0.263589463770319   0.917141168746273 1
ion Bi   0.746876532982758   0.089149111729137   0.748995197071024 1
ion Bi   0.924041170447304   0.596818408881300   0.239833556850067 1
ion Bi   0.735916152195474   0.436089914161343   0.081214848873308 1
ion Bi   0.912726620243532   0.584776248117384   0.582124998739855 1
ion Bi   0.815983430914038   0.391509938489301   0.393681692390763 1
ion Bi   0.913011250026080   0.587554755377607   0.915399465613397 1
ion Bi   0.745685174786353   0.422552063674273   0.745418153009158 1
ion Bi   0.906093104543776   0.919032700965326   0.261080131960958 1
ion Bi   0.748895337278635   0.751806110638059   0.086213544279305 1
ion Bi   0.913150536775959   0.919580912432372   0.583544837421236 1
ion Bi   0.745678346334083   0.750215585183815   0.418450685616714 1
ion Bi   0.909491143722517   0.920426354528021   0.916695931963472 1
ion Bi   0.749180295992484   0.754004114916536   0.748298170725554 1
ion O   0.619921078070188   0.489483073528610   0.463154103465219 1

# Forces in Lattice coordinates:
force Bi  -0.010810991127496  -0.006102962306565  -0.007395724195125 1
force Bi   0.001573836784239   0.002049755634030  -0.002443904597647 1
force Bi  -0.006835205906001  -0.006303062572357  -0.001942110585471 1
force Bi   0.007118769600172   0.003480105840350   0.006989123540070 1
force Bi  -0.006901537363496  -0.006845523884736  -0.005441489418596 1
force Bi   0.015210514241994   0.013236327442609   0.025991252691334 1
force Bi  -0.005970008505250  -0.005439838029634  -0.006084975681800 1
force Bi   0.009018680917073   0.005158557414106   0.001463458056036 1
force Bi  -0.004592112369032  -0.003687024555676  -0.006206734782980 1
force Bi   0.006584372257791   0.002920189422356   0.008177082276804 1
force Bi  -0.003991956658495  -0.000644891058888   0.001018715467263 1
force Bi   0.005566421687219   0.004994992806930   0.008491000704482 1
force Bi  -0.012429183645511  -0.006277054532548  -0.009379605366280 1
force Bi   0.017622667177084   0.018139706014886   0.007997902294862 1
force Bi  -0.006306771412716   0.002842209813499   0.004387352975082 1
force Bi   0.002760642420382   0.004949843713457   0.004781555394090 1
force Bi   0.012453250708956   0.013012364056337   0.013468725726346 1
force Bi   0.007240861411037   0.015774026730745   0.014401280778654 1
force Bi  -0.019965136322594  -0.006347692206794  -0.008486058904748 1
force Bi   0.007136948413883   0.004571356711470   0.004175248182707 1
force Bi   0.003109260939025   0.013837221326000  -0.000813715988016 1
force Bi   0.004300070559521   0.001336636380320   0.008333267137005 1
force Bi  -0.008724599559950  -0.006282691652892  -0.002104721838959 1
force Bi   0.006172124119090   0.004149504158600   0.004269277162754 1
force Bi  -0.001481818160673   0.007791621133580   0.014152192832437 1
force Bi  -0.000314377186341   0.002976350066807   0.000151949569094 1
force Bi  -0.031493511700050  -0.037889628343511  -0.042541577035994 1
force Bi   0.006112333534412   0.002343648962810   0.001601683273257 1
force Bi  -0.016372401017042  -0.013261533168739  -0.011254024154940 1
force Bi   0.007343110588721   0.010205472346429  -0.001709962188873 1
force Bi  -0.013453664535772  -0.009211293817146  -0.009895949938232 1
force Bi   0.003744675629023   0.006199640827646   0.005277153785248 1
force Bi  -0.010027420439261  -0.009463445349700  -0.007629765147311 1
force Bi   0.006900950932870   0.004844396247506   0.013367038454923 1
force Bi  -0.009003417576565  -0.007594736182346  -0.004625068931414 1
force Bi   0.008013257645105   0.004885514560495   0.000932814837262 1
force Bi  -0.021276324939495  -0.039513809488383  -0.042680314201291 1
force Bi   0.006624956742543   0.005932281449399   0.002233013575836 1
force Bi   0.011708037084640  -0.003904149592149   0.011419436311006 1
force Bi   0.004937560266507  -0.001517560830312   0.000786142459393 1
force Bi  -0.010562478707739   0.006167157224768  -0.000016885278945 1
force Bi   0.012895442264114   0.005917565436642   0.012888104985633 1
force Bi  -0.001371842112752  -0.000685133912743  -0.009581506548135 1
force Bi  -0.000418085844395   0.007909470410741   0.005320987153930 1
force Bi  -0.003383752820531  -0.004326043326952  -0.005044737591479 1
force Bi  -0.004059404701146   0.044986677540304   0.047701682567090 1
force Bi  -0.012797666946342  -0.007427315451677  -0.005597958292015 1
force Bi  -0.000272572819690   0.008522280577778  -0.008964656302657 1
force Bi  -0.006326349229732   0.002512056225978  -0.004624378447796 1
force Bi   0.008329420857626   0.006334070260474   0.002204818012878 1
force Bi  -0.012108429857172  -0.007045193211994  -0.008860899061133 1
force Bi   0.003037628442653  -0.003403850236349   0.008274303690440 1
force Bi  -0.002935696979161   0.000060266391329   0.002156697627357 1
force Bi   0.005460040630026   0.005709893817561   0.004080608528439 1
force O   0.056251525283068  -0.047623295921015  -0.030657988828492 1

# Energy components:
   Eewald =    -2860.2041726978241059
       EH =      932.5821540320342820
     Eloc =    -2967.2790831990100742
      Enl =     1280.2584064425175256
      Exc =    -1739.0101399445707102
 Exc_core =     1112.0876103913476527
       KE =      343.2507464931356935
-------------------------------------
     Etot =    -3898.3144784823689406
       TS =        0.2646398577391454
-------------------------------------
        F =    -3898.5791183401079252

IonicMinimize: Iter:   3  F: -3898.579118340107925  |grad|_K:  5.190e-04  alpha:  1.984e-01  linmin: -3.954e-01  t[s]:  21798.29

#--- Lowdin population analysis ---
# oxidation-state Bi +0.038 +0.034 +0.042 +0.024 +0.040 +0.030 +0.043 +0.029 +0.043 +0.031 +0.042 +0.037 +0.040 +0.033 +0.045 +0.038 +0.093 +0.038 +0.041 +0.040 +0.157 +0.038 +0.042 +0.014 +0.244 +0.038 +0.333 +0.042 +0.041 +0.041 +0.042 -0.000 +0.039 +0.045 +0.041 +0.008 +0.053 +0.037 +0.049 +0.038 +0.044 +0.037 +0.042 +0.031 +0.040 +0.393 +0.040 +0.025 +0.042 +0.033 +0.039 +0.026 +0.039 +0.039
# oxidation-state O -0.737


-------- Electronic minimization -----------
Will mix electronic density at each iteration.
	FillingsUpdate:  mu: +0.391760578  nElectrons: 816.000000
	FillingsUpdate:  mu: +0.391701081  nElectrons: 816.000000
SCF: Cycle:  0   F: -3898.466683978538185   dF: -4.164e-01   |Residual|: 2.509e-01   |deigs|: 9.457e-04  t[s]:  22270.48
	FillingsUpdate:  mu: +0.391980006  nElectrons: 816.000000
SCF: Cycle:  1   F: -3898.548836962083897   dF: -8.215e-02   |Residual|: 1.446e-01   |deigs|: 2.470e-03  t[s]:  22607.87
	FillingsUpdate:  mu: +0.391734797  nElectrons: 816.000000
SCF: Cycle:  2   F: -3898.561861229867191   dF: -1.302e-02   |Residual|: 9.942e-02   |deigs|: 1.708e-03  t[s]:  22934.98
	FillingsUpdate:  mu: +0.391886557  nElectrons: 816.000000
SCF: Cycle:  3   F: -3898.579681469734624   dF: -1.782e-02   |Residual|: 1.707e-02   |deigs|: 1.002e-03  t[s]:  23264.47
	FillingsUpdate:  mu: +0.391880853  nElectrons: 816.000000
SCF: Cycle:  4   F: -3898.579816653425496   dF: -1.352e-04   |Residual|: 5.022e-03   |deigs|: 8.655e-05  t[s]:  23467.61
	FillingsUpdate:  mu: +0.391875535  nElectrons: 816.000000
SCF: Cycle:  5   F: -3898.579845812302210   dF: -2.916e-05   |Residual|: 1.345e-03   |deigs|: 2.514e-05  t[s]:  23669.13
	FillingsUpdate:  mu: +0.391875344  nElectrons: 816.000000
SCF: Cycle:  6   F: -3898.579848290243262   dF: -2.478e-06   |Residual|: 6.507e-04   |deigs|: 4.880e-06  t[s]:  23875.24
	FillingsUpdate:  mu: +0.391874881  nElectrons: 816.000000
SCF: Cycle:  7   F: -3898.579849061730329   dF: -7.715e-07   |Residual|: 2.341e-04   |deigs|: 4.627e-06  t[s]:  24084.51
	FillingsUpdate:  mu: +0.391875179  nElectrons: 816.000000
SCF: Cycle:  8   F: -3898.579849379515963   dF: -3.178e-07   |Residual|: 1.037e-04   |deigs|: 3.357e-06  t[s]:  24286.81
	FillingsUpdate:  mu: +0.391875188  nElectrons: 816.000000
SCF: Cycle:  9   F: -3898.579849523207486   dF: -1.437e-07   |Residual|: 6.517e-05   |deigs|: 8.991e-07  t[s]:  24486.12
	FillingsUpdate:  mu: +0.391875236  nElectrons: 816.000000
SCF: Cycle: 10   F: -3898.579849588983961   dF: -6.578e-08   |Residual|: 3.996e-05   |deigs|: 3.241e-07  t[s]:  24690.72
	FillingsUpdate:  mu: +0.391875234  nElectrons: 816.000000
SCF: Cycle: 11   F: -3898.579849624196868   dF: -3.521e-08   |Residual|: 3.445e-05   |deigs|: 3.007e-07  t[s]:  24891.17
	FillingsUpdate:  mu: +0.391875264  nElectrons: 816.000000
SCF: Cycle: 12   F: -3898.579849645094328   dF: -2.090e-08   |Residual|: 1.330e-05   |deigs|: 1.925e-07  t[s]:  25092.30
	FillingsUpdate:  mu: +0.391875265  nElectrons: 816.000000
SCF: Cycle: 13   F: -3898.579849656548049   dF: -1.145e-08   |Residual|: 1.633e-05   |deigs|: 1.509e-07  t[s]:  25296.23
	FillingsUpdate:  mu: +0.391875272  nElectrons: 816.000000
SCF: Cycle: 14   F: -3898.579849663915411   dF: -7.367e-09   |Residual|: 7.610e-06   |deigs|: 1.580e-07  t[s]:  25498.49
	FillingsUpdate:  mu: +0.391875271  nElectrons: 816.000000
SCF: Cycle: 15   F: -3898.579849668175029   dF: -4.260e-09   |Residual|: 1.304e-05   |deigs|: 1.568e-07  t[s]:  25701.42
SCF: Converged (|Delta E|<1.000000e-08 for 2 iters).

Setting wave functions to eigenvectors of Hamiltonian

# Ionic positions in lattice coordinates:
ion Bi   0.246333335866230   0.251989852347692   0.247813957201622 1
ion Bi   0.084445928049012   0.078754813571825   0.072709163285951 1
ion Bi   0.245948492252850   0.249517193047375   0.586655593840004 1
ion Bi   0.075672333421707   0.094710375740324   0.407946703139795 1
ion Bi   0.242909185604931   0.248156667223040   0.917865121265165 1
ion Bi   0.089726936135849   0.079471837943018   0.770395682279011 1
ion Bi   0.244018034663782   0.588646358267245   0.248121465542979 1
ion Bi   0.076642758201497   0.413960370854770   0.088398532682106 1
ion Bi   0.249037451218376   0.585762719934694   0.584184494087463 1
ion Bi   0.086287691207761   0.418865040540258   0.416956898140338 1
ion Bi   0.232995019285251   0.585354212534637   0.929131053412166 1
ion Bi   0.083671873181117   0.423104478006700   0.748252566010824 1
ion Bi   0.242426093983087   0.921630043744774   0.244024596135105 1
ion Bi   0.088655239400690   0.771943475064553   0.075966394966277 1
ion Bi   0.230671449847455   0.935505972213343   0.582072163774975 1
ion Bi   0.084357064363782   0.752149154687448   0.419553171274793 1
ion Bi   0.275968554557965   0.909266018321048   0.912467016557810 1
ion Bi   0.082794569748300   0.755448393869218   0.750301243226603 1
ion Bi   0.580068437441197   0.253687805907835   0.249678454677697 1
ion Bi   0.416178426446353   0.086696634761567   0.082348837813277 1
ion Bi   0.580615363953134   0.274547358150046   0.576040952505793 1
ion Bi   0.416072379300683   0.089476820189622   0.415550330858553 1
ion Bi   0.579845458664995   0.250324092620482   0.919516310983902 1
ion Bi   0.431783715979253   0.097547839800596   0.737387165786944 1
ion Bi   0.579278059104412   0.580075239160435   0.275643386208353 1
ion Bi   0.416267938304827   0.421512624766430   0.083965775047546 1
ion Bi   0.567759623637205   0.587422023871810   0.581011067976191 1
ion Bi   0.412436909632571   0.421799247766783   0.417072532775943 1
ion Bi   0.572671370074540   0.592376415279015   0.907677169232623 1
ion Bi   0.406914622081534   0.420144540139227   0.765102851976863 1
ion Bi   0.579374810841289   0.921798453637015   0.248136908823478 1
ion Bi   0.430077896612359   0.740589578657526   0.093667838070016 1
ion Bi   0.572187289959465   0.913121715736618   0.587941987699238 1
ion Bi   0.402241644548271   0.772834818380283   0.416424442530418 1
ion Bi   0.581128847121831   0.916741802838368   0.916710342992475 1
ion Bi   0.401897781167075   0.754631998510326   0.748052773904654 1
ion Bi   0.906086651122410   0.241497615535740   0.236204303872480 1
ion Bi   0.751803891935061   0.087675653604547   0.085236876617832 1
ion Bi   0.925749121537221   0.235957503461257   0.600906309328734 1
ion Bi   0.736310773968848   0.086654120599294   0.430545655841913 1
ion Bi   0.902968097350482   0.264179230625153   0.917297768932650 1
ion Bi   0.747442906587581   0.089115055214023   0.749359315037883 1
ion Bi   0.924874178538878   0.598023098497365   0.238255022137306 1
ion Bi   0.735539233885951   0.436828611170927   0.081575635060980 1
ion Bi   0.912103708581479   0.584530241013516   0.582018428579932 1
ion Bi   0.818205736265291   0.391526770242091   0.394099177589239 1
ion Bi   0.912143482993493   0.587278722071588   0.915422403553379 1
ion Bi   0.746024580957009   0.423013602679794   0.745261556324649 1
ion Bi   0.905163870838323   0.919123166406431   0.260735651511161 1
ion Bi   0.749445268967432   0.752009845875633   0.086414146876763 1
ion Bi   0.912145293482797   0.919467575328158   0.583372763220341 1
ion Bi   0.746472976487921   0.750100848197982   0.418744018899107 1
ion Bi   0.909003106964288   0.920420777828990   0.916712724947458 1
ion Bi   0.749475164439227   0.754001561507787   0.748666857488306 1
ion O   0.621279369235673   0.486740012053772   0.460716437492932 1

# Forces in Lattice coordinates:
force Bi  -0.008926283832647  -0.004914217119698  -0.006023244884355 1
force Bi  -0.001095586935802   0.002976749527006  -0.001976209414699 1
force Bi  -0.003711503331056  -0.003418518180272   0.001045771967185 1
force Bi   0.007115361390348   0.002480753597597   0.008229005178213 1
force Bi  -0.000102690923549  -0.000969538689832  -0.002124103463689 1
force Bi   0.007179875906489   0.011319860126085   0.020162886611410 1
force Bi  -0.004333393250819  -0.003722422767723  -0.005107688543054 1
force Bi   0.006783465858794   0.005235946142337  -0.000471897162970 1
force Bi  -0.003569157945721  -0.002158649177628  -0.004247376417008 1
force Bi   0.004045575461287   0.000659536662874   0.006556072997750 1
force Bi  -0.000436478810410   0.003467019540402   0.004393719904463 1
force Bi   0.001702825359720   0.003141390904687   0.006652412919061 1
force Bi  -0.007080146326702  -0.004198404697108  -0.004148711639494 1
force Bi   0.011186162981305   0.013732152868673   0.007009253692773 1
force Bi  -0.000681714717760   0.005332315265495   0.008908931728320 1
force Bi  -0.002851697003853   0.002263572054757   0.001222839416766 1
force Bi   0.010234468083287   0.018144251783086   0.014216004326460 1
force Bi   0.007188311333307   0.015475718494898   0.014090938431602 1
force Bi  -0.018610882609665  -0.005924782244798  -0.008155653850175 1
force Bi   0.002103827324935   0.000854190972419   0.001126411610538 1
force Bi  -0.002566817934929   0.003706553211057  -0.000539412624310 1
force Bi   0.001964148937498  -0.000462299064154   0.007324092863006 1
force Bi  -0.002573040160732  -0.003075203704523   0.001698836192948 1
force Bi   0.002923765645236   0.000751036351460   0.002737391037286 1
force Bi  -0.016764443135180   0.003659788060591  -0.013731010643109 1
force Bi  -0.004476279684617   0.000009020216926  -0.003155429392882 1
force Bi  -0.023112056321857  -0.025048637572803  -0.027544384024634 1
force Bi   0.002653426439293  -0.000817466857981  -0.002017676420881 1
force Bi  -0.013199673607741  -0.012406758526529  -0.008714098088418 1
force Bi   0.004642183860635   0.009235433162890  -0.006110145508703 1
force Bi  -0.009559151364978  -0.006222083396283  -0.008802612974637 1
force Bi  -0.002836298060411   0.003509509501709  -0.000844949331073 1
force Bi  -0.005962104712618  -0.006888329271852  -0.006172852080332 1
force Bi   0.006438714904508  -0.001524668542629   0.013147693904273 1
force Bi  -0.009662456225921  -0.006922653014513  -0.004660554907051 1
force Bi   0.009873230327091   0.004593928154230   0.001094365145436 1
force Bi  -0.014822822039103  -0.040741345191210  -0.044228529458650 1
force Bi   0.003422158768307   0.003812016398608  -0.000298021852605 1
force Bi   0.008300665943497  -0.001994642605322   0.004506217062424 1
force Bi   0.002823460756882  -0.001499256997721  -0.002104654801578 1
force Bi  -0.007624694717613   0.010177171177359   0.002023518869420 1
force Bi   0.011956304791990   0.004820091547392   0.012521752755913 1
force Bi  -0.005717112349284  -0.007726151456222  -0.009170892889038 1
force Bi  -0.002437134770423   0.006267168861091   0.006948224596186 1
force Bi   0.001340441786697  -0.000745841500791  -0.002341699600450 1
force Bi   0.027351671040206   0.032372411068309   0.042007194777585 1
force Bi  -0.011555133010759  -0.005491050771029  -0.004629593601609 1
force Bi  -0.006144471776275   0.004396168482357  -0.015047520227970 1
force Bi  -0.002557203340476   0.005249438510652  -0.000764628091417 1
force Bi   0.005590441558800   0.004072973440282  -0.000554242009785 1
force Bi  -0.009654327719453  -0.005123523643776  -0.006484973517583 1
force Bi  -0.002301975053522  -0.007611294232076   0.005021104380023 1
force Bi  -0.001450236514858   0.001357168697927   0.004499500812132 1
force Bi   0.003468303566943   0.004065921007445   0.002218546717674 1
force O   0.057853670165586  -0.026645022856971   0.000538452353883 1

# Energy components:
   Eewald =    -2859.9734634737405941
       EH =      932.8333060341589089
     Eloc =    -2967.7764596622009776
      Enl =     1280.2629747376238356
[...]
ion Bi   0.087315823456567   0.418818919980337   0.072917794652642 1
ion Bi   0.229747090247728   0.595421210713154   0.590004506087517 1
ion Bi   0.088105483455813   0.417201904168493   0.418164899003981 1
ion Bi   0.232999962392286   0.599764843701651   0.920600219843039 1
ion Bi   0.074545241826518   0.423923160595248   0.754570992153829 1
ion Bi   0.242806970131609   0.917328961633828   0.243407660311965 1
ion Bi   0.095051695816501   0.781927539927137   0.069495934857098 1
ion Bi   0.229485890652459   0.928055941315334   0.598286621869060 1
ion Bi   0.074930193730443   0.758626873044813   0.418504377384288 1
ion Bi   0.295867797116481   0.905571880412745   0.900671885340389 1
ion Bi   0.069251508690120   0.761630951396054   0.758026976366593 1
ion Bi   0.562369839289710   0.261352278097306   0.257568002836123 1
ion Bi   0.413459653710991   0.086150283914712   0.081769941746977 1
ion Bi   0.582843491726119   0.282330616408010   0.571884571925148 1
ion Bi   0.406998081129667   0.090136430937886   0.421573428815968 1
ion Bi   0.568006319309519   0.258209490017581   0.918801857217680 1
ion Bi   0.440390584150163   0.096361574435746   0.729740665664951 1
ion Bi   0.576137407602913   0.580535819595526   0.279516119360855 1
ion Bi   0.407003490077967   0.423665978150087   0.086697998720349 1
ion Bi   0.579834449083447   0.576971959327766   0.569269215170224 1
ion Bi   0.404143320475782   0.426364047585141   0.425616714705050 1
ion Bi   0.577620444098407   0.579767493658585   0.914912664896802 1
ion Bi   0.403308998952996   0.428534796698020   0.757475642060308 1
ion Bi   0.567452981644787   0.924540324329584   0.253906359773449 1
ion Bi   0.434141834804134   0.735453538287463   0.092788204762369 1
ion Bi   0.579435795843679   0.918216299519312   0.575411840263728 1
ion Bi   0.399151769982421   0.766479587479852   0.425834755674726 1
ion Bi   0.580633151056365   0.917175227456334   0.916638930447988 1
ion Bi   0.427926223316511   0.742053979814340   0.737002900330899 1
ion Bi   0.924456121859772   0.236238054615289   0.230499759087702 1
ion Bi   0.736235999777026   0.095772621166874   0.090433786816558 1
ion Bi   0.934618552798501   0.225786620955018   0.606671278066658 1
ion Bi   0.740178952213385   0.097823206138927   0.420301707962693 1
ion Bi   0.893135059540709   0.265674048149185   0.924928691750581 1
ion Bi   0.745947087198302   0.091592593407558   0.752106550774343 1
ion Bi   0.936174198023235   0.605126480519006   0.224626704631195 1
ion Bi   0.736543501160674   0.427300837745924   0.096959237634824 1
ion Bi   0.907535545388266   0.585908848218769   0.580964606457480 1
ion Bi   0.847555655707965   0.385685912457352   0.385239857673840 1
ion Bi   0.899846274534740   0.590525663719974   0.921627678425315 1
ion Bi   0.749371134938372   0.417220630261941   0.743321913263704 1
ion Bi   0.896866332757617   0.928601528696559   0.256192026695477 1
ion Bi   0.745852309680552   0.752543341424977   0.092379186062695 1
ion Bi   0.900088594739385   0.924087626350125   0.586597452857111 1
ion Bi   0.751255310719163   0.748286378372245   0.410648997371272 1
ion Bi   0.898544970560263   0.926715423819267   0.925904907550879 1
ion Bi   0.744891519750712   0.751873253023401   0.749636510515801 1
ion O   0.648589589808667   0.460834744700119   0.448281338913671 1

# Forces in Lattice coordinates:
force Bi   0.002397696254082   0.002481223545065   0.003259027213484 1
force Bi  -0.001714816618851  -0.003645270103963  -0.004561567370338 1
force Bi   0.001160154052889  -0.000746519838402  -0.001043060158357 1
force Bi  -0.000202223893505  -0.000324781637516   0.000047797861882 1
force Bi   0.001136459054171  -0.000117636086487  -0.001534050109198 1
force Bi  -0.002853155153647  -0.001991950317645  -0.003240191421324 1
force Bi   0.001332634588463   0.002459899935419  -0.000591462099420 1
force Bi  -0.001597151526018   0.001723769197154   0.000381743100739 1
force Bi   0.002112679417154   0.000415138277092   0.001514960226124 1
force Bi  -0.001845003319131   0.000961743317114   0.000780959095799 1
force Bi  -0.000045604256464  -0.003632722985037  -0.003680701830609 1
force Bi  -0.001027997157137  -0.000427665256835   0.001831487804668 1
force Bi   0.000502464904988  -0.002568345703133  -0.001270027187652 1
force Bi  -0.004198501386126   0.000080759877571  -0.002808475480672 1
force Bi   0.000703394879284  -0.004832258110996  -0.003141247292895 1
force Bi  -0.001172359301668   0.002031754257047   0.000127648447463 1
force Bi  -0.001543950071744  -0.003426440878451  -0.001534825525251 1
force Bi  -0.002197437267591  -0.000272068093556   0.000296933239095 1
force Bi   0.003026441408454   0.000810167295831   0.001292186463354 1
force Bi  -0.003068925722669  -0.000937673362301  -0.001481413774771 1
force Bi  -0.001916965587483  -0.001739167040892  -0.001406607258109 1
force Bi   0.001831815923165   0.003745687571219   0.002178270288538 1
force Bi   0.002027647859505   0.002467560865972   0.001458842614463 1
force Bi  -0.001998600801793  -0.000719665413589   0.001927565670561 1
force Bi   0.004541577894694  -0.001353693837462   0.004796890691821 1
force Bi   0.004572695473195   0.004706297207656   0.004925428479796 1
force Bi   0.002037723459777   0.001087344625525   0.001149296917720 1
force Bi  -0.002110056629148   0.000358683111894   0.000195876927670 1
force Bi   0.001415712821245   0.001994161630646   0.003709800103770 1
force Bi  -0.000971766541071  -0.001384894140868   0.000001560395420 1
force Bi   0.003753197712363   0.001190462183565   0.004593370275208 1
force Bi   0.005454981879934   0.002773590799351   0.003897681493143 1
force Bi  -0.001076864278723   0.001908889523199  -0.000882235006906 1
force Bi  -0.000880396992444   0.000658619724881  -0.002267979226752 1
force Bi  -0.002308571286584  -0.002908053139649  -0.001002143457798 1
force Bi  -0.001196040295779  -0.004294030626623  -0.004303229502328 1
force Bi  -0.005189667340643   0.000653531734383   0.000720582572590 1
force Bi   0.002412072287788   0.002298013639542   0.002876790717863 1
force Bi  -0.006218465417397  -0.000184654424708  -0.005584618553593 1
force Bi  -0.001488525159907   0.000835736379814   0.000628868974176 1
force Bi   0.000897829218321  -0.001259792224802   0.000896556046176 1
force Bi  -0.005412025434198   0.000906334880953  -0.002777998898910 1
force Bi   0.001385197266935   0.004087001035010   0.001204884538849 1
force Bi   0.000175724804844   0.001239409135995   0.000042572424625 1
force Bi  -0.001758278917928  -0.003187935323450  -0.001959641567166 1
force Bi   0.003460249084121  -0.006239980619104  -0.008975328202329 1
force Bi   0.003581006838621   0.000588030064044   0.001537149242640 1
force Bi   0.000569110288794  -0.000082080395406   0.004771059362311 1
force Bi   0.001208502387526  -0.001385163086772  -0.000726629770918 1
force Bi  -0.001298535060489   0.000339684089127   0.000761165042988 1
force Bi   0.004806846924424   0.002599546449745   0.001898762372534 1
force Bi   0.002529766902632   0.004661848276819   0.001326236363442 1
force Bi  -0.003750298836575  -0.003361047315075  -0.003704182653161 1
force Bi   0.001086376972042   0.003194342334072   0.002830285701812 1
force O   0.003190122018682   0.000223245011411   0.005376765101197 1

# Energy components:
   Eewald =    -2860.6449692670935292
       EH =      932.2352909060901993
     Eloc =    -2966.5058064590634785
      Enl =     1280.2611583953416812
      Exc =    -1739.0084834920626236
 Exc_core =     1112.0876475381317050
       KE =      343.2517121014453778
-------------------------------------
     Etot =    -3898.3234502772111227
       TS =        0.2593478440999112
-------------------------------------
        F =    -3898.5827981213110434

IonicMinimize: Iter:  17  F: -3898.582798121311043  |grad|_K:  1.022e-04  alpha:  1.000e+00  linmin: -3.240e-01  t[s]:  74806.79

#--- Lowdin population analysis ---
# oxidation-state Bi +0.030 +0.029 +0.043 +0.027 +0.039 +0.027 +0.042 +0.028 +0.038 +0.022 +0.044 +0.039 +0.037 +0.027 +0.045 +0.039 +0.122 +0.038 +0.039 +0.039 +0.236 +0.039 +0.040 -0.007 +0.262 +0.040 +0.268 +0.032 +0.042 +0.034 +0.040 -0.009 +0.042 +0.034 +0.041 -0.009 +0.047 +0.037 +0.052 +0.036 +0.046 +0.032 +0.050 +0.035 +0.039 +0.415 +0.039 +0.029 +0.044 +0.031 +0.039 +0.029 +0.045 +0.038
# oxidation-state O -0.723


-------- Electronic minimization -----------
Will mix electronic density at each iteration.
	FillingsUpdate:  mu: +0.392182022  nElectrons: 816.000000
	FillingsUpdate:  mu: +0.392185416  nElectrons: 816.000000
SCF: Cycle:  0   F: -3898.570214665412095   dF: -3.420e-02   |Residual|: 6.201e-02   |deigs|: 7.316e-05  t[s]:  75266.25
	FillingsUpdate:  mu: +0.392184942  nElectrons: 816.000000
SCF: Cycle:  1   F: -3898.581027012848608   dF: -1.081e-02   |Residual|: 3.250e-02   |deigs|: 4.791e-04  t[s]:  75601.00
	FillingsUpdate:  mu: +0.392170811  nElectrons: 816.000000
SCF: Cycle:  2   F: -3898.582719786134476   dF: -1.693e-03   |Residual|: 9.096e-03   |deigs|: 2.027e-04  t[s]:  75883.00
	FillingsUpdate:  mu: +0.392188552  nElectrons: 816.000000
SCF: Cycle:  3   F: -3898.582782729911742   dF: -6.294e-05   |Residual|: 5.721e-03   |deigs|: 1.286e-04  t[s]:  76087.11
	FillingsUpdate:  mu: +0.392181665  nElectrons: 816.000000
SCF: Cycle:  4   F: -3898.582839420443634   dF: -5.669e-05   |Residual|: 1.174e-03   |deigs|: 6.517e-05  t[s]:  76284.78
	FillingsUpdate:  mu: +0.392181532  nElectrons: 816.000000
SCF: Cycle:  5   F: -3898.582842070459265   dF: -2.650e-06   |Residual|: 5.119e-04   |deigs|: 3.643e-06  t[s]:  76484.77
	FillingsUpdate:  mu: +0.392181597  nElectrons: 816.000000
SCF: Cycle:  6   F: -3898.582842466263628   dF: -3.958e-07   |Residual|: 1.620e-04   |deigs|: 1.741e-06  t[s]:  76683.85
	FillingsUpdate:  mu: +0.392181750  nElectrons: 816.000000
SCF: Cycle:  7   F: -3898.582842611010619   dF: -1.447e-07   |Residual|: 5.758e-05   |deigs|: 1.238e-06  t[s]:  76882.98
	FillingsUpdate:  mu: +0.392181674  nElectrons: 816.000000
SCF: Cycle:  8   F: -3898.582842662999155   dF: -5.199e-08   |Residual|: 3.446e-05   |deigs|: 4.556e-07  t[s]:  77080.68
	FillingsUpdate:  mu: +0.392181665  nElectrons: 816.000000
SCF: Cycle:  9   F: -3898.582842688024812   dF: -2.503e-08   |Residual|: 1.650e-05   |deigs|: 2.529e-07  t[s]:  77283.80
	FillingsUpdate:  mu: +0.392181651  nElectrons: 816.000000
SCF: Cycle: 10   F: -3898.582842700322999   dF: -1.230e-08   |Residual|: 9.889e-06   |deigs|: 1.807e-07  t[s]:  77482.60
	FillingsUpdate:  mu: +0.392181655  nElectrons: 816.000000
SCF: Cycle: 11   F: -3898.582842706639894   dF: -6.317e-09   |Residual|: 8.891e-06   |deigs|: 1.165e-07  t[s]:  77682.30
	FillingsUpdate:  mu: +0.392181648  nElectrons: 816.000000
SCF: Cycle: 12   F: -3898.582842710309251   dF: -3.669e-09   |Residual|: 3.474e-06   |deigs|: 1.236e-07  t[s]:  77884.44
SCF: Converged (|Delta E|<1.000000e-08 for 2 iters).

Setting wave functions to eigenvectors of Hamiltonian

# Ionic positions in lattice coordinates:
ion Bi   0.238795782466023   0.251824455774714   0.248803812167121 1
ion Bi   0.095514588753913   0.070614228964790   0.063769240512770 1
ion Bi   0.239767350860953   0.250844454519833   0.594435990787539 1
ion Bi   0.084989646381097   0.077569376481550   0.416847675328572 1
ion Bi   0.245263726508190   0.248039110372961   0.910062638057327 1
ion Bi   0.089744844087064   0.074460334639797   0.783632016922073 1
ion Bi   0.239464566925763   0.593893985700002   0.249973105068007 1
ion Bi   0.087294266684061   0.419140773438796   0.072611954906569 1
ion Bi   0.229523327678100   0.595500549272083   0.590241377254075 1
ion Bi   0.087993933458752   0.417336421077427   0.418270335088509 1
ion Bi   0.233481940680612   0.599724041760419   0.920190724693101 1
ion Bi   0.073988545449980   0.424099749297739   0.754859114862368 1
ion Bi   0.243118729596906   0.916904834653271   0.243491387230805 1
ion Bi   0.094646861493081   0.782202202552544   0.069301958686960 1
ion Bi   0.230264598522850   0.927248006314948   0.598286062840077 1
ion Bi   0.074344876127031   0.758875729314737   0.418773177736047 1
ion Bi   0.295721561660820   0.905560513045747   0.900569507528540 1
ion Bi   0.068725644231570   0.761843496722477   0.758282161535865 1
ion Bi   0.562365286157904   0.261441847091984   0.257751062519869 1
ion Bi   0.413050909535876   0.086243925082294   0.081842899500232 1
ion Bi   0.582873415287903   0.282401264191270   0.571603677836944 1
ion Bi   0.406618229186317   0.090449288581858   0.421759665264285 1
ion Bi   0.567865020993715   0.258309878904550   0.918971162479419 1
ion Bi   0.440299055828902   0.096221658460962   0.729855178427698 1
ion Bi   0.576640045222633   0.579893878541790   0.279737888311320 1
ion Bi   0.406725745018191   0.423912966020543   0.086958547173594 1
ion Bi   0.580430232377248   0.576614649380354   0.569174033548103 1
ion Bi   0.403539993693274   0.426778255370107   0.425767746761385 1
ion Bi   0.577910248028749   0.579485006881702   0.915221886909846 1
ion Bi   0.403225976017812   0.428764963822899   0.757201477889487 1
ion Bi   0.567277795134198   0.924621164014454   0.254156951101168 1
ion Bi   0.434338874992193   0.735377870726643   0.092856270251187 1
ion Bi   0.579621134299908   0.918471723853549   0.575091992201974 1
ion Bi   0.399286196521784   0.766074949529018   0.425862564853875 1
ion Bi   0.580667600314847   0.917070081291774   0.916654668847451 1
ion Bi   0.428632717114424   0.741645289470112   0.736760489673352 1
ion Bi   0.924568549717233   0.236123228902032   0.230357651078573 1
ion Bi   0.735816387375998   0.095999429684347   0.090718256950930 1
ion Bi   0.934380846962441   0.225970187246989   0.606363338992728 1
ion Bi   0.740102371917415   0.098040663765115   0.420283355408322 1
ion Bi   0.893429346587642   0.265179335104965   0.925129184160303 1
ion Bi   0.745284878554101   0.092170943639214   0.751969408402964 1
ion Bi   0.936280851592680   0.605376729226089   0.224428937578481 1
ion Bi   0.736568889477305   0.427226057287673   0.096977756795937 1
ion Bi   0.907488342714159   0.585782740111671   0.580951475608784 1
ion Bi   0.848435869324755   0.385436923327812   0.384384628134770 1
ion Bi   0.899870274513684   0.590578911719507   0.921757536430770 1
ion Bi   0.749292889005152   0.416938671295773   0.743686466423994 1
ion Bi   0.897055316169339   0.928767120303461   0.255877615985321 1
ion Bi   0.745384933220794   0.752658113937262   0.092745013566451 1
ion Bi   0.900156120970018   0.924255781197101   0.586630837720699 1
ion Bi   0.751195279630126   0.748559753050241   0.410423983009713 1
ion Bi   0.898171759144618   0.926931568399491   0.925917567690676 1
ion Bi   0.744762376549708   0.752028736051374   0.749697492824341 1
ion O   0.649341449280188   0.460224180630180   0.448359088478729 1

# Forces in Lattice coordinates:
force Bi  -0.002143498786297  -0.001373715524651  -0.001151681688099 1
force Bi  -0.000213355470555  -0.002536875246022  -0.003914833230396 1
force Bi  -0.001247228197248   0.001502810074170  -0.000671736291510 1
force Bi   0.001734822838624   0.001844235634049  -0.001427399007706 1
force Bi   0.000244649340298   0.002317402757776   0.000715960664643 1
force Bi   0.000643610967236  -0.002186615115138  -0.001414101759203 1
force Bi  -0.001879913580907   0.000823659493811   0.000576659568343 1
force Bi   0.001745547870138   0.000756196564900   0.002836667903431 1
force Bi  -0.001173887508461  -0.000969200700164  -0.000811237800779 1
force Bi   0.000860225049621   0.002585746260917   0.000929416903994 1
force Bi  -0.001718135500880  -0.001922289000713  -0.002068988049697 1
force Bi   0.000791746819395  -0.000660831476524   0.000224469150304 1
force Bi  -0.001172313840329  -0.000847573461765   0.000478052094599 1
force Bi  -0.001787915515863   0.000385569854397  -0.003666667548825 1
force Bi  -0.002422540063120  -0.002472867323063  -0.002416402615063 1
force Bi   0.000713392996057   0.000787120967165  -0.000568336198627 1
force Bi  -0.000558482372487  -0.005680378946549  -0.003501256969341 1
force Bi   0.002957475573613   0.002763090075980   0.003133956160978 1
force Bi   0.002208625831862   0.001194907070693   0.001485203603544 1
force Bi   0.000389179154698   0.001423251070544   0.001603522332820 1
force Bi  -0.003340479680857  -0.002091770427270  -0.000943145348260 1
force Bi   0.000826143902865   0.002565094759329   0.000813389913500 1
force Bi  -0.001043266180700   0.000309276312019  -0.000440846087404 1
force Bi  -0.000912162045145   0.000695910145330   0.001284440974531 1
force Bi   0.001090746508114  -0.001308524376648   0.001242809349943 1
force Bi   0.002812873612972   0.003057261234113   0.003347643057062 1
force Bi   0.001666905158526   0.000874699724850  -0.000210825686011 1
force Bi  -0.002029340388352  -0.000526030137209  -0.000867856230286 1
force Bi  -0.000034601522126   0.002002862786162  -0.000793472597932 1
force Bi   0.001134100619543  -0.001799361721697   0.002233654072697 1
force Bi   0.001008575792871  -0.000879597098409   0.000442334789106 1
force Bi   0.003730925666020   0.000784916111006   0.003297075434389 1
force Bi  -0.000887525593538  -0.001376584125189   0.000556804367576 1
force Bi   0.001073504133877   0.000080445392015  -0.001751606788002 1
force Bi   0.000758758272000   0.000360072359182   0.001008419264012 1
force Bi   0.001404385419792   0.001141986214623   0.001194815537982 1
force Bi  -0.002534744880857  -0.004201563853158  -0.002707570104580 1
force Bi  -0.001381281277522  -0.000584744017623  -0.000772298874540 1
force Bi  -0.004218933481178  -0.000554574459390  -0.003669314479444 1
force Bi  -0.001492955728389  -0.000336147576485  -0.000503253882175 1
force Bi   0.001539003410434  -0.001151103007054  -0.000331719468073 1
force Bi  -0.001711567959664   0.001941384809296   0.001536639402237 1
force Bi   0.001204190525924   0.002292542849156   0.000171601874592 1
force Bi   0.000371278611741  -0.000010582486105   0.000155295303717 1
force Bi  -0.000852505100659  -0.000327673078692   0.001001157768240 1
force Bi   0.003139324661907   0.000644298152614  -0.001773913619125 1
force Bi   0.001290499569453   0.000397791027273   0.000468832844100 1
force Bi   0.000785829256680   0.001092283101043   0.004398472929452 1
force Bi   0.002412756964009  -0.001427598653269   0.002130667895155 1
force Bi   0.000104986794862   0.001914782504404   0.001150535684578 1
force Bi   0.002327482305154   0.001195958675944   0.001766707288023 1
force Bi   0.002176971292124   0.004342413123864   0.002422585728361 1
force Bi  -0.005578723035735  -0.003168252651975  -0.004818161415888 1
force Bi  -0.000667039172777   0.000982157788377  -0.000378339053767 1
force O   0.001361237285814  -0.003551007992274   0.002099809900657 1

# Energy components:
   Eewald =    -2860.6877450644178680
       EH =      932.1909754095668177
     Eloc =    -2966.4164745120933731
      Enl =     1280.2605291463160029
      Exc =    -1739.0068873256373081
 Exc_core =     1112.0876461245486553
       KE =      343.2488408082214733
-------------------------------------
     Etot =    -3898.3231154134959979
       TS =        0.2597272968132679
-------------------------------------
        F =    -3898.5828427103092508

IonicMinimize: Iter:  18  F: -3898.582842710309251  |grad|_K:  7.331e-05  alpha:  1.000e+00  linmin: -3.284e-01  t[s]:  77935.23
IonicMinimize: Converged (|grad|_K<1.000000e-04).

#--- Lowdin population analysis ---
# oxidation-state Bi +0.030 +0.029 +0.043 +0.026 +0.039 +0.027 +0.042 +0.028 +0.038 +0.022 +0.044 +0.039 +0.037 +0.027 +0.045 +0.039 +0.121 +0.038 +0.039 +0.039 +0.237 +0.039 +0.040 -0.007 +0.262 +0.040 +0.268 +0.032 +0.042 +0.034 +0.040 -0.009 +0.042 +0.034 +0.041 -0.009 +0.047 +0.037 +0.052 +0.036 +0.046 +0.033 +0.050 +0.035 +0.039 +0.415 +0.039 +0.029 +0.044 +0.031 +0.039 +0.029 +0.045 +0.038
# oxidation-state O -0.723


Dumping '/data/rc652/Bi/int1/Bi_int1.Ecomponents' ... done
End date and time: Tue Jul  9 01:38:44 2024  (Duration: 0-21:39:24.37)
Done!
