--------------------------------------------------------------------------
[[38455,1],1]: A high-performance Open MPI point-to-point messaging module
was unable to find any relevant network interfaces:

Module: OpenFabrics (openib)
  Host: node3223

Another transport will be used instead, although this may result in
lower performance.
--------------------------------------------------------------------------

*************** JDFTx 1.7.0 (git hash 3664913) ***************

Start date and time: Wed Jul  3 02:47:00 2024
Executable jdftx with command-line: -i Bi_ion.in
Running on hosts (process indices):  node3223.physics.cornell.edu (0-15)
Divided in process groups (process indices):  0 (0)  1 (1)  2 (2)  3 (3)  4 (4)  5 (5)  6 (6)  7 (7)  8 (8)  9 (9)  10 (10)  11 (11)  12 (12)  13 (13)  14 (14)  15 (15)
Resource initialization completed at t[s]:      0.01
Run totals: 16 processes, 32 threads, 0 GPUs


Input parsed successfully to the following command list (including defaults):

basis kpoint-dependent
coords-type Lattice
core-overlap-check vector
coulomb-interaction Periodic
davidson-band-ratio 1.1
dump End Ecomponents
dump-name /data/rc652/Bi/ion/Bi_ion.$VAR
elec-cutoff 20 100
elec-eigen-algo Davidson
elec-ex-corr gga-PBEsol
elec-smearing Fermi 0.01
electronic-minimize  \
	dirUpdateScheme      FletcherReeves \
	linminMethod         DirUpdateRecommended \
	nIterations          100 \
	history              15 \
	knormThreshold       0 \
	maxThreshold         no \
	energyDiffThreshold  1e-08 \
	nEnergyDiff          2 \
	alphaTstart          1 \
	alphaTmin            1e-10 \
	updateTestStepSize   yes \
	alphaTreduceFactor   0.1 \
	alphaTincreaseFactor 3 \
	nAlphaAdjustMax      3 \
	wolfeEnergy          0.0001 \
	wolfeGradient        0.9 \
	fdTest               no
electronic-scf  \
	nIterations	50 \
	energyDiffThreshold	1e-08 \
	residualThreshold	1e-07 \
	mixFraction	0.5 \
	qMetric	0.8 \
	history	10 \
	nEigSteps	2 \
	eigDiffThreshold	1e-08 \
	mixedVariable	Density \
	qKerker	0.8 \
	qKappa	-1 \
	verbose	no \
	mixFractionMag	1.5
exchange-regularization WignerSeitzTruncated
fluid None
fluid-ex-corr lda-TF lda-PZ
fluid-gummel-loop 10 1.000000e-05
fluid-minimize  \
	dirUpdateScheme      PolakRibiere \
	linminMethod         DirUpdateRecommended \
	nIterations          100 \
	history              15 \
	knormThreshold       0 \
	maxThreshold         no \
	energyDiffThreshold  0 \
	nEnergyDiff          2 \
	alphaTstart          1 \
	alphaTmin            1e-10 \
	updateTestStepSize   yes \
	alphaTreduceFactor   0.1 \
	alphaTincreaseFactor 3 \
	nAlphaAdjustMax      3 \
	wolfeEnergy          0.0001 \
	wolfeGradient        0.9 \
	fdTest               no
fluid-solvent H2O 55.338 ScalarEOS \
	epsBulk 78.4 \
	pMol 0.92466 \
	epsInf 1.77 \
	Pvap 1.06736e-10 \
	sigmaBulk 4.62e-05 \
	Rvdw 2.61727 \
	Res 1.42 \
	tauNuc 343133 \
	poleEl 15 7 1
forces-output-coords Positions
ion Bi   0.250570000000000   0.258020000000000   0.234530000000000 1
ion Bi   0.103040000000000   0.094520000000000   0.074230000000000 1
ion Bi   0.247220000000000   0.235910000000000   0.573790000000000 1
ion Bi   0.096750000000000   0.087330000000000   0.423620000000000 1
ion Bi   0.251830000000000   0.240150000000000   0.934120000000000 1
ion Bi   0.098490000000000   0.079100000000000   0.756710000000000 1
ion Bi   0.231340000000000   0.559420000000000   0.250870000000000 1
ion Bi   0.078800000000000   0.410120000000000   0.102570000000000 1
ion Bi   0.241000000000000   0.573600000000000   0.566800000000000 1
ion Bi   0.091760000000000   0.400400000000000   0.424220000000000 1
ion Bi   0.258000000000000   0.577360000000000   0.899180000000000 1
ion Bi   0.108670000000000   0.419730000000000   0.769380000000000 1
ion Bi   0.243790000000000   0.918880000000000   0.256070000000000 1
ion Bi   0.092950000000000   0.759220000000000   0.082320000000000 1
ion Bi   0.243580000000000   0.904750000000000   0.566930000000000 1
ion Bi   0.080760000000000   0.758630000000000   0.430560000000000 1
ion Bi   0.229810000000000   0.905000000000000   0.925230000000000 1
ion Bi   0.082790000000000   0.749040000000000   0.767080000000000 1
ion Bi   0.578660000000000   0.251370000000000   0.235810000000000 1
ion Bi   0.417420000000000   0.087300000000000   0.085600000000000 1
ion Bi   0.578480000000000   0.251930000000000   0.576600000000000 1
ion Bi   0.421010000000000   0.084390000000000   0.417320000000000 1
ion Bi   0.576110000000000   0.238500000000000   0.908090000000000 1
ion Bi   0.416220000000000   0.065990000000000   0.762630000000000 1
ion Bi   0.566600000000000   0.577940000000000   0.222080000000000 1
ion Bi   0.426900000000000   0.436280000000000   0.096330000000000 1
ion Bi   0.592920000000000   0.589460000000000   0.585800000000000 1
ion Bi   0.422030000000000   0.438760000000000   0.415280000000000 1
ion Bi   0.575620000000000   0.591530000000000   0.911630000000000 1
ion Bi   0.423900000000000   0.440330000000000   0.759520000000000 1
ion Bi   0.574040000000000   0.915080000000000   0.234740000000000 1
ion Bi   0.408160000000000   0.748500000000000   0.088630000000000 1
ion Bi   0.587040000000000   0.912220000000000   0.578420000000000 1
ion Bi   0.417020000000000   0.771480000000000   0.401460000000000 1
ion Bi   0.580710000000000   0.938400000000000   0.916760000000000 1
ion Bi   0.437140000000000   0.761810000000000   0.751820000000000 1
ion Bi   0.907470000000000   0.241730000000000   0.240730000000000 1
ion Bi   0.738810000000000   0.098110000000000   0.088110000000000 1
ion Bi   0.903460000000000   0.236370000000000   0.581430000000000 1
ion Bi   0.774800000000000   0.088420000000000   0.429210000000000 1
ion Bi   0.892800000000000   0.247810000000000   0.903270000000000 1
ion Bi   0.750050000000000   0.086300000000000   0.753260000000000 1
ion Bi   0.909220000000000   0.576570000000000   0.238300000000000 1
ion Bi   0.768450000000000   0.431450000000000   0.085590000000000 1
ion Bi   0.909300000000000   0.561810000000000   0.583490000000000 1
ion Bi   0.744990000000000   0.417420000000000   0.402980000000000 1
ion Bi   0.925660000000000   0.581040000000000   0.924540000000000 1
ion Bi   0.757050000000000   0.428690000000000   0.768810000000000 1
ion Bi   0.911610000000000   0.903800000000000   0.257490000000000 1
ion Bi   0.756630000000000   0.755740000000000   0.086890000000000 1
ion Bi   0.909950000000000   0.896190000000000   0.567780000000000 1
ion Bi   0.730530000000000   0.737940000000000   0.422660000000000 1
ion Bi   0.918750000000000   0.921560000000000   0.903710000000000 1
ion Bi   0.754460000000000   0.757350000000000   0.723470000000000 1
ion-species GBRV/$ID_pbesol.uspp
ion-width 0
ionic-minimize  \
	dirUpdateScheme      L-BFGS \
	linminMethod         DirUpdateRecommended \
	nIterations          30 \
	history              15 \
	knormThreshold       0.0001 \
	maxThreshold         no \
	energyDiffThreshold  1e-06 \
	nEnergyDiff          2 \
	alphaTstart          1 \
	alphaTmin            1e-10 \
	updateTestStepSize   yes \
	alphaTreduceFactor   0.1 \
	alphaTincreaseFactor 3 \
	nAlphaAdjustMax      3 \
	wolfeEnergy          0.0001 \
	wolfeGradient        0.9 \
	fdTest               no
kpoint   0.500000000000   0.500000000000   0.500000000000  1.00000000000000
kpoint-folding 3 3 3 
latt-move-scale 1 1 1
latt-scale 1 1 1 
lattice  \
	  22.481092393079685   22.481092393079685   15.481952819880670  \
	 -12.778055096862824   12.778055096862824    0.000000000000000  \
	  -0.282453082909267   -0.282453082909267   20.713932684412821 
lattice-minimize  \
	dirUpdateScheme      L-BFGS \
	linminMethod         DirUpdateRecommended \
	nIterations          0 \
	history              15 \
	knormThreshold       0 \
	maxThreshold         no \
	energyDiffThreshold  1e-06 \
	nEnergyDiff          2 \
	alphaTstart          1 \
	alphaTmin            1e-10 \
	updateTestStepSize   yes \
	alphaTreduceFactor   0.1 \
	alphaTincreaseFactor 3 \
	nAlphaAdjustMax      3 \
	wolfeEnergy          0.0001 \
	wolfeGradient        0.9 \
	fdTest               no
lcao-params -1 1e-06 0.01
pcm-variant GLSSA13
perturb-minimize  \
	nIterations            0 \
	algorithm              MINRES \
	residualTol            0.0001 \
	residualDiffThreshold  0.0001 \
	CGBypass               no \
	recomputeResidual      no
spintype no-spin
subspace-rotation-factor 1 yes
symmetries automatic
symmetry-threshold 0.0001



---------- Setting up symmetries ----------

Non-trivial transmission matrix:
[   1   0   0  ]
[  -1   1   0  ]
[   0  -1   1  ]
with reduced lattice vectors:
[      0.000000      6.999140     15.481953  ]
[    -25.556110     12.778055      0.000000  ]
[      0.000000    -20.996386     20.713933  ]

Found 12 point-group symmetries of the bravais lattice
Found 1 space-group symmetries with basis
Applied RMS atom displacement 0 bohrs to make symmetries exact.

---------- Initializing the Grid ----------
R = 
[      22.4811      22.4811       15.482  ]
[     -12.7781      12.7781            0  ]
[    -0.282453    -0.282453      20.7139  ]
unit cell volume = 12012.5
G =
[   0.138444  -0.245858  -0.103475  ]
[   0.138444   0.245858  -0.103475  ]
[ 0.00377561          0   0.300509  ]
Minimum fftbox size, Smin = [  120  120  120  ]
Chosen fftbox size, S = [  120  120  120  ]

---------- Initializing tighter grid for wavefunction operations ----------
R = 
[      22.4811      22.4811       15.482  ]
[     -12.7781      12.7781            0  ]
[    -0.282453    -0.282453      20.7139  ]
unit cell volume = 12012.5
G =
[   0.138444  -0.245858  -0.103475  ]
[   0.138444   0.245858  -0.103475  ]
[ 0.00377561          0   0.300509  ]
Minimum fftbox size, Smin = [  108  108  108  ]
Chosen fftbox size, S = [  108  108  108  ]

---------- Exchange Correlation functional ----------
Initalized PBEsol GGA exchange.
Initalized PBEsol GGA correlation.

---------- Setting up pseudopotentials ----------
Width of ionic core gaussian charges (only for fluid interactions / plotting) set to 0

Reading pseudopotential file '/home/rc652/build/pseudopotentials/GBRV/bi_pbesol.uspp':
  Title: Bi.  Created by USPP 7.3.6 on 16-12-2017
  Reference state energy: -92.043361.  15 valence electrons in orbitals:
    |520>  occupation: 10  eigenvalue: -1.293232
    |600>  occupation: 2  eigenvalue: -0.815623
    |610>  occupation: 2  eigenvalue: -0.421990
  lMax: 2  lLocal: 3  QijEcut: 5
  6 projectors sampled on a log grid with 747 points:
    l: 0  eig: -0.815622  rCut: 2.5
    l: 0  eig: 0.500000  rCut: 2.5
    l: 1  eig: -0.421989  rCut: 2.5
    l: 1  eig: 1.000000  rCut: 2.5
    l: 2  eig: -1.293232  rCut: 2.3
    l: 2  eig: -0.500000  rCut: 2.3
  Partial core density with radius 1
  Transforming core density to a uniform radial grid of dG=0.02 with 1734 points.
  Transforming local potential to a uniform radial grid of dG=0.02 with 1734 points.
  Transforming nonlocal projectors to a uniform radial grid of dG=0.02 with 432 points.
  Transforming density augmentations to a uniform radial grid of dG=0.02 with 1734 points.
  Transforming atomic orbitals to a uniform radial grid of dG=0.02 with 432 points.
  Core radius for overlap checks: 2.50 bohrs.

Initialized 1 species with 54 total atoms.

Folded 1 k-points by 3x3x3 to 27 k-points.

---------- Setting up k-points, bands, fillings ----------
Adding inversion symmetry to k-mesh for non-inversion-symmetric unit cell.
Reduced to 14 k-points under symmetry. 
Computing the number of bands and number of electrons
Calculating initial fillings.
nElectrons: 810.000000   nBands: 486   nStates: 14

----- Setting up reduced wavefunction bases (one per k-point) -----
average nbasis = 51319.852 , ideal nbasis = 51318.382

---------- Setting up ewald sum ----------
Optimum gaussian width for ewald sums = 4.771323 bohr.
Real space sum over 729 unit cells with max indices [  4  4  4  ]
Reciprocal space sum over 9261 terms with max indices [  10  10  10  ]

---------- Allocating electronic variables ----------
Initializing wave functions:  linear combination of atomic orbitals
Bi pseudo-atom occupations:   s ( 2 )  p ( 3 )  d ( 10 )
	FillingsUpdate:  mu: +0.418331241  nElectrons: 810.000000
LCAOMinimize: Iter:   0  F: -3880.7128661581409688  |grad|_K:  2.439e-04  alpha:  1.000e+00
	FillingsUpdate:  mu: +0.417640727  nElectrons: 810.000000
LCAOMinimize: Iter:   1  F: -3880.7373913566889314  |grad|_K:  1.408e-04  alpha:  2.415e-01  linmin: -1.228e-02  cgtest:  3.688e-02  t[s]:    306.89
	FillingsUpdate:  mu: +0.417707928  nElectrons: 810.000000
LCAOMinimize: Iter:   2  F: -3880.7461898868905337  |grad|_K:  7.894e-05  alpha:  2.616e-01  linmin:  2.176e-03  cgtest: -5.347e-02  t[s]:    415.20
	FillingsUpdate:  mu: +0.417812771  nElectrons: 810.000000
LCAOMinimize: Iter:   3  F: -3880.7489619148268503  |grad|_K:  3.837e-05  alpha:  2.694e-01  linmin:  2.442e-03  cgtest:  3.110e-02  t[s]:    524.24
	FillingsUpdate:  mu: +0.417865477  nElectrons: 810.000000
LCAOMinimize: Iter:   4  F: -3880.7495535274802023  |grad|_K:  9.182e-06  alpha:  2.432e-01  linmin:  6.162e-04  cgtest:  2.979e-02  t[s]:    631.95
	FillingsUpdate:  mu: +0.417877621  nElectrons: 810.000000
LCAOMinimize: Iter:   5  F: -3880.7495844975774162  |grad|_K:  4.481e-06  alpha:  2.214e-01  linmin:  3.196e-05  cgtest:  8.603e-04  t[s]:    742.05
	FillingsUpdate:  mu: +0.417873504  nElectrons: 810.000000
LCAOMinimize: Iter:   6  F: -3880.7495924547652066  |grad|_K:  2.068e-06  alpha:  2.387e-01  linmin:  1.565e-05  cgtest: -9.700e-05  t[s]:    850.56
	FillingsUpdate:  mu: +0.417870432  nElectrons: 810.000000
LCAOMinimize: Iter:   7  F: -3880.7495946805470339  |grad|_K:  1.284e-06  alpha:  3.136e-01  linmin: -1.162e-05  cgtest:  1.366e-04  t[s]:    960.46
	FillingsUpdate:  mu: +0.417870900  nElectrons: 810.000000
LCAOMinimize: Iter:   8  F: -3880.7495954001578866  |grad|_K:  4.744e-07  alpha:  2.631e-01  linmin:  3.069e-05  cgtest: -4.936e-04  t[s]:   1068.42
	FillingsUpdate:  mu: +0.417871643  nElectrons: 810.000000
LCAOMinimize: Iter:   9  F: -3880.7495954856226490  |grad|_K:  2.623e-07  alpha:  2.285e-01  linmin: -4.357e-05  cgtest:  4.736e-04  t[s]:   1176.63
LCAOMinimize: Converged (|Delta F|<1.000000e-06 for 2 iters).


---- Citations for features of the code used in this run ----

   Software package:
      R. Sundararaman, K. Letchworth-Weaver, K.A. Schwarz, D. Gunceler, Y. Ozhabes and T.A. Arias, 'JDFTx: software for joint density-functional theory', SoftwareX 6, 278 (2017)

   gga-PBEsol exchange-correlation functional:
      J.P. Perdew et al., Phys. Rev. Lett. 100, 136406 (2008)

   Pseudopotentials:
      KF Garrity, JW Bennett, KM Rabe and D Vanderbilt, Comput. Mater. Sci. 81, 446 (2014)

This list may not be complete. Please suggest additional citations or
report any other bugs at https://github.com/shankar1729/jdftx/issues

Initialization completed successfully at t[s]:   1215.65


-------- Electronic minimization -----------
Will mix electronic density at each iteration.
	FillingsUpdate:  mu: +0.417871643  nElectrons: 810.000000
	FillingsUpdate:  mu: +0.402808662  nElectrons: 810.000000
SCF: Cycle:  0   F: -3881.995350681986110   dF: -1.246e+00   |Residual|: 4.210e-01   |deigs|: 1.537e-02  t[s]:   1630.32
	FillingsUpdate:  mu: +0.397485611  nElectrons: 810.000000
SCF: Cycle:  1   F: -3882.163554955197469   dF: -1.682e-01   |Residual|: 1.929e-01   |deigs|: 1.900e-02  t[s]:   1961.71
	FillingsUpdate:  mu: +0.393240130  nElectrons: 810.000000
SCF: Cycle:  2   F: -3882.211129678780708   dF: -4.757e-02   |Residual|: 6.491e-02   |deigs|: 1.392e-02  t[s]:   2295.71
	FillingsUpdate:  mu: +0.392792076  nElectrons: 810.000000
SCF: Cycle:  3   F: -3882.211280463685853   dF: -1.508e-04   |Residual|: 2.084e-02   |deigs|: 7.349e-04  t[s]:   2577.49
	FillingsUpdate:  mu: +0.392125812  nElectrons: 810.000000
SCF: Cycle:  4   F: -3882.211746882351235   dF: -4.664e-04   |Residual|: 5.050e-03   |deigs|: 1.783e-03  t[s]:   2838.96
	FillingsUpdate:  mu: +0.392107900  nElectrons: 810.000000
SCF: Cycle:  5   F: -3882.211798892422848   dF: -5.201e-05   |Residual|: 2.333e-03   |deigs|: 7.852e-05  t[s]:   3045.05
	FillingsUpdate:  mu: +0.392084838  nElectrons: 810.000000
SCF: Cycle:  6   F: -3882.211811632764238   dF: -1.274e-05   |Residual|: 2.204e-03   |deigs|: 1.089e-04  t[s]:   3251.38
	FillingsUpdate:  mu: +0.392098453  nElectrons: 810.000000
SCF: Cycle:  7   F: -3882.211822256120740   dF: -1.062e-05   |Residual|: 4.656e-04   |deigs|: 8.688e-05  t[s]:   3453.29
	FillingsUpdate:  mu: +0.392094820  nElectrons: 810.000000
SCF: Cycle:  8   F: -3882.211825938419224   dF: -3.682e-06   |Residual|: 5.865e-04   |deigs|: 1.612e-05  t[s]:   3658.74
	FillingsUpdate:  mu: +0.392096641  nElectrons: 810.000000
SCF: Cycle:  9   F: -3882.211828406291261   dF: -2.468e-06   |Residual|: 2.067e-04   |deigs|: 1.118e-05  t[s]:   3867.47
	FillingsUpdate:  mu: +0.392096532  nElectrons: 810.000000
SCF: Cycle: 10   F: -3882.211829524018412   dF: -1.118e-06   |Residual|: 2.623e-04   |deigs|: 3.796e-06  t[s]:   4074.98
	FillingsUpdate:  mu: +0.392096807  nElectrons: 810.000000
SCF: Cycle: 11   F: -3882.211830242255473   dF: -7.182e-07   |Residual|: 4.914e-05   |deigs|: 2.804e-06  t[s]:   4278.01
	FillingsUpdate:  mu: +0.392096809  nElectrons: 810.000000
SCF: Cycle: 12   F: -3882.211830577419278   dF: -3.352e-07   |Residual|: 1.221e-04   |deigs|: 1.093e-06  t[s]:   4487.19
	FillingsUpdate:  mu: +0.392096745  nElectrons: 810.000000
SCF: Cycle: 13   F: -3882.211830798361461   dF: -2.209e-07   |Residual|: 5.229e-05   |deigs|: 1.020e-06  t[s]:   4688.89
	FillingsUpdate:  mu: +0.392097128  nElectrons: 810.000000
SCF: Cycle: 14   F: -3882.211830905007901   dF: -1.066e-07   |Residual|: 8.654e-05   |deigs|: 2.177e-06  t[s]:   4899.73
	FillingsUpdate:  mu: +0.392097252  nElectrons: 810.000000
SCF: Cycle: 15   F: -3882.211830973704309   dF: -6.870e-08   |Residual|: 8.029e-05   |deigs|: 9.568e-07  t[s]:   5106.85
	FillingsUpdate:  mu: +0.392097737  nElectrons: 810.000000
SCF: Cycle: 16   F: -3882.211831015602911   dF: -4.190e-08   |Residual|: 1.109e-04   |deigs|: 2.743e-06  t[s]:   5315.19
	FillingsUpdate:  mu: +0.392097392  nElectrons: 810.000000
SCF: Cycle: 17   F: -3882.211831040405741   dF: -2.480e-08   |Residual|: 9.415e-05   |deigs|: 1.998e-06  t[s]:   5518.83
	FillingsUpdate:  mu: +0.392096763  nElectrons: 810.000000
SCF: Cycle: 18   F: -3882.211831053494734   dF: -1.309e-08   |Residual|: 1.040e-04   |deigs|: 3.328e-06  t[s]:   5721.61
	FillingsUpdate:  mu: +0.392097165  nElectrons: 810.000000
SCF: Cycle: 19   F: -3882.211831066146715   dF: -1.265e-08   |Residual|: 7.981e-05   |deigs|: 1.874e-06  t[s]:   5927.10
	FillingsUpdate:  mu: +0.392098727  nElectrons: 810.000000
SCF: Cycle: 20   F: -3882.211831058690223   dF: +7.456e-09   |Residual|: 1.605e-04   |deigs|: 8.126e-06  t[s]:   6130.37
	FillingsUpdate:  mu: +0.392099194  nElectrons: 810.000000
SCF: Cycle: 21   F: -3882.211831052451089   dF: +6.239e-09   |Residual|: 1.966e-04   |deigs|: 2.461e-06  t[s]:   6337.16
	FillingsUpdate:  mu: +0.392099142  nElectrons: 810.000000
SCF: Cycle: 22   F: -3882.211831058221833   dF: -5.771e-09   |Residual|: 1.834e-04   |deigs|: 5.045e-07  t[s]:   6545.45
	FillingsUpdate:  mu: +0.392097369  nElectrons: 810.000000
SCF: Cycle: 23   F: -3882.211831080139291   dF: -2.192e-08   |Residual|: 4.042e-05   |deigs|: 9.108e-06  t[s]:   6754.16
	FillingsUpdate:  mu: +0.392097846  nElectrons: 810.000000
SCF: Cycle: 24   F: -3882.211831079305284   dF: +8.340e-10   |Residual|: 5.795e-05   |deigs|: 2.526e-06  t[s]:   6962.24
	FillingsUpdate:  mu: +0.392097179  nElectrons: 810.000000
SCF: Cycle: 25   F: -3882.211831081712262   dF: -2.407e-09   |Residual|: 2.259e-05   |deigs|: 3.551e-06  t[s]:   7169.79
	FillingsUpdate:  mu: +0.392097334  nElectrons: 810.000000
SCF: Cycle: 26   F: -3882.211831082307526   dF: -5.953e-10   |Residual|: 3.890e-06   |deigs|: 8.039e-07  t[s]:   7370.92
SCF: Converged (|Delta E|<1.000000e-08 for 2 iters).

Setting wave functions to eigenvectors of Hamiltonian

# Ionic positions in lattice coordinates:
ion Bi   0.250570000000000   0.258020000000000   0.234530000000000 1
ion Bi   0.103040000000000   0.094520000000000   0.074230000000000 1
ion Bi   0.247220000000000   0.235910000000000   0.573790000000000 1
ion Bi   0.096750000000000   0.087330000000000   0.423620000000000 1
ion Bi   0.251830000000000   0.240150000000000   0.934120000000000 1
ion Bi   0.098490000000000   0.079100000000000   0.756710000000000 1
ion Bi   0.231340000000000   0.559420000000000   0.250870000000000 1
ion Bi   0.078800000000000   0.410120000000000   0.102570000000000 1
ion Bi   0.241000000000000   0.573600000000000   0.566800000000000 1
ion Bi   0.091760000000000   0.400400000000000   0.424220000000000 1
ion Bi   0.258000000000000   0.577360000000000   0.899180000000000 1
ion Bi   0.108670000000000   0.419730000000000   0.769380000000000 1
ion Bi   0.243790000000000   0.918880000000000   0.256070000000000 1
ion Bi   0.092950000000000   0.759220000000000   0.082320000000000 1
ion Bi   0.243580000000000   0.904750000000000   0.566930000000000 1
ion Bi   0.080760000000000   0.758630000000000   0.430560000000000 1
ion Bi   0.229810000000000   0.905000000000000   0.925230000000000 1
ion Bi   0.082790000000000   0.749040000000000   0.767080000000000 1
ion Bi   0.578660000000000   0.251370000000000   0.235810000000000 1
ion Bi   0.417420000000000   0.087300000000000   0.085600000000000 1
ion Bi   0.578480000000000   0.251930000000000   0.576600000000000 1
ion Bi   0.421010000000000   0.084390000000000   0.417320000000000 1
ion Bi   0.576110000000000   0.238500000000000   0.908090000000000 1
ion Bi   0.416220000000000   0.065990000000000   0.762630000000000 1
ion Bi   0.566600000000000   0.577940000000000   0.222080000000000 1
ion Bi   0.426900000000000   0.436280000000000   0.096330000000000 1
ion Bi   0.592920000000000   0.589460000000000   0.585800000000000 1
ion Bi   0.422030000000000   0.438760000000000   0.415280000000000 1
ion Bi   0.575620000000000   0.591530000000000   0.911630000000000 1
ion Bi   0.423900000000000   0.440330000000000   0.759520000000000 1
ion Bi   0.574040000000000   0.915080000000000   0.234740000000000 1
ion Bi   0.408160000000000   0.748500000000000   0.088630000000000 1
ion Bi   0.587040000000000   0.912220000000000   0.578420000000000 1
ion Bi   0.417020000000000   0.771480000000000   0.401460000000000 1
ion Bi   0.580710000000000   0.938400000000000   0.916760000000000 1
ion Bi   0.437140000000000   0.761810000000000   0.751820000000000 1
ion Bi   0.907470000000000   0.241730000000000   0.240730000000000 1
ion Bi   0.738810000000000   0.098110000000000   0.088110000000000 1
ion Bi   0.903460000000000   0.236370000000000   0.581430000000000 1
ion Bi   0.774800000000000   0.088420000000000   0.429210000000000 1
ion Bi   0.892800000000000   0.247810000000000   0.903270000000000 1
ion Bi   0.750050000000000   0.086300000000000   0.753260000000000 1
ion Bi   0.909220000000000   0.576570000000000   0.238300000000000 1
ion Bi   0.768450000000000   0.431450000000000   0.085590000000000 1
ion Bi   0.909300000000000   0.561810000000000   0.583490000000000 1
ion Bi   0.744990000000000   0.417420000000000   0.402980000000000 1
ion Bi   0.925660000000000   0.581040000000000   0.924540000000000 1
ion Bi   0.757050000000000   0.428690000000000   0.768810000000000 1
ion Bi   0.911610000000000   0.903800000000000   0.257490000000000 1
ion Bi   0.756630000000000   0.755740000000000   0.086890000000000 1
ion Bi   0.909950000000000   0.896190000000000   0.567780000000000 1
ion Bi   0.730530000000000   0.737940000000000   0.422660000000000 1
ion Bi   0.918750000000000   0.921560000000000   0.903710000000000 1
ion Bi   0.754460000000000   0.757350000000000   0.723470000000000 1

# Forces in Lattice coordinates:
force Bi   0.346310987842485   0.087737999089100   0.453584013748063 1
force Bi  -0.657087202246659  -0.663605296693529  -0.243232634795344 1
force Bi   0.558038616780724   0.496977474452970   0.484503022826441 1
force Bi  -0.459833058158404  -0.017302250932541  -0.556206136461440 1
force Bi   0.345782316947896   0.274759688145234  -0.272908160390230 1
force Bi  -0.549477053723114  -0.207594988470176  -0.476384967762814 1
force Bi   0.472886467015701   1.070255069031017   0.821604334802537 1
force Bi  -0.056672077757708  -0.129085135062039  -0.461502571014899 1
force Bi   0.748774823444528   0.963752023093227   0.967633956992158 1
force Bi  -0.671066862537888  -0.457523100830014  -0.291367601983770 1
force Bi  -0.032221943477627   0.818413918532668   1.120223922268135 1
force Bi  -0.761172319890693  -0.600158023259489  -0.379124264784420 1
force Bi  -0.289904302940830  -0.261790306456616  -0.349204125605191 1
force Bi  -1.067588735550127  -0.885635937384484  -0.084737805435457 1
force Bi   0.591046289104312   0.417193113932238   0.856522465139066 1
force Bi  -0.245407837556933  -1.002253853225669  -1.419245335320063 1
force Bi   1.088606998519978   0.929682406121503   0.315363013693103 1
force Bi  -0.103519661759225  -0.069300789732240  -0.365968273061432 1
force Bi   0.500142826503470   0.262709299220832   0.805739036835993 1
force Bi  -0.114141527032553  -0.029002188923621   0.026282512933336 1
force Bi  -0.166197506115819  -0.081444529817629   0.186306843513916 1
force Bi  -0.071863281764783  -0.142833738793351  -0.207822572763104 1
force Bi   0.433813353548612   0.448944786081831   0.452162278083405 1
force Bi   0.253954296495582   0.354964626374610   0.177922074755990 1
force Bi   0.940511169577389   1.057504905286532   0.882693867004816 1
force Bi  -0.614378805881019  -0.882633076348997  -1.115563670359020 1
force Bi  -0.907678850182744  -0.931772910456084  -0.256101294033069 1
force Bi  -0.597716446025206  -1.207334789038057  -0.550385187400025 1
force Bi   0.560788086200662   0.434674033409719   0.552576835160015 1
force Bi  -0.285294372925746  -1.049815617069207  -1.248927036261065 1
force Bi   0.527897960890248   0.436225891860306   0.459975570624124 1
force Bi  -0.196532972901235   0.396105378734578  -0.163069904139107 1
force Bi   0.110672810523835   0.318517663932406  -0.251211107949489 1
force Bi   0.037570159157071  -0.656419426225407   0.016111286657561 1
force Bi  -0.587725777028714  -0.861396686488483  -0.534190721072060 1
force Bi  -0.805839214140521  -0.484396485943090  -0.490660266144287 1
force Bi   0.865428844844645   0.543860022119318   0.374570940916180 1
force Bi  -0.026419547530593  -0.436730564758372  -0.128941563199117 1
force Bi   0.229661009300493   0.550493058487134   0.070308644059232 1
force Bi  -1.375528346084248  -0.468827702384298  -0.858501812721589 1
force Bi   1.392568539593709   0.129427529492074   1.168876464971141 1
force Bi  -0.096817365531100  -0.259348697057032  -0.230276043162032 1
force Bi   0.274006040261858   0.378476628908971   0.594378031921891 1
force Bi  -0.587030994574788  -0.809816417809137  -0.939319616420617 1
force Bi   0.559811021010579   0.693937936323755  -0.013750658041217 1
force Bi   0.291081564402238   0.277589047258787   0.392642272163173 1
force Bi  -0.143558339385553   0.024014336886973  -0.340430703967458 1
force Bi  -1.519796609124272  -0.607715072615514  -1.176670655194810 1
force Bi  -0.182948555873065  -0.042308678287883  -0.157335183042085 1
force Bi  -0.163293050021563  -0.114211995083954  -0.323645150186925 1
force Bi   1.155586942374066   1.296898735036308   1.849952470922521 1
force Bi   1.084329952415096   0.946431620450712   0.089673512279574 1
force Bi  -0.043017081014715  -0.022906683683232   0.190793599590325 1
force Bi   0.013257563673759  -0.225930378682670   0.577887869909649 1

# Energy components:
   Eewald =    -2807.9971259106064281
       EH =      964.5364183739551436
     Eloc =    -3030.4645825477323342
      Enl =     1278.6145142647797002
      Exc =    -1736.2309534737601098
 Exc_core =     1112.0248627777741603
       KE =      337.5214692448337246
-------------------------------------
     Etot =    -3881.9953972707571666
       TS =        0.2164338115502896
-------------------------------------
        F =    -3882.2118310823075262

IonicMinimize: Iter:   0  F: -3882.211831082307526  |grad|_K:  2.079e-02  t[s]:   7420.87

#--- Lowdin population analysis ---
# oxidation-state Bi +0.043 +0.037 +0.039 +0.029 +0.056 +0.049 +0.051 +0.052 +0.048 +0.061 +0.023 +0.027 +0.043 +0.047 +0.035 +0.065 +0.066 +0.050 +0.037 +0.071 +0.034 +0.035 +0.047 +0.021 +0.048 +0.041 +0.032 +0.056 +0.068 +0.039 +0.045 +0.009 +0.054 +0.040 +0.041 +0.042 +0.065 +0.038 +0.020 +0.049 +0.048 +0.056 +0.030 +0.046 +0.025 +0.037 +0.043 +0.057 -0.004 +0.037 +0.061 +0.061 +0.041 +0.021


-------- Electronic minimization -----------
Will mix electronic density at each iteration.
	FillingsUpdate:  mu: +0.392097334  nElectrons: 810.000000
	FillingsUpdate:  mu: +0.392053986  nElectrons: 810.000000
SCF: Cycle:  0   F: -3881.937433159393095   dF: -3.172e-01   |Residual|: 2.482e-01   |deigs|: 1.018e-03  t[s]:   7884.88
	FillingsUpdate:  mu: +0.392061748  nElectrons: 810.000000
SCF: Cycle:  1   F: -3882.208281835014077   dF: -2.708e-01   |Residual|: 1.315e-01   |deigs|: 2.417e-03  t[s]:   8221.26
	FillingsUpdate:  mu: +0.392040100  nElectrons: 810.000000
SCF: Cycle:  2   F: -3882.275550218704666   dF: -6.727e-02   |Residual|: 2.381e-02   |deigs|: 8.401e-04  t[s]:   8555.87
	FillingsUpdate:  mu: +0.391974383  nElectrons: 810.000000
SCF: Cycle:  3   F: -3882.276328304285926   dF: -7.781e-04   |Residual|: 9.679e-03   |deigs|: 2.705e-04  t[s]:   8824.57
	FillingsUpdate:  mu: +0.391947208  nElectrons: 810.000000
SCF: Cycle:  4   F: -3882.276426537206135   dF: -9.823e-05   |Residual|: 3.091e-03   |deigs|: 3.831e-05  t[s]:   9031.05
	FillingsUpdate:  mu: +0.391941266  nElectrons: 810.000000
SCF: Cycle:  5   F: -3882.276437386281941   dF: -1.085e-05   |Residual|: 1.344e-03   |deigs|: 1.420e-05  t[s]:   9236.13
	FillingsUpdate:  mu: +0.391937447  nElectrons: 810.000000
SCF: Cycle:  6   F: -3882.276441783276823   dF: -4.397e-06   |Residual|: 4.061e-04   |deigs|: 4.949e-06  t[s]:   9439.26
	FillingsUpdate:  mu: +0.391936270  nElectrons: 810.000000
SCF: Cycle:  7   F: -3882.276442809724813   dF: -1.026e-06   |Residual|: 1.642e-04   |deigs|: 4.035e-06  t[s]:   9643.06
	FillingsUpdate:  mu: +0.391935946  nElectrons: 810.000000
SCF: Cycle:  8   F: -3882.276443226531228   dF: -4.168e-07   |Residual|: 1.017e-04   |deigs|: 5.985e-07  t[s]:   9847.08
	FillingsUpdate:  mu: +0.391935752  nElectrons: 810.000000
SCF: Cycle:  9   F: -3882.276443442372511   dF: -2.158e-07   |Residual|: 5.147e-05   |deigs|: 8.793e-07  t[s]:  10051.93
	FillingsUpdate:  mu: +0.391935795  nElectrons: 810.000000
SCF: Cycle: 10   F: -3882.276443546435985   dF: -1.041e-07   |Residual|: 4.334e-05   |deigs|: 4.359e-07  t[s]:  10254.36
	FillingsUpdate:  mu: +0.391935772  nElectrons: 810.000000
SCF: Cycle: 11   F: -3882.276443604578162   dF: -5.814e-08   |Residual|: 1.894e-05   |deigs|: 1.681e-07  t[s]:  10461.62
	FillingsUpdate:  mu: +0.391935783  nElectrons: 810.000000
SCF: Cycle: 12   F: -3882.276443636120348   dF: -3.154e-08   |Residual|: 2.259e-05   |deigs|: 1.301e-07  t[s]:  10663.13
	FillingsUpdate:  mu: +0.391935771  nElectrons: 810.000000
SCF: Cycle: 13   F: -3882.276443655628555   dF: -1.951e-08   |Residual|: 9.201e-06   |deigs|: 1.436e-07  t[s]:  10869.05
	FillingsUpdate:  mu: +0.391935766  nElectrons: 810.000000
SCF: Cycle: 14   F: -3882.276443667244166   dF: -1.162e-08   |Residual|: 8.654e-06   |deigs|: 1.034e-07  t[s]:  11079.90
	FillingsUpdate:  mu: +0.391935766  nElectrons: 810.000000
SCF: Cycle: 15   F: -3882.276443674346865   dF: -7.103e-09   |Residual|: 6.975e-06   |deigs|: 9.269e-08  t[s]:  11285.95
	FillingsUpdate:  mu: +0.391935765  nElectrons: 810.000000
SCF: Cycle: 16   F: -3882.276443679125805   dF: -4.779e-09   |Residual|: 2.667e-06   |deigs|: 9.156e-08  t[s]:  11493.16
SCF: Converged (|Delta E|<1.000000e-08 for 2 iters).

Setting wave functions to eigenvectors of Hamiltonian

# Ionic positions in lattice coordinates:
ion Bi   0.250943007285743   0.257601325526116   0.235231571777601 1
ion Bi   0.102238869694311   0.093699042765002   0.074696262667367 1
ion Bi   0.247736541117478   0.236239689798173   0.574081424879867 1
ion Bi   0.096142020093157   0.088077292682382   0.422716969524120 1
ion Bi   0.252619570235503   0.240722214364902   0.933015054157273 1
ion Bi   0.097762479935765   0.079419541022607   0.756206373722130 1
ion Bi   0.230956718109384   0.560866142569981   0.251554647166563 1
ion Bi   0.079127612874000   0.410225999165208   0.101657989010698 1
ion Bi   0.241217295670040   0.574475742468010   0.567687564974072 1
ion Bi   0.090804570158477   0.400098627412647   0.424427371188261 1
ion Bi   0.256424887111593   0.578389878968039   0.901134030896204 1
ion Bi   0.107686841758998   0.419240040714959   0.769566835311952 1
ion Bi   0.243599819019765   0.918776044173844   0.255698295866926 1
ion Bi   0.091258912428096   0.758086230287970   0.083638713545753 1
ion Bi   0.243945746877556   0.904583498276394   0.568108768892121 1
ion Bi   0.082073697035779   0.757626179232779   0.428279182208459 1
ion Bi   0.231336286579331   0.906039753014789   0.924388489585511 1
ion Bi   0.082890152587755   0.749245072390430   0.766376537455961 1
ion Bi   0.578976736180013   0.250959788713650   0.237062615634895 1
ion Bi   0.417160879940198   0.087301730885633   0.085770961002671 1
ion Bi   0.578018471599705   0.251728139409099   0.577217995248169 1
ion Bi   0.421117052084104   0.084279855976462   0.417010778652386 1
ion Bi   0.576404576252827   0.238841045564341   0.908440833217805 1
ion Bi   0.416388242587090   0.066467694460086   0.762565480976769 1
ion Bi   0.567249132251168   0.578947529291561   0.222552149602009 1
ion Bi   0.427041741239572   0.435600412985377   0.094937055976286 1
ion Bi   0.591763195098351   0.588229546186502   0.586638554805464 1
ion Bi   0.422023633984640   0.436886963964654   0.415418641253194 1
ion Bi   0.576138362835756   0.591662303311010   0.912123285941313 1
ion Bi   0.425027379033378   0.439116357770196   0.757696563623552 1
ion Bi   0.574553625389667   0.915313035792831   0.235045698147448 1
ion Bi   0.407529809934783   0.749684749191218   0.088102350115034 1
ion Bi   0.587240988994258   0.913057594772588   0.577512878428774 1
ion Bi   0.417601728033049   0.769936692266419   0.401976083105143 1
ion Bi   0.580446050944764   0.937298135593614   0.916660055942278 1
ion Bi   0.436051378860111   0.761705849608930   0.751696602640942 1
ion Bi   0.908738625926367   0.242014035241584   0.240495565101068 1
ion Bi   0.739187530921610   0.097231189546692   0.088173650602899 1
ion Bi   0.903504580981059   0.237397181678732   0.580986672474532 1
ion Bi   0.772680827759902   0.089077503934072   0.428674158991962 1
ion Bi   0.894980457080805   0.246122537972987   0.904765524249051 1
ion Bi   0.750207580133512   0.085960001835938   0.753008964146631 1
ion Bi   0.909093401107532   0.576763449154238   0.239154527720783 1
ion Bi   0.768461432854439   0.430779341529020   0.084522704923007 1
ion Bi   0.910053921154834   0.562974784256131   0.582487600873920 1
ion Bi   0.745136822377322   0.417525638029575   0.403437894416658 1
ion Bi   0.925576509624973   0.581469791971971   0.923853705298349 1
ion Bi   0.754954715592310   0.429387869399724   0.767765519964126 1
ion Bi   0.911345961233213   0.903966768646257   0.257304463492328 1
ion Bi   0.756595405128194   0.755855836634580   0.086364434862360 1
ion Bi   0.910156743867541   0.896829608851811   0.570113132091553 1
ion Bi   0.732208307306961   0.739196161385929   0.421292490359280 1
ion Bi   0.918521481188042   0.921393197329181   0.904197535357427 1
ion Bi   0.754217681945220   0.756375362023175   0.724956787929097 1

# Forces in Lattice coordinates:
force Bi   0.309922378164366   0.079212522985703   0.410425677014925 1
force Bi  -0.577543313563611  -0.577026121045522  -0.230109399958936 1
force Bi   0.507509292414319   0.466726345694651   0.443792364691677 1
force Bi  -0.396719357716199  -0.034114338385895  -0.484469012466140 1
force Bi   0.269611392667543   0.203766819633829  -0.278113289177952 1
force Bi  -0.499438167581773  -0.193509819557141  -0.441518589080018 1
force Bi   0.464379613953581   0.939385425291091   0.726153468457248 1
force Bi  -0.020889127622478  -0.085637163661493  -0.407830368543856 1
force Bi   0.706459673620563   0.860390954702922   0.875364232245586 1
force Bi  -0.589561025362888  -0.396810207240683  -0.257381020594202 1
force Bi  -0.006879912268152   0.609180232898245   0.895149543844596 1
force Bi  -0.722273411990720  -0.560835038459711  -0.387384419664850 1
force Bi  -0.258851386114067  -0.246286878832764  -0.317778422796813 1
force Bi  -0.879829964013548  -0.705996527096345  -0.098405745175866 1
force Bi   0.525981439024696   0.389363448720582   0.743611638697474 1
force Bi  -0.271641598899101  -0.794696038416437  -1.168863611932460 1
force Bi   0.871310095892947   0.737088407342938   0.281035038006230 1
force Bi  -0.083094934507552  -0.054110231217599  -0.336848623006746 1
force Bi   0.443531664711188   0.242618633075932   0.715135461944142 1
force Bi  -0.089410481838613  -0.028594195800751   0.027630492901584 1
force Bi  -0.156055407592160  -0.071784470582878   0.178820481393953 1
force Bi  -0.066194574764490  -0.124340666599966  -0.185394156647367 1
force Bi   0.403801628028495   0.415109449741101   0.416821551099261 1
force Bi   0.236644969213462   0.343783166193695   0.159567747809110 1
force Bi   0.850367944201597   0.948308538931801   0.815869838482644 1
force Bi  -0.579204932645482  -0.795401342172999  -0.974070458483975 1
force Bi  -0.755335808117943  -0.769809172088486  -0.279678621962627 1
force Bi  -0.548392608576206  -1.063069676906277  -0.496108081340171 1
force Bi   0.498165039089105   0.395183421860642   0.496824598767758 1
force Bi  -0.329076541057009  -0.862882188268165  -1.023867065889503 1
force Bi   0.473181625932201   0.383825443200732   0.427510835744016 1
force Bi  -0.144928417110145   0.377543110461350  -0.111997170791430 1
force Bi   0.092784829070525   0.270617359296239  -0.224317373158098 1
force Bi   0.046981947668683  -0.584811299319679   0.038056618884738 1
force Bi  -0.553896032449287  -0.822341176825070  -0.501426216243348 1
force Bi  -0.720062215020517  -0.441979204910646  -0.449721979210451 1
force Bi   0.773915742206098   0.490810343842643   0.364116061895590 1
force Bi  -0.004920495449662  -0.384940564153091  -0.099352262887217 1
force Bi   0.205047952366746   0.512604492050492   0.072190132861115 1
force Bi  -1.204732143530274  -0.472478658756346  -0.759183472912127 1
force Bi   1.155229685130132   0.199442396295471   0.948626193677359 1
force Bi  -0.082995820744042  -0.231945905056024  -0.201887479089129 1
force Bi   0.254770667733449   0.343732403310152   0.538984078117072 1
force Bi  -0.555552707927836  -0.746100458741129  -0.852200621059280 1
force Bi   0.482254620834267   0.616349003144469   0.005695270692022 1
force Bi   0.269334924471991   0.264089022924248   0.378115422166971 1
force Bi  -0.166831441409059  -0.001108454545713  -0.337300412467199 1
force Bi  -1.233685611831273  -0.611924521084472  -0.972844384781800 1
force Bi  -0.182382975992788  -0.034248558618556  -0.148795278338186 1
force Bi  -0.149026690289929  -0.105737852292492  -0.289939518191990 1
force Bi   1.039372491301537   1.096033693105213   1.518423598146784 1
force Bi   0.950101589709949   0.811080783174988   0.120152869790624 1
force Bi  -0.049981899929008  -0.026996084177931   0.170834944426439 1
force Bi   0.049040861716135  -0.168881779707014   0.546828343139708 1

# Energy components:
   Eewald =    -2812.5517057065062545
       EH =      960.2992173911917462
     Eloc =    -3021.5409015994596302
      Enl =     1278.5164322891728261
      Exc =    -1736.1366754225687146
 Exc_core =     1112.0248387733372510
       KE =      337.3276231970493200
-------------------------------------
     Etot =    -3882.0611710777830012
       TS =        0.2152726013427838
-------------------------------------
        F =    -3882.2764436791258049

IonicMinimize: Iter:   1  F: -3882.276443679125805  |grad|_K:  1.770e-02  alpha:  1.000e+00  linmin: -9.966e-01  t[s]:  11543.24

#--- Lowdin population analysis ---
# oxidation-state Bi +0.043 +0.037 +0.039 +0.029 +0.056 +0.048 +0.049 +0.052 +0.046 +0.061 +0.024 +0.027 +0.043 +0.046 +0.035 +0.064 +0.065 +0.050 +0.037 +0.070 +0.034 +0.036 +0.046 +0.022 +0.046 +0.039 +0.033 +0.054 +0.068 +0.039 +0.045 +0.012 +0.052 +0.039 +0.039 +0.040 +0.063 +0.038 +0.021 +0.047 +0.046 +0.055 +0.030 +0.044 +0.024 +0.037 +0.044 +0.055 -0.001 +0.038 +0.057 +0.061 +0.041 +0.022


-------- Electronic minimization -----------
Will mix electronic density at each iteration.
	FillingsUpdate:  mu: +0.391935765  nElectrons: 810.000000
	FillingsUpdate:  mu: +0.391847575  nElectrons: 810.000000
SCF: Cycle:  0   F: -3881.546878482510692   dF: -7.540e-01   |Residual|: 3.793e-01   |deigs|: 2.256e-03  t[s]:  12006.13
	FillingsUpdate:  mu: +0.391762669  nElectrons: 810.000000
SCF: Cycle:  1   F: -3882.195625944411859   dF: -6.487e-01   |Residual|: 2.016e-01   |deigs|: 5.071e-03  t[s]:  12335.94
	FillingsUpdate:  mu: +0.391788197  nElectrons: 810.000000
SCF: Cycle:  2   F: -3882.354633587302033   dF: -1.590e-01   |Residual|: 3.664e-02   |deigs|: 8.871e-04  t[s]:  12669.36
	FillingsUpdate:  mu: +0.391698930  nElectrons: 810.000000
SCF: Cycle:  3   F: -3882.356539500925464   dF: -1.906e-03   |Residual|: 1.491e-02   |deigs|: 4.234e-04  t[s]:  12944.18
	FillingsUpdate:  mu: +0.391665014  nElectrons: 810.000000
SCF: Cycle:  4   F: -3882.356749218793993   dF: -2.097e-04   |Residual|: 4.996e-03   |deigs|: 4.496e-05  t[s]:  13192.99
	FillingsUpdate:  mu: +0.391654654  nElectrons: 810.000000
SCF: Cycle:  5   F: -3882.356774645717451   dF: -2.543e-05   |Residual|: 1.889e-03   |deigs|: 2.396e-05  t[s]:  13398.23
	FillingsUpdate:  mu: +0.391649621  nElectrons: 810.000000
SCF: Cycle:  6   F: -3882.356784949891789   dF: -1.030e-05   |Residual|: 5.809e-04   |deigs|: 6.902e-06  t[s]:  13600.26
	FillingsUpdate:  mu: +0.391647561  nElectrons: 810.000000
SCF: Cycle:  7   F: -3882.356787175490354   dF: -2.226e-06   |Residual|: 2.659e-04   |deigs|: 6.611e-06  t[s]:  13803.82
	FillingsUpdate:  mu: +0.391647144  nElectrons: 810.000000
SCF: Cycle:  8   F: -3882.356788168186540   dF: -9.927e-07   |Residual|: 1.461e-04   |deigs|: 1.152e-06  t[s]:  14007.94
	FillingsUpdate:  mu: +0.391646813  nElectrons: 810.000000
SCF: Cycle:  9   F: -3882.356788699630670   dF: -5.314e-07   |Residual|: 8.152e-05   |deigs|: 1.609e-06  t[s]:  14212.43
	FillingsUpdate:  mu: +0.391646881  nElectrons: 810.000000
SCF: Cycle: 10   F: -3882.356788960448284   dF: -2.608e-07   |Residual|: 6.831e-05   |deigs|: 8.193e-07  t[s]:  14421.86
	FillingsUpdate:  mu: +0.391646827  nElectrons: 810.000000
SCF: Cycle: 11   F: -3882.356789114111507   dF: -1.537e-07   |Residual|: 3.030e-05   |deigs|: 4.665e-07  t[s]:  14623.44
	FillingsUpdate:  mu: +0.391646851  nElectrons: 810.000000
SCF: Cycle: 12   F: -3882.356789199892773   dF: -8.578e-08   |Residual|: 3.727e-05   |deigs|: 2.262e-07  t[s]:  14829.76
	FillingsUpdate:  mu: +0.391646830  nElectrons: 810.000000
SCF: Cycle: 13   F: -3882.356789254893556   dF: -5.500e-08   |Residual|: 1.532e-05   |deigs|: 2.874e-07  t[s]:  15034.83
	FillingsUpdate:  mu: +0.391646828  nElectrons: 810.000000
SCF: Cycle: 14   F: -3882.356789288432992   dF: -3.354e-08   |Residual|: 1.712e-05   |deigs|: 1.761e-07  t[s]:  15240.81
	FillingsUpdate:  mu: +0.391646827  nElectrons: 810.000000
SCF: Cycle: 15   F: -3882.356789310183558   dF: -2.175e-08   |Residual|: 1.112e-05   |deigs|: 1.768e-07  t[s]:  15443.67
	FillingsUpdate:  mu: +0.391646830  nElectrons: 810.000000
SCF: Cycle: 16   F: -3882.356789324280726   dF: -1.410e-08   |Residual|: 7.765e-06   |deigs|: 1.642e-07  t[s]:  15646.08
	FillingsUpdate:  mu: +0.391646829  nElectrons: 810.000000
SCF: Cycle: 17   F: -3882.356789333416600   dF: -9.136e-09   |Residual|: 7.933e-06   |deigs|: 1.644e-07  t[s]:  15848.92
	FillingsUpdate:  mu: +0.391646833  nElectrons: 810.000000
SCF: Cycle: 18   F: -3882.356789339255101   dF: -5.839e-09   |Residual|: 5.084e-06   |deigs|: 1.599e-07  t[s]:  16053.25
SCF: Converged (|Delta E|<1.000000e-08 for 2 iters).

Setting wave functions to eigenvectors of Hamiltonian

# Ionic positions in lattice coordinates:
ion Bi   0.251586823205088   0.256829927505661   0.236575530018715 1
ion Bi   0.100948434200100   0.092522203768962   0.075158731756968 1
ion Bi   0.248621954014061   0.237113247809051   0.574609044367166 1
ion Bi   0.095334320239999   0.088934792917187   0.421340494025697 1
ion Bi   0.253799737700950   0.241455764321011   0.930909344890872 1
ion Bi   0.096448043047414   0.079998054268325   0.755120815993770 1
ion Bi   0.231150751359345   0.562967659745022   0.252497485832901 1
ion Bi   0.080035659969717   0.410734760585701   0.099744966302695 1
ion Bi   0.242205618861273   0.575750866303296   0.569254374531424 1
ion Bi   0.089174833606808   0.399690524740453   0.424721379073489 1
ion Bi   0.255333249234054   0.578595860857120   0.903384356054752 1
ion Bi   0.105614583884337   0.418467554489764   0.769445598561993 1
ion Bi   0.243369117869749   0.918405324891964   0.255001736145041 1
ion Bi   0.089147866281060   0.757241782499723   0.084663218882332 1
ion Bi   0.244596371681037   0.904717673887880   0.569760760038211 1
ion Bi   0.082326016369391   0.757314313046781   0.425634652550131 1
ion Bi   0.232860385200189   0.906872327536723   0.924022143195964 1
ion Bi   0.083247591859637   0.749753885510084   0.764836949828021 1
ion Bi   0.579469042566437   0.250409692910972   0.239203254374351 1
ion Bi   0.416907426087056   0.087158658892245   0.086092557539241 1
ion Bi   0.576976983383610   0.251354420407400   0.578585181363453 1
ion Bi   0.421253507483792   0.084149869698842   0.416452729093122 1
ion Bi   0.577059287849949   0.239527439829700   0.909117453832846 1
ion Bi   0.416700015974898   0.067732819016212   0.762244072604194 1
ion Bi   0.568410102990729   0.580597862812667   0.223798584985138 1
ion Bi   0.426670603202605   0.434305330191250   0.093052155524725 1
ion Bi   0.590591297015609   0.587091277027627   0.586549003891330 1
ion Bi   0.421693156399157   0.433907050613012   0.415583888785641 1
ion Bi   0.576960483109780   0.592018725859605   0.913041428282785 1
ion Bi   0.424757405346960   0.438148421777752   0.756030315752192 1
ion Bi   0.575440532103555   0.915520677240094   0.235912049159234 1
ion Bi   0.406595143150711   0.751846767980810   0.087423403768184 1
ion Bi   0.587577525154288   0.914353388427374   0.576004479201108 1
ion Bi   0.418732328643894   0.766972407656092   0.403229743804559 1
ion Bi   0.579923231039967   0.934707012927497   0.916541151337568 1
ion Bi   0.434215798036209   0.761425432169354   0.751331104959329 1
ion Bi   0.910826623997171   0.242431552469372   0.240558633741050 1
ion Bi   0.740068819288881   0.095539222076942   0.088424387946201 1
ion Bi   0.903403161939871   0.239553289112729   0.580232274942156 1
ion Bi   0.769570355304588   0.089127187615171   0.428023901146697 1
ion Bi   0.897407323243564   0.245660191369807   0.905803053798385 1
ion Bi   0.750530960841669   0.085301515277439   0.752606316477599 1
ion Bi   0.908960609189094   0.577103057797111   0.240737467918700 1
ion Bi   0.768147693766287   0.429439816802742   0.082696153891770 1
ion Bi   0.911009188458537   0.565003774636959   0.581130479212413 1
ion Bi   0.745305673083601   0.417780711352524   0.404590024685600 1
ion Bi   0.925080389936137   0.582272509162792   0.922402003573737 1
ion Bi   0.753314086129787   0.428226406715553   0.766938449927483 1
ion Bi   0.910566953626996   0.904490594792325   0.256918287588528 1
ion Bi   0.756504971271111   0.756022673719112   0.085447152693583 1
ion Bi   0.911821645908899   0.897636473986289   0.572276909214467 1
ion Bi   0.734863340542514   0.740720916718585   0.419854703837830 1
ion Bi   0.917944759575841   0.921045518233967   0.905187945619207 1
ion Bi   0.754058215772035   0.754800808037369   0.727747713475452 1

# Forces in Lattice coordinates:
force Bi   0.244193727685242   0.057920237109061   0.328896492559549 1
force Bi  -0.465839449031574  -0.451853124121620  -0.191799341498953 1
force Bi   0.412475133843688   0.399396200807649   0.370490325532987 1
force Bi  -0.318454991134415  -0.046369064806368  -0.382810964051613 1
force Bi   0.171903453466573   0.117965359415775  -0.278222884049763 1
force Bi  -0.404253512648338  -0.155413854345547  -0.369019984881923 1
force Bi   0.408482823974710   0.749272990776044   0.583653499059352 1
force Bi   0.022213622751281  -0.026261472366294  -0.320891882299220 1
force Bi   0.585199520472296   0.692724480736040   0.706059719463536 1
force Bi  -0.449245734415213  -0.283382168164265  -0.194648092487111 1
force Bi  -0.005883913633204   0.474742988523523   0.718992640970150 1
force Bi  -0.637475160308100  -0.484912141080699  -0.388645941474965 1
force Bi  -0.211028794902290  -0.208525443412370  -0.264589440224210 1
force Bi  -0.697784096327419  -0.557111385423258  -0.089175547609696 1
force Bi   0.438889239421056   0.341627849061919   0.589904386796611 1
force Bi  -0.228994310804632  -0.643537519947605  -0.911337222086473 1
force Bi   0.653084667389460   0.566180835423530   0.197662029792101 1
force Bi  -0.048506008218784  -0.034337358055367  -0.276261433140627 1
force Bi   0.351264736054570   0.197030951571218   0.560985579622661 1
force Bi  -0.050898003345974  -0.028951618787063   0.026376538874137 1
force Bi  -0.136379328071585  -0.071532143112424   0.151954464342915 1
force Bi  -0.050106737926603  -0.087130860553655  -0.139690325641116 1
force Bi   0.334943810149737   0.346839814709615   0.337194617754001 1
force Bi   0.197536119867707   0.312022092619920   0.120941223388454 1
force Bi   0.702291773049033   0.759082979725283   0.689156584654196 1
force Bi  -0.487724048320488  -0.658957942750886  -0.773832958639965 1
force Bi  -0.612879928436714  -0.612149951410920  -0.294728752550837 1
force Bi  -0.456301791238571  -0.833641873429752  -0.406831348335905 1
force Bi   0.379605895558139   0.292455152342097   0.374894300335418 1
force Bi  -0.319859151684223  -0.728773890552228  -0.838066007627551 1
force Bi   0.383916318242814   0.301962090419879   0.364223005412398 1
force Bi  -0.065629216651737   0.333566906894436  -0.044231019065318 1
force Bi   0.067899211370952   0.199337111509740  -0.172575519104765 1
force Bi   0.061619063500985  -0.470792994843648   0.069181333331059 1
force Bi  -0.482687679650290  -0.738351732234701  -0.437575590950930 1
force Bi  -0.576408271186497  -0.367278756144880  -0.370723623665985 1
force Bi   0.608702533014044   0.395654048388206   0.321792707974968 1
force Bi   0.032478932382817  -0.284931355423117  -0.056042298532391 1
force Bi   0.163910872654219   0.432370988096175   0.072774377772297 1
force Bi  -0.953231348354160  -0.413511717275628  -0.613346656509374 1
force Bi   0.967026491502199   0.202988658608835   0.794565491475624 1
force Bi  -0.070095786003115  -0.183295954108408  -0.155021103826993 1
force Bi   0.215206823690192   0.275713507469082   0.435225203072788 1
force Bi  -0.479369208318351  -0.623997558239488  -0.681594384459718 1
force Bi   0.366361347113624   0.490024988414651   0.030331740812379 1
force Bi   0.230254129786267   0.239694494654697   0.342399525183461 1
force Bi  -0.195058723501086  -0.036383790184416  -0.324418985833402 1
force Bi  -0.986644531418307  -0.508706434051616  -0.818327340655227 1
force Bi  -0.165879670626015  -0.018585263178496  -0.138247351118431 1
force Bi  -0.123639326392509  -0.092340308445914  -0.229823134066959 1
force Bi   0.828729764074425   0.905909978911135   1.191363690814487 1
force Bi   0.801972978646909   0.669802346546058   0.151607436439871 1
force Bi  -0.054469404608897  -0.032797236371970   0.136416288417255 1
force Bi   0.107136909827287  -0.068925508362111   0.499855727712813 1

# Energy components:
   Eewald =    -2819.1568922386909435
       EH =      954.0884752856978821
     Eloc =    -3008.5339786481799820
      Enl =     1278.3863554445874797
      Exc =    -1736.0018470946420166
 Exc_core =     1112.0248219452748799
       KE =      337.0506815909132570
-------------------------------------
     Etot =    -3882.1423837150391591
       TS =        0.2144056242158289
-------------------------------------
        F =    -3882.3567893392551014

IonicMinimize: Iter:   2  F: -3882.356789339255101  |grad|_K:  1.424e-02  alpha:  2.147e-01  linmin: -9.707e-01  t[s]:  16102.72

#--- Lowdin population analysis ---
# oxidation-state Bi +0.044 +0.037 +0.038 +0.030 +0.056 +0.045 +0.045 +0.050 +0.044 +0.060 +0.027 +0.028 +0.043 +0.045 +0.035 +0.062 +0.063 +0.049 +0.038 +0.066 +0.034 +0.037 +0.044 +0.025 +0.043 +0.037 +0.035 +0.052 +0.066 +0.039 +0.045 +0.017 +0.050 +0.038 +0.037 +0.037 +0.058 +0.038 +0.023 +0.046 +0.045 +0.053 +0.030 +0.042 +0.024 +0.038 +0.045 +0.051 +0.004 +0.039 +0.053 +0.060 +0.041 +0.023


-------- Electronic minimization -----------
Will mix electronic density at each iteration.
	FillingsUpdate:  mu: +0.391646833  nElectrons: 810.000000
	FillingsUpdate:  mu: +0.391553294  nElectrons: 810.000000
SCF: Cycle:  0   F: -3881.392258390066672   dF: -6.921e-01   |Residual|: 3.996e-01   |deigs|: 2.497e-03  t[s]:  16564.34
	FillingsUpdate:  mu: +0.391420516  nElectrons: 810.000000
SCF: Cycle:  1   F: -3882.228129892669131   dF: -8.359e-01   |Residual|: 2.110e-01   |deigs|: 6.523e-03  t[s]:  16900.90
	FillingsUpdate:  mu: +0.391483367  nElectrons: 810.000000
SCF: Cycle:  2   F: -3882.419965828693421   dF: -1.918e-01   |Residual|: 4.040e-02   |deigs|: 8.077e-04  t[s]:  17226.85
	FillingsUpdate:  mu: +0.391406323  nElectrons: 810.000000
SCF: Cycle:  3   F: -3882.422104012241562   dF: -2.138e-03   |Residual|: 1.572e-02   |deigs|: 4.706e-04  t[s]:  17498.88
	FillingsUpdate:  mu: +0.391379439  nElectrons: 810.000000
SCF: Cycle:  4   F: -3882.422368718989219   dF: -2.647e-04   |Residual|: 5.522e-03   |deigs|: 3.784e-05  t[s]:  17749.63
	FillingsUpdate:  mu: +0.391369410  nElectrons: 810.000000
SCF: Cycle:  5   F: -3882.422398372017142   dF: -2.965e-05   |Residual|: 1.973e-03   |deigs|: 2.443e-05  t[s]:  17950.94
	FillingsUpdate:  mu: +0.391365162  nElectrons: 810.000000
SCF: Cycle:  6   F: -3882.422410200400009   dF: -1.183e-05   |Residual|: 6.535e-04   |deigs|: 5.946e-06  t[s]:  18155.28
	FillingsUpdate:  mu: +0.391363310  nElectrons: 810.000000
SCF: Cycle:  7   F: -3882.422412737957984   dF: -2.538e-06   |Residual|: 2.715e-04   |deigs|: 5.785e-06  t[s]:  18357.39
	FillingsUpdate:  mu: +0.391362989  nElectrons: 810.000000
SCF: Cycle:  8   F: -3882.422413854515526   dF: -1.117e-06   |Residual|: 1.511e-04   |deigs|: 1.090e-06  t[s]:  18562.76
	FillingsUpdate:  mu: +0.391362678  nElectrons: 810.000000
SCF: Cycle:  9   F: -3882.422414451415079   dF: -5.969e-07   |Residual|: 8.619e-05   |deigs|: 1.489e-06  t[s]:  18768.33
	FillingsUpdate:  mu: +0.391362731  nElectrons: 810.000000
SCF: Cycle: 10   F: -3882.422414745264632   dF: -2.938e-07   |Residual|: 7.246e-05   |deigs|: 7.267e-07  t[s]:  18973.39
	FillingsUpdate:  mu: +0.391362685  nElectrons: 810.000000
SCF: Cycle: 11   F: -3882.422414917983588   dF: -1.727e-07   |Residual|: 3.043e-05   |deigs|: 4.395e-07  t[s]:  19182.36
	FillingsUpdate:  mu: +0.391362711  nElectrons: 810.000000
SCF: Cycle: 12   F: -3882.422415013974387   dF: -9.599e-08   |Residual|: 4.048e-05   |deigs|: 2.483e-07  t[s]:  19386.73
	FillingsUpdate:  mu: +0.391362692  nElectrons: 810.000000
SCF: Cycle: 13   F: -3882.422415076076504   dF: -6.210e-08   |Residual|: 1.525e-05   |deigs|: 3.160e-07  t[s]:  19595.09
	FillingsUpdate:  mu: +0.391362693  nElectrons: 810.000000
SCF: Cycle: 14   F: -3882.422415113901479   dF: -3.782e-08   |Residual|: 1.817e-05   |deigs|: 2.235e-07  t[s]:  19796.92
	FillingsUpdate:  mu: +0.391362694  nElectrons: 810.000000
SCF: Cycle: 15   F: -3882.422415138283213   dF: -2.438e-08   |Residual|: 1.162e-05   |deigs|: 2.216e-07  t[s]:  19998.61
	FillingsUpdate:  mu: +0.391362696  nElectrons: 810.000000
SCF: Cycle: 16   F: -3882.422415155749150   dF: -1.747e-08   |Residual|: 7.467e-06   |deigs|: 2.310e-07  t[s]:  20204.31
	FillingsUpdate:  mu: +0.391362698  nElectrons: 810.000000
SCF: Cycle: 17   F: -3882.422415165817711   dF: -1.007e-08   |Residual|: 9.421e-06   |deigs|: 1.992e-07  t[s]:  20417.49
	FillingsUpdate:  mu: +0.391362698  nElectrons: 810.000000
SCF: Cycle: 18   F: -3882.422415172227829   dF: -6.410e-09   |Residual|: 1.850e-05   |deigs|: 2.041e-07  t[s]:  20622.90
	FillingsUpdate:  mu: +0.391362694  nElectrons: 810.000000
SCF: Cycle: 19   F: -3882.422415176490176   dF: -4.262e-09   |Residual|: 2.697e-05   |deigs|: 1.969e-07  t[s]:  20827.11
SCF: Converged (|Delta E|<1.000000e-08 for 2 iters).

Setting wave functions to eigenvectors of Hamiltonian

# Ionic positions in lattice coordinates:
ion Bi   0.252164497230220   0.256000218534769   0.237934450052418 1
ion Bi   0.099605467172934   0.091650383618206   0.075429465256722 1
ion Bi   0.249320164277683   0.238313587746529   0.575206026694819 1
ion Bi   0.094614966606454   0.089376284839594   0.420237019737119 1
ion Bi   0.254752394829874   0.241948347663390   0.928366569024065 1
ion Bi   0.095203710772945   0.080683460217858   0.753802125880336 1
ion Bi   0.232028792531911   0.564700570307637   0.253237516564768 1
ion Bi   0.081353386988559   0.411760022466171   0.097471906835449 1
ion Bi   0.243451854261230   0.576908744629652   0.570708671005089 1
ion Bi   0.087748337352800   0.399754593732414   0.424846760105241 1
ion Bi   0.254215605851425   0.578639139483817   0.905787778379590 1
ion Bi   0.103220534516804   0.417935262225466   0.768410124541177 1
ion Bi   0.243210483991228   0.917925851105465   0.254227803934213 1
ion Bi   0.087195645665588   0.756530234654204   0.085435224636925 1
ion Bi   0.245419268153626   0.905342540090180   0.570942627835716 1
ion Bi   0.082373823581612   0.756659589502958   0.423609082527983 1
ion Bi   0.233863634186050   0.907760819919219   0.923494715595885 1
ion Bi   0.083932423713926   0.750338138236030   0.763050384306237 1
ion Bi   0.579931623526111   0.250029720567641   0.241041987095281 1
ion Bi   0.417085243121872   0.086733515083234   0.086385663989120 1
ion Bi   0.575791570413658   0.250724283727301   0.580239565168491 1
ion Bi   0.421301588255314   0.084193630651213   0.415987213210137 1
ion Bi   0.577795147962122   0.240375542208455   0.909653989463392 1
ion Bi   0.416957255153920   0.069667887983456   0.761496519887600 1
ion Bi   0.569721446492731   0.581796779361305   0.225558665901696 1
ion Bi   0.425979671074265   0.432732837014344   0.091633066030646 1
ion Bi   0.589689769891598   0.586548048393234   0.585154683074609 1
ion Bi   0.420990122739124   0.431553158633766   0.415548438819852 1
ion Bi   0.577691302589837   0.592153615181602   0.913752329204852 1
ion Bi   0.423904766935343   0.436863233207422   0.754580454241424 1
ion Bi   0.576286664192370   0.915438676668255   0.237174337580995 1
ion Bi   0.406182258447074   0.753903223884565   0.087113181596754 1
ion Bi   0.587844234519472   0.915256706750115   0.574850184600034 1
ion Bi   0.420057320188164   0.763641465930647   0.405058241273281 1
ion Bi   0.579424917848506   0.931137244753159   0.916507540684001 1
ion Bi   0.432608020719439   0.760959780701598   0.750862143894792 1
ion Bi   0.912399001618661   0.242761342947565   0.241260860845394 1
ion Bi   0.741325960391296   0.093978868160551   0.088722116188807 1
ion Bi   0.903057107093886   0.241955700354389   0.579657884646062 1
ion Bi   0.767037077841889   0.088496375655568   0.427425241023396 1
ion Bi   0.900179933543642   0.245371624754833   0.907053812384296 1
ion Bi   0.750701836313515   0.084699334068488   0.752358122425169 1
ion Bi   0.909027302463120   0.577337166238677   0.242251864050485 1
ion Bi   0.767340711562692   0.427847143858787   0.081368880540385 1
ion Bi   0.911398680343942   0.566850343397336   0.580479274267177 1
ion Bi   0.745303561334219   0.418224410467228   0.406190876938928 1
ion Bi   0.923990114634477   0.583119729794735   0.920575945072754 1
ion Bi   0.751999017110158   0.427172456775355   0.765372361486340 1
ion Bi   0.909503135971551   0.905430859243720   0.256232586231781 1
ion Bi   0.756368695863995   0.756042290914170   0.084691222031940 1
ion Bi   0.913228353189639   0.899216773262354   0.573840900023635 1
ion Bi   0.737770204414144   0.741992428274077   0.419100283982729 1
ion Bi   0.917185194000193   0.920587084463390   0.906303134315370 1
ion Bi   0.754386196553189   0.753728927693904   0.730768174914644 1

# Forces in Lattice coordinates:
force Bi   0.177179521721011   0.028693863989431   0.244691059852962 1
force Bi  -0.377102374810079  -0.349964984803334  -0.143915855754718 1
force Bi   0.324280034115571   0.331123357227003   0.302466844927332 1
force Bi  -0.260447809304055  -0.042533333099957  -0.297840844212089 1
force Bi   0.106107345143857   0.068272116445439  -0.262676541357830 1
force Bi  -0.323546869811613  -0.116279225257454  -0.301184075969448 1
force Bi   0.337169764084686   0.596460884430167   0.460138105676567 1
force Bi   0.041186623255231   0.007037129675331  -0.255404794336684 1
force Bi   0.459004182505920   0.542783488666994   0.556621427379968 1
force Bi  -0.324474894454355  -0.178151699892263  -0.132937141577040 1
force Bi  -0.007205252514763   0.362503813850076   0.557281947417383 1
force Bi  -0.541298342469494  -0.406629902394869  -0.364057220084876 1
force Bi  -0.169359956446021  -0.170302611416139  -0.209298696581163 1
force Bi  -0.544237342175865  -0.441657195684395  -0.068907176170731 1
force Bi   0.369122039294389   0.293533064289850   0.472375696318113 1
force Bi  -0.176991954389261  -0.500427436093943  -0.682145515807745 1
force Bi   0.492828083117892   0.431876834340140   0.127260431483123 1
force Bi  -0.025529375529004  -0.023594896342046  -0.216441318117488 1
force Bi   0.272491006086860   0.153852643197872   0.431505849399563 1
force Bi  -0.026433199733004  -0.027647622760780   0.015315043950933 1
force Bi  -0.117984853363546  -0.072389965070634   0.112731196973034 1
force Bi  -0.028449381183198  -0.052228301474452  -0.092180545972803 1
force Bi   0.263380039758403   0.279867054594007   0.262476758191019 1
force Bi   0.154710707003267   0.268142041130715   0.083280862292397 1
force Bi   0.569846004217045   0.592627924992362   0.563867744537868 1
force Bi  -0.387719163681417  -0.534030586186693  -0.615044737414964 1
force Bi  -0.527389985199139  -0.510995488726058  -0.291610337548978 1
force Bi  -0.361903739814447  -0.641986735056513  -0.318606905861139 1
force Bi   0.272152414467302   0.194265039149261   0.267070014194100 1
force Bi  -0.277888069134705  -0.593723552776602  -0.664497689168966 1
force Bi   0.307293340721589   0.231187947969382   0.302169349264114 1
force Bi  -0.013127428684842   0.277544109057873  -0.011625584255727 1
force Bi   0.046114408122400   0.142144105326613  -0.126109185244620 1
force Bi   0.062492296492545  -0.373321891929245   0.078164170504022 1
force Bi  -0.402308871273861  -0.639365966038335  -0.370729511455814 1
force Bi  -0.456734042788426  -0.299064028636804  -0.295783028868903 1
force Bi   0.468627675848008   0.316654217501243   0.264955895542297 1
force Bi   0.052900414768098  -0.206278853567207  -0.033136268360673 1
force Bi   0.127218694274849   0.342903750259156   0.070823551566868 1
force Bi  -0.760215202555139  -0.334130338663269  -0.499776308093670 1
force Bi   0.765636575628313   0.193027427813688   0.621885521643386 1
force Bi  -0.062666481830935  -0.140612386160232  -0.115167477003349 1
force Bi   0.175073719141484   0.212026994105875   0.340618673426714 1
force Bi  -0.389931324348795  -0.504812214262867  -0.520834174020935 1
force Bi   0.299480513652898   0.396794164932704   0.043602512004511 1
force Bi   0.188696328899521   0.209809252315516   0.294477273035822 1
force Bi  -0.203652440480537  -0.059367557340952  -0.301218541988295 1
force Bi  -0.765011659971107  -0.429445553772840  -0.638541172375990 1
force Bi  -0.129695996295941   0.003001607157713  -0.116530085396675 1
force Bi  -0.100983458812465  -0.081075462172253  -0.175824007730313 1
force Bi   0.670916295247159   0.726150599852021   0.924895944358656 1
force Bi   0.676979172800869   0.561063495965218   0.161435586605095 1
force Bi  -0.050246130203062  -0.033805103757490   0.105731231433371 1
force Bi   0.132224689809368  -0.001960925967225   0.451320855000283 1

# Energy components:
   Eewald =    -2825.0597646480705407
       EH =      948.4995829327980346
     Eloc =    -2996.8718655782245150
      Enl =     1278.2759496198691522
      Exc =    -1735.8827754540536716
 Exc_core =     1112.0247994514588754
       KE =      336.8056890916374186
-------------------------------------
     Etot =    -3882.2083845845850192
       TS =        0.2140305919050339
-------------------------------------
        F =    -3882.4224151764901762

IonicMinimize: Iter:   3  F: -3882.422415176490176  |grad|_K:  1.130e-02  alpha:  2.136e-01  linmin: -9.467e-01  t[s]:  20877.30

#--- Lowdin population analysis ---
# oxidation-state Bi +0.045 +0.037 +0.039 +0.031 +0.056 +0.043 +0.041 +0.048 +0.042 +0.059 +0.030 +0.028 +0.043 +0.044 +0.035 +0.058 +0.060 +0.047 +0.038 +0.061 +0.034 +0.038 +0.041 +0.028 +0.041 +0.036 +0.037 +0.050 +0.063 +0.039 +0.044 +0.023 +0.048 +0.038 +0.034 +0.034 +0.053 +0.039 +0.025 +0.044 +0.044 +0.051 +0.031 +0.041 +0.025 +0.039 +0.045 +0.048 +0.010 +0.039 +0.050 +0.058 +0.041 +0.025


-------- Electronic minimization -----------
Will mix electronic density at each iteration.
	FillingsUpdate:  mu: +0.391362694  nElectrons: 810.000000
	FillingsUpdate:  mu: +0.391388427  nElectrons: 810.000000
SCF: Cycle:  0   F: -3881.527463424079087   dF: -4.420e-01   |Residual|: 3.603e-01   |deigs|: 2.047e-03  t[s]:  21336.24
	FillingsUpdate:  mu: +0.391209953  nElectrons: 810.000000
SCF: Cycle:  1   F: -3882.297733318476276   dF: -7.703e-01   |Residual|: 1.888e-01   |deigs|: 6.395e-03  t[s]:  21665.88
	FillingsUpdate:  mu: +0.391231043  nElectrons: 810.000000
SCF: Cycle:  2   F: -3882.465941521472359   dF: -1.682e-01   |Residual|: 3.804e-02   |deigs|: 6.793e-04  t[s]:  22000.29
	FillingsUpdate:  mu: +0.391180830  nElectrons: 810.000000
SCF: Cycle:  3   F: -3882.467690421804491   dF: -1.749e-03   |Residual|: 1.408e-02   |deigs|: 4.182e-04  t[s]:  22277.06
	FillingsUpdate:  mu: +0.391161280  nElectrons: 810.000000
SCF: Cycle:  4   F: -3882.467946259375822   dF: -2.558e-04   |Residual|: 5.166e-03   |deigs|: 2.839e-05  t[s]:  22531.87
	FillingsUpdate:  mu: +0.391153098  nElectrons: 810.000000
SCF: Cycle:  5   F: -3882.467970155633338   dF: -2.390e-05   |Residual|: 1.783e-03   |deigs|: 2.076e-05  t[s]:  22735.97
	FillingsUpdate:  mu: +0.391149751  nElectrons: 810.000000
SCF: Cycle:  6   F: -3882.467979724029192   dF: -9.568e-06   |Residual|: 6.004e-04   |deigs|: 4.162e-06  t[s]:  22939.82
	FillingsUpdate:  mu: +0.391148335  nElectrons: 810.000000
SCF: Cycle:  7   F: -3882.467981772936128   dF: -2.049e-06   |Residual|: 2.336e-04   |deigs|: 4.589e-06  t[s]:  23143.31
	FillingsUpdate:  mu: +0.391148133  nElectrons: 810.000000
SCF: Cycle:  8   F: -3882.467982652917271   dF: -8.800e-07   |Residual|: 1.353e-04   |deigs|: 9.697e-07  t[s]:  23350.25
	FillingsUpdate:  mu: +0.391147893  nElectrons: 810.000000
SCF: Cycle:  9   F: -3882.467983120533063   dF: -4.676e-07   |Residual|: 7.995e-05   |deigs|: 1.219e-06  t[s]:  23556.34
	FillingsUpdate:  mu: +0.391147952  nElectrons: 810.000000
SCF: Cycle: 10   F: -3882.467983350750274   dF: -2.302e-07   |Residual|: 6.642e-05   |deigs|: 6.406e-07  t[s]:  23762.84
	FillingsUpdate:  mu: +0.391147915  nElectrons: 810.000000
SCF: Cycle: 11   F: -3882.467983485289551   dF: -1.345e-07   |Residual|: 2.784e-05   |deigs|: 3.654e-07  t[s]:  23969.37
	FillingsUpdate:  mu: +0.391147938  nElectrons: 810.000000
SCF: Cycle: 12   F: -3882.467983559577533   dF: -7.429e-08   |Residual|: 3.768e-05   |deigs|: 2.240e-07  t[s]:  24175.62
	FillingsUpdate:  mu: +0.391147920  nElectrons: 810.000000
SCF: Cycle: 13   F: -3882.467983607677070   dF: -4.810e-08   |Residual|: 1.438e-05   |deigs|: 2.903e-07  t[s]:  24379.87
	FillingsUpdate:  mu: +0.391147919  nElectrons: 810.000000
SCF: Cycle: 14   F: -3882.467983637082853   dF: -2.941e-08   |Residual|: 1.614e-05   |deigs|: 2.198e-07  t[s]:  24601.13
	FillingsUpdate:  mu: +0.391147920  nElectrons: 810.000000
SCF: Cycle: 15   F: -3882.467983655788430   dF: -1.871e-08   |Residual|: 1.122e-05   |deigs|: 2.176e-07  t[s]:  24804.61
	FillingsUpdate:  mu: +0.391147923  nElectrons: 810.000000
SCF: Cycle: 16   F: -3882.467983669435853   dF: -1.365e-08   |Residual|: 7.158e-06   |deigs|: 2.273e-07  t[s]:  25008.44
	FillingsUpdate:  mu: +0.391147925  nElectrons: 810.000000
SCF: Cycle: 17   F: -3882.467983677357097   dF: -7.921e-09   |Residual|: 1.019e-05   |deigs|: 2.070e-07  t[s]:  25219.81
	FillingsUpdate:  mu: +0.391147924  nElectrons: 810.000000
SCF: Cycle: 18   F: -3882.467983682377962   dF: -5.021e-09   |Residual|: 2.420e-05   |deigs|: 2.078e-07  t[s]:  25445.20
SCF: Converged (|Delta E|<1.000000e-08 for 2 iters).

Setting wave functions to eigenvectors of Hamiltonian

# Ionic positions in lattice coordinates:
ion Bi   0.252541588724375   0.255180083958337   0.238964698496567 1
ion Bi   0.098191990593409   0.091057190531763   0.075866145007424 1
ion Bi   0.249690068720589   0.239541130469337   0.575803975256867 1
ion Bi   0.093818908586761   0.089697818960122   0.419504629674873 1
ion Bi   0.255419659603795   0.242378013713590   0.925784132701584 1
ion Bi   0.094108180715800   0.081480812708013   0.752519297005632 1
ion Bi   0.232941589896562   0.566178497673429   0.253721781346670 1
ion Bi   0.082713638328439   0.412993410430484   0.095226453876408 1
ion Bi   0.244395862758533   0.577825571092715   0.571948039564985 1
ion Bi   0.086724378192369   0.400379312964790   0.424860920663347 1
ion Bi   0.253292384285739   0.578620945512580   0.907727938139234 1
ion Bi   0.101061026094207   0.417659126467458   0.766861830520106 1
ion Bi   0.243053640355473   0.917450968255567   0.253651656218438 1
ion Bi   0.085665805290336   0.755764027737246   0.086168930069665 1
ion Bi   0.246348906781697   0.906101120736837   0.571776252082848 1
ion Bi   0.082315885203832   0.755906560605611   0.422534878775552 1
ion Bi   0.234622756304555   0.908605963543391   0.922657036262559 1
ion Bi   0.084701772866895   0.750776768156798   0.761531958714261 1
ion Bi   0.580308786311426   0.249777917843445   0.242382287511232 1
ion Bi   0.417563050134544   0.086245610050973   0.086447946211408 1
ion Bi   0.574783865031047   0.250006906714218   0.581607041708678 1
ion Bi   0.421334578713760   0.084359118083346   0.415788804786125 1
ion Bi   0.578348069951361   0.241223505453552   0.909985867252815 1
ion Bi   0.417074076368849   0.071761568208737   0.760510317127470 1
ion Bi   0.571024706631309   0.582419090989729   0.227316247438731 1
ion Bi   0.425538515749486   0.431213508226636   0.090438079655389 1
ion Bi   0.588573839664652   0.586152184853467   0.583435526566705 1
ion Bi   0.420279080355146   0.429901008978148   0.415487217790156 1
ion Bi   0.578188427691002   0.591894648945069   0.914194142712566 1
ion Bi   0.422992876556448   0.435555174891650   0.753530266616015 1
ion Bi   0.577021353394625   0.915109910528889   0.238508138297715 1
ion Bi   0.406357478051295   0.755452425291953   0.086940739799905 1
ion Bi   0.587944660034448   0.915688406550791   0.574258613480507 1
ion Bi   0.421267635622225   0.760628873216435   0.406928845030064 1
ion Bi   0.579152953844155   0.927422470228070   0.916496379709373 1
ion Bi   0.431319198029685   0.760432571130902   0.750504991382774 1
ion Bi   0.913363880711742   0.243141404486652   0.242066342292614 1
ion Bi   0.742693012212196   0.092818375536572   0.088864002706180 1
ion Bi   0.902640900112944   0.243851591546426   0.579466067405424 1
ion Bi   0.764885537420658   0.088087340459024   0.426692554617176 1
ion Bi   0.902388647606920   0.245679285948336   0.907815376353525 1
ion Bi   0.750608466645224   0.084292819438163   0.752323138701498 1
ion Bi   0.909237739259609   0.577399400291559   0.243439430762632 1
ion Bi   0.766440277158119   0.426257861542957   0.080788831721572 1
ion Bi   0.911775155465595   0.568377031541057   0.580157533809127 1
ion Bi   0.745139974524535   0.418790132383331   0.407783018838892 1
ion Bi   0.922632194213072   0.583842675931221   0.918728101157777 1
ion Bi   0.751205858988759   0.425712193308830   0.764313578718632 1
ion Bi   0.908613510802784   0.906589914488194   0.255395484571990 1
ion Bi   0.756206303622102   0.755878085278350   0.084265724842215 1
ion Bi   0.914699564670207   0.900728045131618   0.574757429585037 1
ion Bi   0.740570036742109   0.743167486551423   0.418724407019554 1
ion Bi   0.916496171664603   0.920116673943513   0.907276494433210 1
ion Bi   0.754841572739992   0.753177458488696   0.733720475008295 1

# Forces in Lattice coordinates:
force Bi   0.123844781761558   0.004015063026056   0.177173986733098 1
force Bi  -0.302912738642942  -0.273227600444342  -0.101015423366995 1
force Bi   0.257162877583113   0.273743290899620   0.248041723543090 1
force Bi  -0.213798368954609  -0.037649601996775  -0.232644367874410 1
force Bi   0.060352730354619   0.037852810908965  -0.235681037837889 1
force Bi  -0.265909891068782  -0.087731762283639  -0.246941474749887 1
force Bi   0.281649306139281   0.478215647640281   0.359878875245034 1
force Bi   0.041824597941583   0.017775403732734  -0.210196057507618 1
force Bi   0.361378375311151   0.429370048803683   0.445344355422229 1
force Bi  -0.238377401947767  -0.107007509430125  -0.090623685065115 1
force Bi  -0.004162173531386   0.288824732353943   0.442591155805271 1
force Bi  -0.458986146622815  -0.343308003774323  -0.329317663747526 1
force Bi  -0.138960508222240  -0.135397737058673  -0.166801156867396 1
force Bi  -0.425431073179247  -0.349438450223897  -0.053362879078773 1
force Bi   0.307868864741369   0.250608333923508   0.382707017613934 1
force Bi  -0.136478363623820  -0.402838196810056  -0.531769687597413 1
force Bi   0.379230969494940   0.331007758557938   0.081785948193268 1
force Bi  -0.014725200955198  -0.017946407247037  -0.171995275562638 1
force Bi   0.218068724299207   0.122414135659543   0.341338514363076 1
force Bi  -0.017211591839865  -0.028675493269696   0.005863168926157 1
force Bi  -0.098226078767274  -0.065478797295626   0.081579343588399 1
force Bi  -0.010157069914039  -0.027873110818758  -0.055376697057850 1
force Bi   0.207889437615661   0.227368415196902   0.208580246471564 1
force Bi   0.119769289070398   0.222740617911270   0.058275057446424 1
force Bi   0.466768157960646   0.471851389906258   0.465135982565499 1
force Bi  -0.315189645494283  -0.433480020324673  -0.492110610172989 1
force Bi  -0.441435986681334  -0.418925740631366  -0.269522311754963 1
force Bi  -0.285893809280490  -0.502113307943098  -0.246492288400995 1
force Bi   0.200816041030375   0.128577100640440   0.190968493567450 1
force Bi  -0.235307513396930  -0.488868304142068  -0.531736943267103 1
force Bi   0.251234913791572   0.184696890683382   0.251266384469199 1
force Bi   0.008774930227980   0.221640929913028  -0.003985423672625 1
force Bi   0.030355923545033   0.103222599077233  -0.092833785778095 1
force Bi   0.055291659048518  -0.298478721703719   0.074806802425098 1
force Bi  -0.332189234674032  -0.546822038818513  -0.315472429936118 1
force Bi  -0.372699200181970  -0.249166478189964  -0.241082511175889 1
force Bi   0.373232504093948   0.258517717428378   0.218446563946083 1
force Bi   0.055146737770248  -0.156009738429326  -0.026755429231803 1
force Bi   0.103066346622971   0.273433670345806   0.069540727779687 1
force Bi  -0.606413443649177  -0.271077384857658  -0.400870607447490 1
force Bi   0.630354110701674   0.166723864754474   0.505081092426055 1
force Bi  -0.057376588770570  -0.111738985899474  -0.088819784545629 1
force Bi   0.144745775151158   0.164222596007184   0.270766465169597 1
force Bi  -0.318639651368579  -0.409884791350136  -0.406324734255476 1
force Bi   0.245756223339945   0.319901773265516   0.054147099515553 1
force Bi   0.153108206426670   0.179793843480720   0.249992766520382 1
force Bi  -0.195903297456354  -0.068204908361874  -0.271960386483020 1
force Bi  -0.613786475073748  -0.347319607282170  -0.523755125953095 1
force Bi  -0.087567443515024   0.023566205570522  -0.091410306570179 1
force Bi  -0.084263768568949  -0.072100462350202  -0.137655559260411 1
force Bi   0.538197272495012   0.601241111401065   0.731807713359590 1
force Bi   0.558245344520659   0.458548810250209   0.158811125560096 1
force Bi  -0.042973365906160  -0.031146447534533   0.083343422976121 1
force Bi   0.138048242328053   0.036635589112392   0.406014977796424 1

# Energy components:
   Eewald =    -2829.4431140811980185
       EH =      944.3267946700301536
     Eloc =    -2988.1898702741787019
      Enl =     1278.1964727476577082
      Exc =    -1735.7956113407526573
 Exc_core =     1112.0247853254636539
       KE =      336.6264884199712810
-------------------------------------
     Etot =    -3882.2540545330070927
       TS =        0.2139291493709924
-------------------------------------
        F =    -3882.4679836823779624

IonicMinimize: Iter:   4  F: -3882.467983682377962  |grad|_K:  9.107e-03  alpha:  1.921e-01  linmin: -9.170e-01  t[s]:  25495.30

#--- Lowdin population analysis ---
# oxidation-state Bi +0.045 +0.037 +0.039 +0.031 +0.055 +0.042 +0.039 +0.045 +0.042 +0.058 +0.033 +0.028 +0.042 +0.043 +0.035 +0.056 +0.057 +0.045 +0.039 +0.056 +0.034 +0.038 +0.040 +0.030 +0.039 +0.035 +0.039 +0.048 +0.060 +0.038 +0.044 +0.028 +0.046 +0.039 +0.033 +0.032 +0.049 +0.039 +0.027 +0.043 +0.043 +0.050 +0.032 +0.040 +0.026 +0.040 +0.045 +0.045 +0.015 +0.040 +0.049 +0.056 +0.041 +0.027


-------- Electronic minimization -----------
Will mix electronic density at each iteration.
	FillingsUpdate:  mu: +0.391147924  nElectrons: 810.000000
	FillingsUpdate:  mu: +0.391177909  nElectrons: 810.000000
SCF: Cycle:  0   F: -3881.606108473286440   dF: -3.323e-01   |Residual|: 3.396e-01   |deigs|: 1.915e-03  t[s]:  25962.60
	FillingsUpdate:  mu: +0.391007546  nElectrons: 810.000000
SCF: Cycle:  1   F: -3882.346580190292116   dF: -7.405e-01   |Residual|: 1.771e-01   |deigs|: 6.365e-03  t[s]:  26295.43
	FillingsUpdate:  mu: +0.391035180  nElectrons: 810.000000
SCF: Cycle:  2   F: -3882.499724091919234   dF: -1.531e-01   |Residual|: 3.691e-02   |deigs|: 6.567e-04  t[s]:  26628.81
	FillingsUpdate:  mu: +0.391001753  nElectrons: 810.000000
SCF: Cycle:  3   F: -3882.501300429141793   dF: -1.576e-03   |Residual|: 1.314e-02   |deigs|: 3.763e-04  t[s]:  26904.64
	FillingsUpdate:  mu: +0.390987970  nElectrons: 810.000000
SCF: Cycle:  4   F: -3882.501540455237773   dF: -2.400e-04   |Residual|: 4.937e-03   |deigs|: 2.168e-05  t[s]:  27157.68
	FillingsUpdate:  mu: +0.390981550  nElectrons: 810.000000
SCF: Cycle:  5   F: -3882.501561616929848   dF: -2.116e-05   |Residual|: 1.662e-03   |deigs|: 1.775e-05  t[s]:  27363.01
	FillingsUpdate:  mu: +0.390979141  nElectrons: 810.000000
SCF: Cycle:  6   F: -3882.501570191181600   dF: -8.574e-06   |Residual|: 5.984e-04   |deigs|: 2.900e-06  t[s]:  27569.26
	FillingsUpdate:  mu: +0.390978037  nElectrons: 810.000000
SCF: Cycle:  7   F: -3882.501572037857841   dF: -1.847e-06   |Residual|: 2.183e-04   |deigs|: 3.596e-06  t[s]:  27775.88
	FillingsUpdate:  mu: +0.390977909  nElectrons: 810.000000
SCF: Cycle:  8   F: -3882.501572822559865   dF: -7.847e-07   |Residual|: 1.269e-04   |deigs|: 9.092e-07  t[s]:  27984.14
	FillingsUpdate:  mu: +0.390977723  nElectrons: 810.000000
SCF: Cycle:  9   F: -3882.501573235904743   dF: -4.133e-07   |Residual|: 7.611e-05   |deigs|: 9.902e-07  t[s]:  28188.39
	FillingsUpdate:  mu: +0.390977766  nElectrons: 810.000000
[...]
	FillingsUpdate:  mu: +0.389713045  nElectrons: 810.000000
SCF: Cycle: 12   F: -3882.576178147289284   dF: -9.240e-09   |Residual|: 1.360e-05   |deigs|: 6.606e-08  t[s]:  77535.14
	FillingsUpdate:  mu: +0.389713048  nElectrons: 810.000000
SCF: Cycle: 13   F: -3882.576178152696230   dF: -5.407e-09   |Residual|: 5.995e-06   |deigs|: 6.913e-08  t[s]:  77747.49
SCF: Converged (|Delta E|<1.000000e-08 for 2 iters).

Setting wave functions to eigenvectors of Hamiltonian

# Ionic positions in lattice coordinates:
ion Bi   0.249515716009924   0.247430216638080   0.247406341181750 1
ion Bi   0.085001583293135   0.085769874354472   0.083841515303616 1
ion Bi   0.248440501861106   0.246512421609646   0.580491061888603 1
ion Bi   0.085150087349143   0.086195362660171   0.416821508856680 1
ion Bi   0.248654304231315   0.247423394569602   0.913843831379048 1
ion Bi   0.084353543009008   0.085496900308058   0.751085226813491 1
ion Bi   0.245733108111962   0.580967168598482   0.248661512985544 1
ion Bi   0.087043256078154   0.418239088475849   0.084123748920245 1
ion Bi   0.248238083905789   0.581496217519038   0.580455168096741 1
ion Bi   0.084421089910353   0.416933436671688   0.418848384702929 1
ion Bi   0.248340971708292   0.582161083217149   0.913501340603741 1
ion Bi   0.086760612366761   0.417787192184084   0.750461429407687 1
ion Bi   0.247089651914591   0.914679920695485   0.247357804710726 1
ion Bi   0.083971884838359   0.751756478096854   0.085018564267899 1
ion Bi   0.248398796514577   0.916389244766034   0.578993600857759 1
ion Bi   0.084637568708612   0.752246561801699   0.418672726384492 1
ion Bi   0.246512453963348   0.914387279380509   0.914253248163323 1
ion Bi   0.086158666116489   0.753246638454669   0.749878793311686 1
ion Bi   0.582159398346086   0.249191514206843   0.246082414783508 1
ion Bi   0.418749212079860   0.084562617068400   0.084582413508787 1
ion Bi   0.579832708147266   0.247819667583620   0.581195639524102 1
ion Bi   0.421291716004609   0.084853136385848   0.416672523149287 1
ion Bi   0.580466320019636   0.248195625974795   0.915104859301364 1
ion Bi   0.418315118691541   0.084141394717871   0.751636343139553 1
ion Bi   0.580121495879645   0.581627814864954   0.247107982783186 1
ion Bi   0.418323319543073   0.419833823434220   0.084340102346832 1
ion Bi   0.580941986981648   0.581983836748466   0.580128130337421 1
ion Bi   0.417815502115722   0.418700101707213   0.417912802099497 1
ion Bi   0.580953034327401   0.582244223343833   0.912969099409126 1
ion Bi   0.418709350224513   0.418900135772661   0.751109928833424 1
ion Bi   0.582441568292657   0.914112448840697   0.246525318013569 1
ion Bi   0.417127745296105   0.751698486061143   0.084716362626320 1
ion Bi   0.583267976182061   0.914260656442898   0.580181476841764 1
ion Bi   0.418565255196893   0.752810212948556   0.416774282690740 1
ion Bi   0.580605338034109   0.913319006820371   0.914691989242779 1
ion Bi   0.418638302344325   0.753511362793362   0.749969615169696 1
ion Bi   0.914703681358879   0.249204978102410   0.246219938541905 1
ion Bi   0.752316098084934   0.085668149383569   0.084285561006963 1
ion Bi   0.912909515648827   0.247571284115846   0.580982133930304 1
ion Bi   0.752218559140981   0.086456957410775   0.417321927759148 1
ion Bi   0.914144732136684   0.248833735168866   0.913341351733927 1
ion Bi   0.750034055210540   0.085133187175289   0.752077393835721 1
ion Bi   0.914308162442075   0.580171994291267   0.247717175892479 1
ion Bi   0.752762745598947   0.420408782956158   0.082699443498169 1
ion Bi   0.914869180738869   0.580384202853861   0.581071172326843 1
ion Bi   0.750597100851251   0.418691380745201   0.417727371293148 1
ion Bi   0.917276642893882   0.581038223713478   0.912729343617763 1
ion Bi   0.751386295212954   0.418672088519808   0.750993611653902 1
ion Bi   0.914365646159674   0.914462032741940   0.247819643849005 1
ion Bi   0.752363352133166   0.750733961151026   0.084173023462880 1
ion Bi   0.914307365614507   0.915387347416790   0.580610625331027 1
ion Bi   0.752726641590959   0.751079036254684   0.417715779520450 1
ion Bi   0.913799650190075   0.914661469820037   0.914235207621390 1
ion Bi   0.753283347394728   0.751306642461673   0.751312203488060 1

# Forces in Lattice coordinates:
force Bi  -0.008971058802559  -0.007278363052180  -0.007419539639894 1
force Bi  -0.001193144951893   0.001017864570283   0.003543622175779 1
force Bi   0.001781096782156   0.005422381044753   0.001132041006585 1
force Bi   0.003232913871187   0.003457228380673   0.002896765402921 1
force Bi  -0.000201960919439   0.000234752264872   0.001315518642935 1
force Bi  -0.003603620639636  -0.002493793712319  -0.004707482796733 1
force Bi   0.007016165280263   0.004965452519747   0.003717466669349 1
force Bi   0.000141564434774  -0.000767874766065   0.002190106944052 1
force Bi   0.002205626344827   0.002757440237742   0.004577878617502 1
force Bi   0.006464040382175   0.007287578281854   0.003919398605771 1
force Bi  -0.003049010799292  -0.001666483056837  -0.006508545490258 1
force Bi  -0.003147432674245  -0.001653006875440  -0.003539005262232 1
force Bi   0.000627186055734   0.003058332794876  -0.003314431369325 1
force Bi   0.000879814012368   0.001363377121835   0.001923087973816 1
force Bi  -0.002444969222825  -0.004193408320546  -0.000833708359344 1
force Bi  -0.006337320583928  -0.010105237358263  -0.009902714643375 1
force Bi   0.003607245107394   0.006172693810674   0.003641711447759 1
force Bi   0.004756086306225   0.005706949973202   0.006700332022823 1
force Bi   0.003632854619235   0.004684675052311   0.004980051805829 1
force Bi   0.006059514120822   0.002935058026588   0.005829991708347 1
force Bi   0.005370397904764   0.003902168833343   0.005009447978649 1
force Bi  -0.001951326866107  -0.000344451604849   0.000559488033262 1
force Bi  -0.006179744952314  -0.010315212892700  -0.011818197610254 1
force Bi  -0.001838045099980  -0.002389376322035  -0.002442378536281 1
force Bi   0.001212347044535  -0.001269841231167  -0.001470039790189 1
force Bi  -0.000753833786068  -0.001131398927477   0.001865586887773 1
force Bi  -0.006581045963520  -0.004370795947894  -0.002313573299270 1
force Bi  -0.004015020821280  -0.003156299390082  -0.005546784438303 1
force Bi   0.005669269441279   0.003971951811828   0.005078772852255 1
force Bi   0.002740092946065   0.003260782388690   0.004675253202739 1
force Bi  -0.001191733588667  -0.002649357129154  -0.001889010967806 1
force Bi  -0.004109289726792  -0.004684551236114   0.000298365851057 1
force Bi  -0.002791203329207  -0.002138703704606  -0.000914554047775 1
force Bi   0.004337799601727   0.002669513919035   0.007244030221495 1
force Bi   0.004432286187769   0.003415941929778   0.003816711088466 1
force Bi  -0.002233874062038  -0.006712858905648  -0.005815796537476 1
force Bi  -0.000789449767750  -0.002646097798380  -0.004569999688562 1
force Bi  -0.001482416755851  -0.003445120031074  -0.000945480128753 1
force Bi  -0.001715056624046  -0.002299600002439   0.000643293605476 1
force Bi  -0.004070810409767  -0.004584107132276  -0.007306528029859 1
force Bi   0.007141466350477   0.002226805339569   0.004976767088744 1
force Bi   0.007494793390480   0.007570910933528   0.009987384611659 1
force Bi   0.000923379060508  -0.001130296731760  -0.001449664558657 1
force Bi  -0.006063659483509  -0.004393411879090  -0.000242066756693 1
force Bi   0.001134867867169   0.000909005653611  -0.000041718614660 1
force Bi   0.002024745378746   0.001541440420795   0.005079197406123 1
force Bi  -0.000463620596970  -0.000139460804301   0.001899820873407 1
force Bi  -0.003703698648715   0.000578499212657  -0.004912511076306 1
force Bi   0.004732265088235   0.007146829636833   0.001340376029611 1
force Bi   0.002768931205553   0.005203386658226   0.004189147553496 1
force Bi   0.005071092041458   0.007585805973173   0.007646555749381 1
force Bi   0.000141287841535   0.002663944654944   0.001580884327329 1
force Bi  -0.005558971714298  -0.004618934797941  -0.008495074028666 1
force Bi  -0.005044561083489  -0.004527698774895  -0.004968316458491 1

# Energy components:
   Eewald =    -2842.8955370714329547
       EH =      931.2118373734890611
     Eloc =    -2961.1386130375790344
      Enl =     1277.9471931985112860
      Exc =    -1735.4669890635700540
 Exc_core =     1112.0244550368556702
       KE =      335.9866688190576269
-------------------------------------
     Etot =    -3882.3309847446689673
       TS =        0.2451934080274688
-------------------------------------
        F =    -3882.5761781526962295

IonicMinimize: Iter:  17  F: -3882.576178152696230  |grad|_K:  1.379e-04  alpha:  1.000e+00  linmin:  1.802e-02  t[s]:  77797.93

#--- Lowdin population analysis ---
# oxidation-state Bi +0.040 +0.040 +0.040 +0.040 +0.040 +0.040 +0.039 +0.039 +0.040 +0.041 +0.040 +0.040 +0.040 +0.041 +0.040 +0.040 +0.040 +0.039 +0.040 +0.040 +0.040 +0.040 +0.040 +0.040 +0.040 +0.040 +0.040 +0.040 +0.040 +0.040 +0.040 +0.041 +0.040 +0.040 +0.040 +0.040 +0.040 +0.040 +0.039 +0.040 +0.040 +0.040 +0.040 +0.039 +0.040 +0.040 +0.041 +0.040 +0.040 +0.040 +0.040 +0.040 +0.040 +0.040


-------- Electronic minimization -----------
Will mix electronic density at each iteration.
	FillingsUpdate:  mu: +0.389713048  nElectrons: 810.000000
	FillingsUpdate:  mu: +0.389721576  nElectrons: 810.000000
SCF: Cycle:  0   F: -3882.576169320854660   dF: -8.221e-05   |Residual|: 1.966e-03   |deigs|: 8.850e-07  t[s]:  78202.23
	FillingsUpdate:  mu: +0.389722227  nElectrons: 810.000000
SCF: Cycle:  1   F: -3882.576201486348964   dF: -3.217e-05   |Residual|: 9.111e-04   |deigs|: 8.274e-06  t[s]:  78411.41
	FillingsUpdate:  mu: +0.389723160  nElectrons: 810.000000
SCF: Cycle:  2   F: -3882.576207154504573   dF: -5.668e-06   |Residual|: 3.470e-04   |deigs|: 3.040e-06  t[s]:  78614.18
	FillingsUpdate:  mu: +0.389723415  nElectrons: 810.000000
SCF: Cycle:  3   F: -3882.576207612548387   dF: -4.580e-07   |Residual|: 1.221e-04   |deigs|: 3.245e-07  t[s]:  78816.27
	FillingsUpdate:  mu: +0.389723570  nElectrons: 810.000000
SCF: Cycle:  4   F: -3882.576207741984035   dF: -1.294e-07   |Residual|: 4.594e-05   |deigs|: 3.989e-07  t[s]:  79021.34
	FillingsUpdate:  mu: +0.389723556  nElectrons: 810.000000
SCF: Cycle:  5   F: -3882.576207785707993   dF: -4.372e-08   |Residual|: 2.484e-05   |deigs|: 1.721e-07  t[s]:  79261.52
	FillingsUpdate:  mu: +0.389723573  nElectrons: 810.000000
SCF: Cycle:  6   F: -3882.576207804223031   dF: -1.852e-08   |Residual|: 7.518e-06   |deigs|: 1.310e-07  t[s]:  79512.71
	FillingsUpdate:  mu: +0.389723565  nElectrons: 810.000000
SCF: Cycle:  7   F: -3882.576207811914173   dF: -7.691e-09   |Residual|: 7.971e-06   |deigs|: 1.067e-07  t[s]:  79769.73
	FillingsUpdate:  mu: +0.389723570  nElectrons: 810.000000
SCF: Cycle:  8   F: -3882.576207815800899   dF: -3.887e-09   |Residual|: 3.149e-06   |deigs|: 1.091e-07  t[s]:  80021.63
SCF: Converged (|Delta E|<1.000000e-08 for 2 iters).

Setting wave functions to eigenvectors of Hamiltonian

# Ionic positions in lattice coordinates:
ion Bi   0.249108813230622   0.247230848840086   0.247431966744569 1
ion Bi   0.084887783779743   0.085767747114523   0.084114962056515 1
ion Bi   0.248355927576330   0.246640154207465   0.580365453728140 1
ion Bi   0.085004217911147   0.086057309365192   0.416947514359057 1
ion Bi   0.248364457480007   0.247423435470892   0.913912957816633 1
ion Bi   0.084357938431984   0.085436143244875   0.751171159002052 1
ion Bi   0.246231002235022   0.581252474550088   0.248317906084191 1
ion Bi   0.086924931405375   0.418244654954188   0.084237630861430 1
ion Bi   0.248194960958607   0.581454210851002   0.580562645084429 1
ion Bi   0.084761935100120   0.417487777481396   0.418570953852212 1
ion Bi   0.248127501334528   0.582213867029690   0.913263472578586 1
ion Bi   0.086616812061625   0.417948404550024   0.750352801209105 1
ion Bi   0.247439694687137   0.914791913070625   0.246927017564297 1
ion Bi   0.084292924779115   0.751869613665860   0.084930338691487 1
ion Bi   0.248166947336934   0.916386988697057   0.579096320037160 1
ion Bi   0.084776715283594   0.752245662555780   0.418525301133594 1
ion Bi   0.246784627456818   0.914610290539362   0.914065959398687 1
ion Bi   0.086064112428543   0.753284635606384   0.749934719192552 1
ion Bi   0.582084416791509   0.249141123564770   0.246054339862826 1
ion Bi   0.418985504924870   0.084631221706631   0.084588106734345 1
ion Bi   0.580208092360714   0.247779109724486   0.581114538813637 1
ion Bi   0.421116357567890   0.084890407109089   0.416741275278137 1
ion Bi   0.580628455937766   0.248074967037029   0.914770084690250 1
ion Bi   0.418445953029073   0.084301300125632   0.751529452590580 1
ion Bi   0.580316572801395   0.581381550341464   0.247321133828129 1
ion Bi   0.418085952096624   0.419675096960926   0.084505288899405 1
ion Bi   0.580711992157450   0.581793761915449   0.580206436850112 1
ion Bi   0.417852640276556   0.418617760474941   0.417979832191727 1
ion Bi   0.580911393021395   0.582013472432018   0.912993446476319 1
ion Bi   0.418664984715129   0.418791688609092   0.751307407025037 1
ion Bi   0.582361058482538   0.914014448712876   0.246602965102766 1
ion Bi   0.417516267815341   0.751430235536486   0.084816063844638 1
ion Bi   0.582956145552380   0.914145686642124   0.580311969292187 1
ion Bi   0.418375263600214   0.752850798592870   0.417153376024266 1
ion Bi   0.580746704349739   0.913410120047676   0.914678594089532 1
ion Bi   0.418599850953205   0.753148109959305   0.750028687864496 1
ion Bi   0.914466657168882   0.249239499190703   0.246058804126821 1
ion Bi   0.752318836765535   0.085458655805271   0.084362441645117 1
ion Bi   0.913290769746058   0.247402385455847   0.581013421235780 1
ion Bi   0.752105943234769   0.086381374713218   0.417171729454502 1
ion Bi   0.914173112625023   0.248788290610807   0.913433832108725 1
ion Bi   0.750319602266632   0.085229687804274   0.752187548013416 1
ion Bi   0.914517385791358   0.580238249520424   0.247538277019892 1
ion Bi   0.752222602329987   0.420425061897538   0.082966231333232 1
ion Bi   0.914731746586524   0.580748888170841   0.580787395286955 1
ion Bi   0.750970107357896   0.418600985136861   0.417989432191679 1
ion Bi   0.917010827812193   0.580870204520260   0.912950398487498 1
ion Bi   0.751509237940093   0.418831297492392   0.750733605858244 1
ion Bi   0.914542271792422   0.914638290848761   0.247573894411293 1
ion Bi   0.752353285020415   0.750770202604394   0.084373688516380 1
ion Bi   0.914094811169714   0.915534445396168   0.580662693839277 1
ion Bi   0.752536644287616   0.751366278526398   0.417680035211663 1
ion Bi   0.913823635098294   0.914522064445460   0.914076836670391 1
ion Bi   0.753103613095551   0.751267146573032   0.751457655736048 1

# Forces in Lattice coordinates:
force Bi  -0.000527341810919   0.000800879721478   0.000049928038448 1
force Bi  -0.001418255834469  -0.001181540142306  -0.001350772125144 1
force Bi   0.002402201341426   0.003458462636544   0.002702247317460 1
force Bi  -0.000735310985443  -0.000140325769061  -0.000297478251227 1
force Bi   0.001915011658024   0.000596346223014  -0.000875251354369 1
force Bi   0.000546243480740   0.001707276119253   0.002005816681496 1
force Bi   0.002168944033438   0.000266027551284   0.000710851530640 1
force Bi  -0.003165018513377  -0.003049585818184  -0.001616399043443 1
force Bi   0.000509853062116   0.000911288605880  -0.000604956877808 1
force Bi   0.000131311058461  -0.000423609311819  -0.000186169817253 1
force Bi   0.001933253115425   0.001282857863699   0.001964676584058 1
force Bi  -0.002527596836628  -0.001272938848131   0.000436830763924 1
force Bi  -0.001037934806582  -0.000210090164653   0.000733031715378 1
force Bi  -0.000456980015140   0.000689479200246  -0.000335478914119 1
force Bi   0.000655331621624  -0.001321412465102   0.000294429441606 1
force Bi  -0.000396221381888  -0.000656867945403  -0.001418385942143 1
force Bi   0.001950976225784  -0.000032353743751   0.000143159476089 1
force Bi  -0.002568240157030  -0.001093893659975   0.000193333769316 1
force Bi  -0.001307660306733   0.000559726743472   0.001125712329985 1
force Bi  -0.000100991815026   0.000079021841418   0.000812446134460 1
force Bi   0.000919039283455   0.001815593104095  -0.000619828217829 1
force Bi  -0.002353939498340  -0.000104102678798   0.000578594073740 1
force Bi   0.001634605597058   0.002093302262697  -0.000116049299515 1
force Bi   0.001297748572795   0.000941983922983   0.001303142594814 1
force Bi   0.001242244648022   0.001929665614879   0.001731478040346 1
force Bi  -0.000373522559991  -0.002125976836453  -0.000413485006526 1
force Bi   0.001214722469916   0.001541991923681   0.000620592209244 1
force Bi   0.000958146090362  -0.000655495044285   0.000961731694161 1
force Bi   0.001808940564227   0.001847851721613   0.001971216613372 1
force Bi  -0.002829173581476  -0.002659554004274  -0.000673421679771 1
force Bi  -0.000521191617549  -0.000273695297501   0.000270887701070 1
force Bi  -0.000589636832997   0.000941882949410  -0.000681648709786 1
force Bi  -0.002061376396051  -0.000549867000468  -0.000739687258310 1
force Bi  -0.000148576636760  -0.001638124305128  -0.000321537497239 1
force Bi   0.000802887866323   0.000553647737062  -0.000594013730557 1
force Bi  -0.000035888782593   0.001097571777036   0.001262314438568 1
force Bi   0.001631321916135   0.001540050504105   0.002138217196183 1
force Bi  -0.000000340178241   0.000376950452800  -0.000926806160097 1
force Bi   0.002422385025471   0.002895914216380  -0.000086497581921 1
force Bi  -0.000516103900820  -0.001341706508176   0.000541141949928 1
force Bi   0.001330379610405  -0.001090567321853  -0.000744728828927 1
force Bi   0.000490748045721  -0.000177917570867  -0.000163185422657 1
force Bi   0.002566335037646   0.002312245972275   0.002211362100230 1
force Bi  -0.000582696098380  -0.002835922808599  -0.000690594002594 1
force Bi   0.002256432409412   0.000587976827684   0.000806102835061 1
force Bi  -0.001097783226000  -0.002279152161902  -0.001099117303211 1
force Bi  -0.001407089400389   0.000028628602324  -0.000878032024691 1
force Bi  -0.000845084273963  -0.000369680961148   0.000596272697201 1
force Bi  -0.001206419751101  -0.000426643836022  -0.000265954661957 1
force Bi  -0.000022004008968   0.000788332363904   0.000257299063208 1
force Bi   0.000057459077225  -0.001237358332912  -0.000468942784929 1
force Bi   0.001250909285118   0.000899436420620   0.000376047078146 1
force Bi   0.002338888130542   0.001121855574445   0.001573691414222 1
force Bi  -0.001771510604062  -0.000857750088449  -0.002029246484719 1

# Energy components:
   Eewald =    -2842.8517556516108016
       EH =      931.2571173963486899
     Eloc =    -2961.2301309162085090
      Enl =     1277.9480340320637879
      Exc =    -1735.4686825137364394
 Exc_core =     1112.0244524796723908
       KE =      335.9895109650744871
-------------------------------------
     Etot =    -3882.3314542083962806
       TS =        0.2447536074047219
-------------------------------------
        F =    -3882.5762078158008990

IonicMinimize: Iter:  18  F: -3882.576207815800899  |grad|_K:  4.958e-05  alpha:  1.000e+00  linmin:  3.320e-02  t[s]:  80071.80
IonicMinimize: Converged (|grad|_K<1.000000e-04).

#--- Lowdin population analysis ---
# oxidation-state Bi +0.040 +0.040 +0.040 +0.040 +0.040 +0.040 +0.040 +0.040 +0.040 +0.040 +0.040 +0.040 +0.040 +0.040 +0.040 +0.040 +0.040 +0.040 +0.040 +0.040 +0.040 +0.040 +0.040 +0.040 +0.040 +0.040 +0.040 +0.040 +0.040 +0.040 +0.040 +0.041 +0.040 +0.040 +0.040 +0.040 +0.040 +0.040 +0.039 +0.040 +0.040 +0.040 +0.040 +0.040 +0.040 +0.040 +0.041 +0.040 +0.040 +0.040 +0.040 +0.040 +0.040 +0.040


Dumping '/data/rc652/Bi/ion/Bi_ion.Ecomponents' ... done
End date and time: Thu Jul  4 01:02:00 2024  (Duration: 0-22:15:00.77)
Done!
