--------------------------------------------------------------------------
[[48967,1],1]: A high-performance Open MPI point-to-point messaging module
was unable to find any relevant network interfaces:

Module: OpenFabrics (openib)
  Host: node3218

Another transport will be used instead, although this may result in
lower performance.
--------------------------------------------------------------------------

*************** JDFTx 1.7.0 (git hash 3664913) ***************

Start date and time: Wed Jul 17 12:14:31 2024
Executable jdftx with command-line: -i W_ion.in
Running on hosts (process indices):  node3218.physics.cornell.edu (0-19)
Divided in process groups (process indices):  0 (0)  1 (1)  2 (2)  3 (3)  4 (4)  5 (5)  6 (6)  7 (7)  8 (8)  9 (9)  10 (10)  11 (11)  12 (12)  13 (13)  14 (14)  15 (15)  16 (16)  17 (17)  18 (18)  19 (19)
Resource initialization completed at t[s]:      0.01
Run totals: 20 processes, 40 threads, 0 GPUs


Input parsed successfully to the following command list (including defaults):

basis kpoint-dependent
coords-type Lattice
core-overlap-check vector
coulomb-interaction Periodic
davidson-band-ratio 1.1
dump End Ecomponents
dump-name $INPUT.$VAR
elec-cutoff 20 100
elec-eigen-algo Davidson
elec-ex-corr gga-PBEsol
elec-smearing Fermi 0.01
electronic-minimize  \
	dirUpdateScheme      FletcherReeves \
	linminMethod         DirUpdateRecommended \
	nIterations          100 \
	history              15 \
	knormThreshold       0 \
	maxThreshold         no \
	energyDiffThreshold  1e-08 \
	nEnergyDiff          2 \
	alphaTstart          1 \
	alphaTmin            1e-10 \
	updateTestStepSize   yes \
	alphaTreduceFactor   0.1 \
	alphaTincreaseFactor 3 \
	nAlphaAdjustMax      3 \
	wolfeEnergy          0.0001 \
	wolfeGradient        0.9 \
	fdTest               no
electronic-scf  \
	nIterations	50 \
	energyDiffThreshold	1e-08 \
	residualThreshold	1e-07 \
	mixFraction	0.5 \
	qMetric	0.8 \
	history	10 \
	nEigSteps	2 \
	eigDiffThreshold	1e-08 \
	mixedVariable	Density \
	qKerker	0.8 \
	qKappa	-1 \
	verbose	no \
	mixFractionMag	1.5
exchange-regularization WignerSeitzTruncated
fluid None
fluid-ex-corr lda-TF lda-PZ
fluid-gummel-loop 10 1.000000e-05
fluid-minimize  \
	dirUpdateScheme      PolakRibiere \
	linminMethod         DirUpdateRecommended \
	nIterations          100 \
	history              15 \
	knormThreshold       0 \
	maxThreshold         no \
	energyDiffThreshold  0 \
	nEnergyDiff          2 \
	alphaTstart          1 \
	alphaTmin            1e-10 \
	updateTestStepSize   yes \
	alphaTreduceFactor   0.1 \
	alphaTincreaseFactor 3 \
	nAlphaAdjustMax      3 \
	wolfeEnergy          0.0001 \
	wolfeGradient        0.9 \
	fdTest               no
fluid-solvent H2O 55.338 ScalarEOS \
	epsBulk 78.4 \
	pMol 0.92466 \
	epsInf 1.77 \
	Pvap 1.06736e-10 \
	sigmaBulk 4.62e-05 \
	Rvdw 2.61727 \
	Res 1.42 \
	tauNuc 343133 \
	poleEl 15 7 1
forces-output-coords Positions
ion W  -0.000000000000000  -0.000000000000000  -0.000000000000000 0
ion W   0.165750000000000   0.169740000000000   0.164220000000000 1
ion W  -0.010310000000000  -0.006870000000000   0.348210000000000 1
ion W   0.155170000000000   0.163500000000000   0.521470000000000 1
ion W   0.006340000000000  -0.001130000000000   0.670930000000000 1
ion W   0.155740000000000   0.172560000000000   0.823700000000000 1
ion W   0.002800000000000   0.326540000000000   0.003120000000000 1
ion W   0.154580000000000   0.512820000000000   0.172680000000000 1
ion W   0.012280000000000   0.343390000000000   0.325850000000000 1
ion W   0.169650000000000   0.502530000000000   0.499520000000000 1
ion W  -0.002950000000000   0.335300000000000   0.656610000000000 1
ion W   0.171720000000000   0.511780000000000   0.821300000000000 1
ion W  -0.003960000000000   0.678540000000000  -0.003590000000000 1
ion W   0.166250000000000   0.815280000000000   0.162930000000000 1
ion W  -0.004790000000000   0.656060000000000   0.329520000000000 1
ion W   0.164010000000000   0.835360000000000   0.502790000000000 1
ion W  -0.002860000000000   0.683030000000000   0.656830000000000 1
ion W   0.167760000000000   0.857010000000000   0.844970000000000 1
ion W   0.325770000000000  -0.009070000000000  -0.002670000000000 1
ion W   0.505780000000000   0.172240000000000   0.161660000000000 1
ion W   0.336360000000000   0.024710000000000   0.319060000000000 1
ion W   0.472680000000000   0.144580000000000   0.510640000000000 1
ion W   0.314090000000000  -0.010070000000000   0.668820000000000 1
ion W   0.488630000000000   0.158870000000000   0.842730000000000 1
ion W   0.334150000000000   0.333210000000000  -0.001220000000000 1
ion W   0.506940000000000   0.505250000000000   0.158780000000000 1
ion W   0.337690000000000   0.340540000000000   0.340060000000000 1
ion W   0.481670000000000   0.482130000000000   0.505460000000000 1
ion W   0.332860000000000   0.334130000000000   0.649670000000000 1
ion W   0.503210000000000   0.486360000000000   0.835290000000000 1
ion W   0.332530000000000   0.663620000000000  -0.023660000000000 1
ion W   0.500850000000000   0.829620000000000   0.182720000000000 1
ion W   0.337270000000000   0.669830000000000   0.336190000000000 1
ion W   0.509020000000000   0.826780000000000   0.509100000000000 1
ion W   0.312060000000000   0.686090000000000   0.698110000000000 1
ion W   0.502170000000000   0.846420000000000   0.825150000000000 1
ion W   0.664390000000000   0.010250000000000   0.001550000000000 1
ion W   0.830600000000000   0.155220000000000   0.174190000000000 1
ion W   0.667230000000000  -0.005080000000000   0.335530000000000 1
ion W   0.824950000000000   0.158470000000000   0.516590000000000 1
ion W   0.641620000000000  -0.008470000000000   0.680130000000000 1
ion W   0.833000000000000   0.174640000000000   0.831620000000000 1
ion W   0.658240000000000   0.342890000000000   0.003700000000000 1
ion W   0.836080000000000   0.503850000000000   0.160180000000000 1
ion W   0.672480000000000   0.335780000000000   0.338590000000000 1
ion W   0.844910000000000   0.494830000000000   0.496450000000000 1
ion W   0.664930000000000   0.339520000000000   0.671840000000000 1
ion W   0.842240000000000   0.507450000000000   0.826780000000000 1
ion W   0.659500000000000   0.663660000000000   0.010170000000000 1
ion W   0.834360000000000   0.814010000000000   0.164490000000000 1
ion W   0.653100000000000   0.659090000000000   0.337050000000000 1
ion W   0.845540000000000   0.829150000000000   0.501860000000000 1
ion W   0.660800000000000   0.684070000000000   0.671190000000000 1
ion W   0.830130000000000   0.824880000000000   0.822220000000000 1
ion-species GBRV/$ID_pbesol.uspp
ion-width 0
ionic-minimize  \
	dirUpdateScheme      L-BFGS \
	linminMethod         DirUpdateRecommended \
	nIterations          50 \
	history              15 \
	knormThreshold       0.0001 \
	maxThreshold         no \
	energyDiffThreshold  1e-06 \
	nEnergyDiff          2 \
	alphaTstart          1 \
	alphaTmin            1e-10 \
	updateTestStepSize   yes \
	alphaTreduceFactor   0.1 \
	alphaTincreaseFactor 3 \
	nAlphaAdjustMax      3 \
	wolfeEnergy          0.0001 \
	wolfeGradient        0.9 \
	fdTest               no
kpoint   0.000000000000   0.000000000000   0.000000000000  1.00000000000000
kpoint-folding 4 4 4 
latt-move-scale 1 1 1
latt-scale 1 1 1 
lattice  \
	  17.830580767642033    0.000000000000000    0.000000000000000  \
	   0.000000000000000   17.830580767642033    0.000000000000000  \
	   0.000000000000000    0.000000000000000   17.830580767642033 
lattice-minimize  \
	dirUpdateScheme      L-BFGS \
	linminMethod         DirUpdateRecommended \
	nIterations          0 \
	history              15 \
	knormThreshold       0 \
	maxThreshold         no \
	energyDiffThreshold  1e-06 \
	nEnergyDiff          2 \
	alphaTstart          1 \
	alphaTmin            1e-10 \
	updateTestStepSize   yes \
	alphaTreduceFactor   0.1 \
	alphaTincreaseFactor 3 \
	nAlphaAdjustMax      3 \
	wolfeEnergy          0.0001 \
	wolfeGradient        0.9 \
	fdTest               no
lcao-params -1 1e-06 0.01
pcm-variant GLSSA13
perturb-minimize  \
	nIterations            0 \
	algorithm              MINRES \
	residualTol            0.0001 \
	residualDiffThreshold  0.0001 \
	CGBypass               no \
	recomputeResidual      no
spintype no-spin
subspace-rotation-factor 1 yes
symmetries automatic
symmetry-threshold 0.0001



---------- Setting up symmetries ----------

Found 48 point-group symmetries of the bravais lattice
Found 1 space-group symmetries with basis
Applied RMS atom displacement 0 bohrs to make symmetries exact.

---------- Initializing the Grid ----------
R = 
[      17.8306            0            0  ]
[            0      17.8306            0  ]
[            0            0      17.8306  ]
unit cell volume = 5668.87
G =
[   0.352383          0          0  ]
[          0   0.352383          0  ]
[          0          0   0.352383  ]
Minimum fftbox size, Smin = [  84  84  84  ]
Chosen fftbox size, S = [  84  84  84  ]

---------- Initializing tighter grid for wavefunction operations ----------
R = 
[      17.8306            0            0  ]
[            0      17.8306            0  ]
[            0            0      17.8306  ]
unit cell volume = 5668.87
G =
[   0.352383          0          0  ]
[          0   0.352383          0  ]
[          0          0   0.352383  ]
Minimum fftbox size, Smin = [  72  72  72  ]
Chosen fftbox size, S = [  72  72  72  ]

---------- Exchange Correlation functional ----------
Initalized PBEsol GGA exchange.
Initalized PBEsol GGA correlation.

---------- Setting up pseudopotentials ----------
Width of ionic core gaussian charges (only for fluid interactions / plotting) set to 0

Reading pseudopotential file '/home/rc652/build/pseudopotentials/GBRV/w_pbesol.uspp':
  Title: W.  Created by USPP 7.3.6 on 3-2-2014
  Reference state energy: -79.054523.  14 valence electrons in orbitals:
    |500>  occupation: 2  eigenvalue: -2.940304
    |510>  occupation: 6  eigenvalue: -1.621550
    |520>  occupation: 3.9  eigenvalue: -0.195776
    |600>  occupation: 2  eigenvalue: -0.236158
    |610>  occupation: 0  eigenvalue: -0.068449
  lMax: 3  lLocal: 3  QijEcut: 5
  8 projectors sampled on a log grid with 667 points:
    l: 0  eig: -2.940304  rCut: 1.45
    l: 0  eig: -0.236158  rCut: 1.45
    l: 0  eig: 0.500000  rCut: 1.45
    l: 1  eig: -1.621550  rCut: 1.5
    l: 1  eig: -0.068449  rCut: 1.5
    l: 2  eig: -0.195776  rCut: 1.7
    l: 2  eig: 0.150000  rCut: 1.7
    l: 3  eig: 0.500000  rCut: 2.3
  Partial core density with radius 1.2
  Transforming core density to a uniform radial grid of dG=0.02 with 1287 points.
  Transforming local potential to a uniform radial grid of dG=0.02 with 1287 points.
  Transforming nonlocal projectors to a uniform radial grid of dG=0.02 with 432 points.
  Transforming density augmentations to a uniform radial grid of dG=0.02 with 1287 points.
  Transforming atomic orbitals to a uniform radial grid of dG=0.02 with 432 points.
  Core radius for overlap checks: 2.30 bohrs.

Initialized 1 species with 54 total atoms.

Folded 1 k-points by 4x4x4 to 64 k-points.

---------- Setting up k-points, bands, fillings ----------
Adding inversion symmetry to k-mesh for non-inversion-symmetric unit cell.
Reduced to 36 k-points under symmetry. 
Computing the number of bands and number of electrons
Calculating initial fillings.
nElectrons: 756.000000   nBands: 702   nStates: 36

----- Setting up reduced wavefunction bases (one per k-point) -----
average nbasis = 24222.172 , ideal nbasis = 24217.843

---------- Setting up ewald sum ----------
Optimum gaussian width for ewald sums = 3.658839 bohr.
Real space sum over 343 unit cells with max indices [  3  3  3  ]
Reciprocal space sum over 6859 terms with max indices [  9  9  9  ]

---------- Allocating electronic variables ----------
Initializing wave functions:  linear combination of atomic orbitals
W pseudo-atom occupations:   s ( 2 2 )  p ( 6 0 )  d ( 4 )
	FillingsUpdate:  mu: +0.844489476  nElectrons: 756.000000
LCAOMinimize: Iter:   0  F: -3713.9423493024505660  |grad|_K:  5.112e-04  alpha:  1.000e+00
	FillingsUpdate:  mu: +0.845016790  nElectrons: 756.000000
LCAOMinimize: Iter:   1  F: -3714.0901828921960259  |grad|_K:  2.039e-04  alpha:  4.746e-02  linmin: -2.981e-01  cgtest:  8.436e-01  t[s]:    360.69
LCAOMinimize: Encountered beta<0, resetting CG.
	FillingsUpdate:  mu: +0.845704838  nElectrons: 756.000000
LCAOMinimize: Iter:   2  F: -3714.1346291398772337  |grad|_K:  1.272e-04  alpha:  1.211e-01  linmin:  6.956e-03  cgtest: -2.568e-02  t[s]:    478.15
	FillingsUpdate:  mu: +0.847392519  nElectrons: 756.000000
LCAOMinimize: Iter:   3  F: -3714.1566043097873262  |grad|_K:  1.092e-04  alpha:  1.556e-01  linmin:  3.840e-03  cgtest:  2.409e-02  t[s]:    597.16
	FillingsUpdate:  mu: +0.848863721  nElectrons: 756.000000
LCAOMinimize: Iter:   4  F: -3714.1799447631274234  |grad|_K:  6.326e-05  alpha:  2.253e-01  linmin:  6.070e-03  cgtest:  9.821e-03  t[s]:    714.34
	FillingsUpdate:  mu: +0.849205005  nElectrons: 756.000000
LCAOMinimize: Iter:   5  F: -3714.1847511669211599  |grad|_K:  2.528e-05  alpha:  1.371e-01  linmin: -6.381e-04  cgtest:  6.103e-02  t[s]:    833.64
	FillingsUpdate:  mu: +0.849217656  nElectrons: 756.000000
LCAOMinimize: Iter:   6  F: -3714.1851666384113742  |grad|_K:  6.973e-06  alpha:  7.295e-02  linmin: -4.866e-04  cgtest: -5.677e-03  t[s]:    952.38
	FillingsUpdate:  mu: +0.849205542  nElectrons: 756.000000
LCAOMinimize: Iter:   7  F: -3714.1852557796069050  |grad|_K:  4.453e-06  alpha:  2.060e-01  linmin:  2.749e-04  cgtest: -5.907e-04  t[s]:   1069.71
	FillingsUpdate:  mu: +0.849245105  nElectrons: 756.000000
LCAOMinimize: Iter:   8  F: -3714.1852929957340166  |grad|_K:  3.740e-06  alpha:  2.111e-01  linmin:  4.316e-05  cgtest:  1.134e-03  t[s]:   1188.02
	FillingsUpdate:  mu: +0.849248780  nElectrons: 756.000000
LCAOMinimize: Iter:   9  F: -3714.1853051472985499  |grad|_K:  1.353e-06  alpha:  9.763e-02  linmin: -9.116e-05  cgtest:  6.178e-04  t[s]:   1308.02
	FillingsUpdate:  mu: +0.849251047  nElectrons: 756.000000
LCAOMinimize: Iter:  10  F: -3714.1853073306629085  |grad|_K:  6.686e-07  alpha:  1.340e-01  linmin:  1.610e-04  cgtest: -9.474e-04  t[s]:   1425.45
	FillingsUpdate:  mu: +0.849244063  nElectrons: 756.000000
LCAOMinimize: Iter:  11  F: -3714.1853085984148493  |grad|_K:  6.830e-07  alpha:  3.188e-01  linmin:  2.160e-05  cgtest:  4.977e-04  t[s]:   1544.80
	FillingsUpdate:  mu: +0.849244049  nElectrons: 756.000000
LCAOMinimize: Iter:  12  F: -3714.1853090862791760  |grad|_K:  4.288e-07  alpha:  1.177e-01  linmin: -3.609e-05  cgtest:  1.826e-04  t[s]:   1663.54
	FillingsUpdate:  mu: +0.849243111  nElectrons: 756.000000
LCAOMinimize: Iter:  13  F: -3714.1853092958008347  |grad|_K:  1.056e-07  alpha:  1.282e-01  linmin:  2.195e-03  cgtest: -8.424e-03  t[s]:   1781.88
LCAOMinimize: Converged (|Delta F|<1.000000e-06 for 2 iters).


---- Citations for features of the code used in this run ----

   Software package:
      R. Sundararaman, K. Letchworth-Weaver, K.A. Schwarz, D. Gunceler, Y. Ozhabes and T.A. Arias, 'JDFTx: software for joint density-functional theory', SoftwareX 6, 278 (2017)

   gga-PBEsol exchange-correlation functional:
      J.P. Perdew et al., Phys. Rev. Lett. 100, 136406 (2008)

   Pseudopotentials:
      KF Garrity, JW Bennett, KM Rabe and D Vanderbilt, Comput. Mater. Sci. 81, 446 (2014)

This list may not be complete. Please suggest additional citations or
report any other bugs at https://github.com/shankar1729/jdftx/issues

Initialization completed successfully at t[s]:   1862.07


-------- Electronic minimization -----------
Will mix electronic density at each iteration.
	FillingsUpdate:  mu: +0.849243111  nElectrons: 756.000000
	FillingsUpdate:  mu: +0.843682537  nElectrons: 756.000000
SCF: Cycle:  0   F: -3714.770744008380461   dF: -5.854e-01   |Residual|: 1.643e-01   |deigs|: 5.834e-02  t[s]:   2491.46
	FillingsUpdate:  mu: +0.841667269  nElectrons: 756.000000
SCF: Cycle:  1   F: -3714.799540400365458   dF: -2.880e-02   |Residual|: 6.572e-02   |deigs|: 4.481e-03  t[s]:   3026.38
	FillingsUpdate:  mu: +0.840618572  nElectrons: 756.000000
SCF: Cycle:  2   F: -3714.800663161198372   dF: -1.123e-03   |Residual|: 2.077e-02   |deigs|: 2.151e-03  t[s]:   3532.58
	FillingsUpdate:  mu: +0.840536354  nElectrons: 756.000000
SCF: Cycle:  3   F: -3714.803249109814260   dF: -2.586e-03   |Residual|: 8.452e-03   |deigs|: 2.186e-04  t[s]:   3845.40
	FillingsUpdate:  mu: +0.840564208  nElectrons: 756.000000
SCF: Cycle:  4   F: -3714.803270337687536   dF: -2.123e-05   |Residual|: 2.855e-03   |deigs|: 9.581e-05  t[s]:   4155.29
	FillingsUpdate:  mu: +0.840557755  nElectrons: 756.000000
SCF: Cycle:  5   F: -3714.803309903753416   dF: -3.957e-05   |Residual|: 7.991e-04   |deigs|: 3.674e-05  t[s]:   4469.05
	FillingsUpdate:  mu: +0.840549371  nElectrons: 756.000000
SCF: Cycle:  6   F: -3714.803311652837237   dF: -1.749e-06   |Residual|: 3.057e-04   |deigs|: 3.137e-05  t[s]:   4780.26
	FillingsUpdate:  mu: +0.840550660  nElectrons: 756.000000
SCF: Cycle:  7   F: -3714.803311941878746   dF: -2.890e-07   |Residual|: 1.494e-04   |deigs|: 2.354e-05  t[s]:   5091.09
	FillingsUpdate:  mu: +0.840552104  nElectrons: 756.000000
SCF: Cycle:  8   F: -3714.803312030402139   dF: -8.852e-08   |Residual|: 5.227e-05   |deigs|: 2.171e-05  t[s]:   5405.85
	FillingsUpdate:  mu: +0.840551728  nElectrons: 756.000000
SCF: Cycle:  9   F: -3714.803312052090405   dF: -2.169e-08   |Residual|: 2.711e-05   |deigs|: 2.161e-05  t[s]:   5721.55
	FillingsUpdate:  mu: +0.840551400  nElectrons: 756.000000
SCF: Cycle: 10   F: -3714.803312060585085   dF: -8.495e-09   |Residual|: 9.144e-06   |deigs|: 1.922e-05  t[s]:   6029.82
	FillingsUpdate:  mu: +0.840551522  nElectrons: 756.000000
SCF: Cycle: 11   F: -3714.803312064217607   dF: -3.633e-09   |Residual|: 5.008e-06   |deigs|: 1.891e-05  t[s]:   6339.91
SCF: Converged (|Delta E|<1.000000e-08 for 2 iters).

Setting wave functions to eigenvectors of Hamiltonian

# Ionic positions in lattice coordinates:
ion W   0.000000000000000   0.000000000000000   0.000000000000000 0
ion W   0.165750000000000   0.169740000000000   0.164220000000000 1
ion W  -0.010310000000000  -0.006870000000000   0.348210000000000 1
ion W   0.155170000000000   0.163500000000000   0.521470000000000 1
ion W   0.006340000000000  -0.001130000000000   0.670930000000000 1
ion W   0.155740000000000   0.172560000000000   0.823700000000000 1
ion W   0.002800000000000   0.326540000000000   0.003120000000000 1
ion W   0.154580000000000   0.512820000000000   0.172680000000000 1
ion W   0.012280000000000   0.343390000000000   0.325850000000000 1
ion W   0.169650000000000   0.502530000000000   0.499520000000000 1
ion W  -0.002950000000000   0.335300000000000   0.656610000000000 1
ion W   0.171720000000000   0.511780000000000   0.821300000000000 1
ion W  -0.003960000000000   0.678540000000000  -0.003590000000000 1
ion W   0.166250000000000   0.815280000000000   0.162930000000000 1
ion W  -0.004790000000000   0.656060000000000   0.329520000000000 1
ion W   0.164010000000000   0.835360000000000   0.502790000000000 1
ion W  -0.002860000000000   0.683030000000000   0.656830000000000 1
ion W   0.167760000000000   0.857010000000000   0.844970000000000 1
ion W   0.325770000000000  -0.009070000000000  -0.002670000000000 1
ion W   0.505780000000000   0.172240000000000   0.161660000000000 1
ion W   0.336360000000000   0.024710000000000   0.319060000000000 1
ion W   0.472680000000000   0.144580000000000   0.510640000000000 1
ion W   0.314090000000000  -0.010070000000000   0.668820000000000 1
ion W   0.488630000000000   0.158870000000000   0.842730000000000 1
ion W   0.334150000000000   0.333210000000000  -0.001220000000000 1
ion W   0.506940000000000   0.505250000000000   0.158780000000000 1
ion W   0.337690000000000   0.340540000000000   0.340060000000000 1
ion W   0.481670000000000   0.482130000000000   0.505460000000000 1
ion W   0.332860000000000   0.334130000000000   0.649670000000000 1
ion W   0.503210000000000   0.486360000000000   0.835290000000000 1
ion W   0.332530000000000   0.663620000000000  -0.023660000000000 1
ion W   0.500850000000000   0.829620000000000   0.182720000000000 1
ion W   0.337270000000000   0.669830000000000   0.336190000000000 1
ion W   0.509020000000000   0.826780000000000   0.509100000000000 1
ion W   0.312060000000000   0.686090000000000   0.698110000000000 1
ion W   0.502170000000000   0.846420000000000   0.825150000000000 1
ion W   0.664390000000000   0.010250000000000   0.001550000000000 1
ion W   0.830600000000000   0.155220000000000   0.174190000000000 1
ion W   0.667230000000000  -0.005080000000000   0.335530000000000 1
ion W   0.824950000000000   0.158470000000000   0.516590000000000 1
ion W   0.641620000000000  -0.008470000000000   0.680130000000000 1
ion W   0.833000000000000   0.174640000000000   0.831620000000000 1
ion W   0.658240000000000   0.342890000000000   0.003700000000000 1
ion W   0.836080000000000   0.503850000000000   0.160180000000000 1
ion W   0.672480000000000   0.335780000000000   0.338590000000000 1
ion W   0.844910000000000   0.494830000000000   0.496450000000000 1
ion W   0.664930000000000   0.339520000000000   0.671840000000000 1
ion W   0.842240000000000   0.507450000000000   0.826780000000000 1
ion W   0.659500000000000   0.663660000000000   0.010170000000000 1
ion W   0.834360000000000   0.814010000000000   0.164490000000000 1
ion W   0.653100000000000   0.659090000000000   0.337050000000000 1
ion W   0.845540000000000   0.829150000000000   0.501860000000000 1
ion W   0.660800000000000   0.684070000000000   0.671190000000000 1
ion W   0.830130000000000   0.824880000000000   0.822220000000000 1

# Forces in Lattice coordinates:
force W  -0.468744096561858   0.184966888452614   0.343692482996482 0
force W  -0.031000724787882  -0.028328263715420   0.138328624410949 1
force W   0.638754518721742   0.369713222922526  -0.840994064260153 1
force W   0.243184258794808   0.173549382350536  -1.693609255180237 1
force W  -1.200968807518674   0.136774273179340   0.079862957242195 1
force W   0.487872526255268   0.252443151233804   0.816660729193706 1
force W  -0.275841767496946   0.562925300144568  -0.360709975874165 1
force W   1.066213772010834  -0.759336147942915  -0.752263465716204 1
force W  -0.616736817913119  -0.876840679434584   0.404276996943383 1
force W  -0.189323125595655   0.171831223084593  -0.036465862022221 1
force W   0.045679332326244   0.222164291998762   0.682549759710147 1
force W  -0.925741487073941  -0.969237467804903   0.741026298982937 1
force W   0.177106845636368  -0.813679822464241  -0.310333889912979 1
force W   0.122745875491576   1.024215542043325   0.365688686461769 1
force W   0.136177240670355   0.883811419441147   0.384247476163983 1
force W   0.320842788953818  -0.127279975759080  -0.625241473761297 1
force W   0.339702677087226  -1.089499733973979   0.569951523992243 1
force W  -0.937440294556872  -1.264436019619879  -0.310534155505960 1
force W   0.569117066633729   0.763367078757018   0.787895477275934 1
force W  -0.276590731245602  -0.017732564336799   0.470706188302668 1
force W  -0.562364482055513  -1.324821628620633   0.403838828539156 1
force W   1.284504308155254   0.885849175319833  -0.348451702246996 1
force W   0.920634851885918   0.771295416293426  -0.107177017675160 1
force W   0.115704433971369   0.577707773296539  -0.426277254758156 1
force W  -0.422142429586678   0.108257293321240   0.016538558117696 1
force W  -0.873777886692218  -0.425329240893443   0.668371466420046 1
force W  -0.390425538573219  -0.432080936983732  -0.886312846463110 1
force W   1.372378588675241   1.250300201957207  -0.190365982885365 1
force W  -0.525513755560151  -0.271191310762985   1.659488211694033 1
force W  -0.175875613515993   0.716400690468971  -0.380720345024746 1
force W   0.283903114828139   0.121547112713641   1.459764749458826 1
force W  -0.133307416586828   0.346345213028905  -0.869591525777619 1
force W  -0.380126212207521  -0.021682011609787   0.146627636653481 1
force W  -0.879519746257965   0.147031866478109  -0.645210289408357 1
force W   1.078921654482246  -0.523206009823600  -2.077444018053638 1
force W  -0.522004675634474  -1.100724090620603   1.609535158459339 1
force W   0.223217336438359  -0.637136024452982   0.077365345811324 1
force W   0.214285198796118   0.511144881255888  -0.146602479312886 1
force W  -0.118305412405185   0.072807592782789   0.262005552605345 1
force W  -0.119711103162704   0.187658566240574  -0.591551920470759 1
force W   1.562527929965660   1.282329333796411  -0.948770496837990 1
force W  -0.258679821097959  -0.301700162319099   0.320569796032727 1
force W   0.873292803464704  -0.568877680119479  -0.231768201105721 1
force W  -0.242424740094840  -0.604102441438207   0.159538838864111 1
force W  -0.186424968094574  -0.354304905933031  -0.013202468345109 1
force W  -0.843492853133734   0.281207571375388   0.115325841425574 1
force W   0.025086593031424  -0.382223379104165  -0.183349667161096 1
force W  -0.346966724608381  -0.309231551718969   0.216798858851861 1
force W   0.272739644906864   0.464084258680007  -0.842802725208853 1
force W  -0.303170626985607   1.149957836950179   0.258514924792769 1
force W   0.802153811381832   0.050522676677702   0.329254410421606 1
force W  -1.178903147679493   0.154049635603810  -0.323928974937303 1
force W   0.135047346975062  -1.549970429206721  -0.207308605648493 1
force W   0.070847692789664   0.922146739913138   0.863962032806678 1

# Energy components:
   Eewald =    -3220.6742008943188011
       EH =      434.8358429695263681
     Eloc =     -872.4892244344534902
      Enl =     -798.4310244551797950
      Exc =    -1109.3478755429562170
 Exc_core =      578.9515157167301140
       KE =     1272.6281947281190696
-------------------------------------
     Etot =    -3714.5267719125326948
       TS =        0.2765401516847873
-------------------------------------
        F =    -3714.8033120642176073

IonicMinimize: Iter:   0  F: -3714.803312064217607  |grad|_K:  3.790e-02  t[s]:   6420.30

#--- Lowdin population analysis ---
# oxidation-state W +0.021 -0.010 +0.012 +0.013 -0.004 +0.027 +0.018 +0.013 +0.024 +0.021 -0.014 +0.010 -0.010 +0.025 -0.002 +0.004 -0.003 -0.022 +0.019 +0.004 +0.016 +0.013 -0.011 +0.019 +0.014 -0.005 +0.039 +0.002 -0.016 -0.000 +0.031 +0.003 -0.009 +0.012 +0.021 -0.023 +0.017 +0.008 +0.021 +0.029 -0.006 +0.022 +0.023 +0.014 +0.020 +0.002 +0.009 +0.033 +0.008 +0.015 +0.021 +0.018 +0.010 +0.015


-------- Electronic minimization -----------
Will mix electronic density at each iteration.
	FillingsUpdate:  mu: +0.840551522  nElectrons: 756.000000
	FillingsUpdate:  mu: +0.847556580  nElectrons: 756.000000
SCF: Cycle:  0   F: -3667.639673667149054   dF: +4.421e+01   |Residual|: 1.865e+00   |deigs|: 8.838e-03  t[s]:   7165.46
	FillingsUpdate:  mu: +0.838788475  nElectrons: 756.000000
SCF: Cycle:  1   F: -3684.291182712989666   dF: -1.665e+01   |Residual|: 1.492e+00   |deigs|: 1.530e-02  t[s]:   7719.80
	FillingsUpdate:  mu: +0.843073005  nElectrons: 756.000000
SCF: Cycle:  2   F: -3714.294085991029533   dF: -3.000e+01   |Residual|: 3.145e-01   |deigs|: 3.399e-02  t[s]:   8264.61
	FillingsUpdate:  mu: +0.841581900  nElectrons: 756.000000
SCF: Cycle:  3   F: -3714.854134364780748   dF: -5.600e-01   |Residual|: 1.164e-01   |deigs|: 3.770e-03  t[s]:   8809.01
	FillingsUpdate:  mu: +0.841444876  nElectrons: 756.000000
SCF: Cycle:  4   F: -3714.943261625918240   dF: -8.913e-02   |Residual|: 5.690e-02   |deigs|: 1.045e-03  t[s]:   9335.82
	FillingsUpdate:  mu: +0.841245791  nElectrons: 756.000000
SCF: Cycle:  5   F: -3714.952932618601153   dF: -9.671e-03   |Residual|: 1.757e-02   |deigs|: 5.254e-04  t[s]:   9687.40
	FillingsUpdate:  mu: +0.841220813  nElectrons: 756.000000
SCF: Cycle:  6   F: -3714.953814829957992   dF: -8.822e-04   |Residual|: 7.314e-03   |deigs|: 7.905e-05  t[s]:  10001.94
	FillingsUpdate:  mu: +0.841209522  nElectrons: 756.000000
SCF: Cycle:  7   F: -3714.954044142033581   dF: -2.293e-04   |Residual|: 1.766e-03   |deigs|: 3.305e-05  t[s]:  10312.49
	FillingsUpdate:  mu: +0.841219717  nElectrons: 756.000000
SCF: Cycle:  8   F: -3714.954047172825540   dF: -3.031e-06   |Residual|: 8.239e-04   |deigs|: 2.066e-05  t[s]:  10626.32
	FillingsUpdate:  mu: +0.841223061  nElectrons: 756.000000
SCF: Cycle:  9   F: -3714.954050598038066   dF: -3.425e-06   |Residual|: 2.938e-04   |deigs|: 7.092e-06  t[s]:  10935.34
	FillingsUpdate:  mu: +0.841222579  nElectrons: 756.000000
SCF: Cycle: 10   F: -3714.954051009081013   dF: -4.110e-07   |Residual|: 1.098e-04   |deigs|: 2.575e-06  t[s]:  11248.51
	FillingsUpdate:  mu: +0.841222207  nElectrons: 756.000000
SCF: Cycle: 11   F: -3714.954051055784475   dF: -4.670e-08   |Residual|: 6.366e-05   |deigs|: 9.158e-07  t[s]:  11563.36
	FillingsUpdate:  mu: +0.841222119  nElectrons: 756.000000
SCF: Cycle: 12   F: -3714.954051076507312   dF: -2.072e-08   |Residual|: 2.779e-05   |deigs|: 4.195e-07  t[s]:  11873.77
	FillingsUpdate:  mu: +0.841222147  nElectrons: 756.000000
SCF: Cycle: 13   F: -3714.954051082682781   dF: -6.175e-09   |Residual|: 2.137e-05   |deigs|: 2.627e-07  t[s]:  12187.40
	FillingsUpdate:  mu: +0.841222170  nElectrons: 756.000000
SCF: Cycle: 14   F: -3714.954051085960600   dF: -3.278e-09   |Residual|: 1.387e-05   |deigs|: 2.606e-07  t[s]:  12504.53
SCF: Converged (|Delta E|<1.000000e-08 for 2 iters).

Setting wave functions to eigenvectors of Hamiltonian

# Ionic positions in lattice coordinates:
ion W   0.000000000000000   0.000000000000000   0.000000000000000 0
ion W   0.165677516876688   0.169673765386257   0.164543427623364 1
ion W  -0.008816521287385  -0.006005569593602   0.346243662861718 1
ion W   0.155738591693848   0.163905777650930   0.517510154243980 1
ion W   0.003532002097875  -0.000810206621731   0.671116728427075 1
ion W   0.156880699926303   0.173150240008427   0.825609443109569 1
ion W   0.002155051438804   0.327856181612681   0.002276620180983 1
ion W   0.157072925724865   0.511044588101637   0.170921124814939 1
ion W   0.010838001107088   0.341339849510715   0.326795244332898 1
ion W   0.169207341592747   0.502931760404534   0.499434738781377 1
ion W  -0.002843196668773   0.335819444686618   0.658205876829909 1
ion W   0.169555514013903   0.509513815600190   0.823032601446380 1
ion W  -0.003545904606443   0.676637526580060  -0.004315594958319 1
ion W   0.166536993432899   0.817674729218092   0.163785020595029 1
ion W  -0.004471602549770   0.658126448850402   0.330418413098001 1
ion W   0.164760165926587   0.835062405339192   0.501328116281079 1
ion W  -0.002065737569006   0.680482629120580   0.658162609701154 1
ion W   0.165568160908091   0.854053608736350   0.844243936798575 1
ion W   0.327100658647557  -0.007285163339563  -0.000827813230923 1
ion W   0.505133300278723   0.172198539303315   0.162760563129530 1
ion W   0.335045129642039   0.021612420503707   0.320004219846707 1
ion W   0.475683313141848   0.146651213349027   0.509825281380519 1
ion W   0.316242546108221  -0.008266626009509   0.668569408278630 1
ion W   0.488900529763824   0.160220744669888   0.841733316631047 1
ion W   0.333162984309620   0.333463117525312  -0.001181331021915 1
ion W   0.504897010658899   0.504255533192316   0.160342726412042 1
ion W   0.336777141908777   0.339529746980102   0.337987702536557 1
ion W   0.484878772928819   0.485053340158498   0.505014903277061 1
ion W   0.331631290716368   0.333495924721001   0.653550066982477 1
ion W   0.502798783363318   0.488035024050020   0.834399833724712 1
ion W   0.333193796882861   0.663904190592938  -0.020246908562142 1
ion W   0.500538312515887   0.830429793414706   0.180686798833740 1
ion W   0.336381222872951   0.669779305058772   0.336532831631878 1
ion W   0.506963585556171   0.827123776765917   0.507591426981496 1
ion W   0.314582638159606   0.684866686481142   0.693252706115299 1
ion W   0.500949495333347   0.843846385333298   0.828913271219082 1
ion W   0.664911906820987   0.008760305505995   0.001730888735307 1
ion W   0.831101022495263   0.156415113266275   0.173847227188766 1
ion W   0.666953388860923  -0.004909767795372   0.336142597960459 1
ion W   0.824670102200459   0.158908766483376   0.515206886182821 1
ion W   0.645273363119747  -0.005471772188760   0.677911669642009 1
ion W   0.832395177967639   0.173934591651707   0.832369527638944 1
ion W   0.660281855162863   0.341559901064590   0.003158100311674 1
ion W   0.835513184144877   0.502437541676680   0.160553019450658 1
ion W   0.672044117805528   0.334951595942922   0.338559131168783 1
ion W   0.842937820416959   0.495487494404135   0.496719644572579 1
ion W   0.664988655229147   0.338626319464795   0.671411308199247 1
ion W   0.841428753422480   0.506726982430300   0.827286899710490 1
ion W   0.660137695455477   0.664745080325671   0.008199434012378 1
ion W   0.833651153542680   0.816698728610995   0.165094436486561 1
ion W   0.654975524331224   0.659208127606007   0.337819833227925 1
ion W   0.842783594051096   0.829510185086316   0.501102618229244 1
ion W   0.661115755633801   0.680445997705918   0.670705289551145 1
ion W   0.830295649741674   0.827036081069647   0.824240038789058 1

# Forces in Lattice coordinates:
force W  -0.419141495599901   0.168450312486356   0.330387465827630 0
force W  -0.042898465021453  -0.041380330917582   0.127816245526197 1
force W   0.517515121127091   0.300387520162900  -0.720947627672900 1
force W   0.214144756012778   0.156208508936747  -1.353531753869233 1
force W  -0.897047863667858   0.141152911550274   0.010154019269842 1
force W   0.397908649211143   0.104206079800356   0.649192825848979 1
force W  -0.241955976250981   0.496185326580181  -0.287030755809459 1
force W   0.835795825482749  -0.629353410213501  -0.585196799069089 1
force W  -0.555091341937937  -0.684075959995682   0.360267894077753 1
force W  -0.150760325767159   0.092346069380349  -0.018115684316999 1
force W   0.045672242080945   0.136883142822055   0.531149458835636 1
force W  -0.623846356630201  -0.649344911429072   0.607080889298320 1
force W   0.138014564547229  -0.669654173873381  -0.143852409671212 1
force W   0.062960315331350   0.892055791451717   0.294441504653818 1
force W   0.150217293913306   0.653655064649815   0.239806001582541 1
force W   0.212655056610873  -0.063352406768907  -0.441017225746296 1
force W   0.198502264612148  -0.840026588687859   0.448153945191561 1
force W  -0.580190756502338  -1.041960304711919  -0.340623401979057 1
force W   0.392991091976791   0.580450737334914   0.521886751234137 1
force W  -0.241099971572529  -0.053560042721190   0.400966336649715 1
force W  -0.448085082945570  -1.177177660125244   0.457676428251915 1
force W   1.110588313878647   0.855790960802933  -0.348010686968711 1
force W   0.708083617710921   0.629753711940586  -0.042068393046124 1
force W   0.161166404907782   0.465402413777200  -0.359745828223477 1
force W  -0.316612346459706   0.102364796004820   0.019328640894358 1
force W  -0.645890705944527  -0.325033061204081   0.510345860673395 1
force W  -0.294752638875578  -0.316905063994972  -0.608899570561666 1
force W   1.010214627417872   0.936180078603515  -0.122323808727405 1
force W  -0.335249291824081  -0.132764546912250   1.219730020923587 1
force W  -0.170271302321268   0.646503646516662  -0.273988293661060 1
force W   0.154396886985258   0.094809324645478   1.250791808367936 1
force W  -0.104013353694823   0.267154121170567  -0.749059308109416 1
force W  -0.305153167282322  -0.040240281253133   0.075168580458498 1
force W  -0.707124946473867   0.147954999008017  -0.429505364917098 1
force W   0.902525950283927  -0.599445537507327  -1.688437334735292 1
force W  -0.301496141676103  -0.764320684521066   1.074191452569691 1
force W   0.161469461880091  -0.538427421395849   0.069985926880500 1
force W   0.173649256643939   0.458953187921245  -0.139672119527537 1
force W  -0.120396976228252   0.079586860814498   0.187261381975792 1
force W  -0.045613019669464   0.212877623946081  -0.563902157377171 1
force W   1.168306056372573   0.787084832906087  -0.630190023439586 1
force W  -0.218727643773909  -0.284099714866013   0.272834725982203 1
force W   0.658490983565607  -0.462907029868334  -0.185741626177614 1
force W  -0.194929377072413  -0.437387357394520   0.181320720254201 1
force W  -0.196878196170146  -0.308299765971294  -0.027853102963377 1
force W  -0.717611925094779   0.242823436056139   0.116652225734204 1
force W  -0.010138037064967  -0.336566010010506  -0.168198239476644 1
force W  -0.356797397777136  -0.254041783256146   0.200193580714287 1
force W   0.239499247894851   0.319559642765297  -0.642588014304015 1
force W  -0.232435385665239   0.939848572301990   0.189027067306571 1
force W   0.669927295469155   0.082867480370293   0.193198852299709 1
force W  -0.922130889079889   0.115397185802036  -0.190066512439703 1
force W   0.097796688827898  -1.172259493895093  -0.166807201415093 1
force W   0.013080576583446   0.717264841377398   0.686857322702342 1

# Energy components:
   Eewald =    -3227.3273568225604322
       EH =      428.3096331480409731
     Eloc =     -858.9217337899959830
      Enl =     -798.3073193907280256
      Exc =    -1109.1098093171767687
 Exc_core =      578.9512236869354638
       KE =     1271.7195386354615039
-------------------------------------
     Etot =    -3714.6858238500226435
       TS =        0.2682272359381433
-------------------------------------
        F =    -3714.9540510859606002

IonicMinimize: Iter:   1  F: -3714.954051085960600  |grad|_K:  2.970e-02  alpha:  7.434e-01  linmin: -9.904e-01  t[s]:  12584.32

#--- Lowdin population analysis ---
# oxidation-state W +0.019 -0.008 +0.011 +0.012 -0.002 +0.023 +0.016 +0.014 +0.021 +0.020 -0.011 +0.007 -0.008 +0.024 -0.002 +0.003 +0.001 -0.018 +0.017 +0.005 +0.015 +0.013 -0.006 +0.018 +0.012 -0.002 +0.034 +0.004 -0.013 +0.002 +0.027 +0.005 -0.008 +0.012 +0.022 -0.017 +0.016 +0.009 +0.018 +0.024 -0.004 +0.019 +0.020 +0.013 +0.018 +0.003 +0.010 +0.029 +0.008 +0.015 +0.019 +0.016 +0.010 +0.013


-------- Electronic minimization -----------
Will mix electronic density at each iteration.
	FillingsUpdate:  mu: +0.841222170  nElectrons: 756.000000
	FillingsUpdate:  mu: +0.846081037  nElectrons: 756.000000
SCF: Cycle:  0   F: -3687.749514502445891   dF: +2.523e+01   |Residual|: 1.457e+00   |deigs|: 5.309e-03  t[s]:  13326.06
	FillingsUpdate:  mu: +0.840154637  nElectrons: 756.000000
SCF: Cycle:  1   F: -3700.269903102121589   dF: -1.252e+01   |Residual|: 1.082e+00   |deigs|: 1.199e-02  t[s]:  13876.08
	FillingsUpdate:  mu: +0.842844228  nElectrons: 756.000000
SCF: Cycle:  2   F: -3714.674830970235689   dF: -1.440e+01   |Residual|: 2.455e-01   |deigs|: 2.372e-02  t[s]:  14426.45
	FillingsUpdate:  mu: +0.841970952  nElectrons: 756.000000
SCF: Cycle:  3   F: -3715.010757367204405   dF: -3.359e-01   |Residual|: 7.764e-02   |deigs|: 2.634e-03  t[s]:  14975.48
	FillingsUpdate:  mu: +0.841894476  nElectrons: 756.000000
SCF: Cycle:  4   F: -3715.048626356137447   dF: -3.787e-02   |Residual|: 3.869e-02   |deigs|: 5.899e-04  t[s]:  15442.32
	FillingsUpdate:  mu: +0.841803428  nElectrons: 756.000000
SCF: Cycle:  5   F: -3715.052470305784936   dF: -3.844e-03   |Residual|: 1.155e-02   |deigs|: 2.866e-04  t[s]:  15754.26
	FillingsUpdate:  mu: +0.841789618  nElectrons: 756.000000
SCF: Cycle:  6   F: -3715.052809503461049   dF: -3.392e-04   |Residual|: 4.902e-03   |deigs|: 4.684e-05  t[s]:  16064.36
	FillingsUpdate:  mu: +0.841784810  nElectrons: 756.000000
SCF: Cycle:  7   F: -3715.052922824556390   dF: -1.133e-04   |Residual|: 1.130e-03   |deigs|: 1.922e-05  t[s]:  16374.77
	FillingsUpdate:  mu: +0.841790125  nElectrons: 756.000000
SCF: Cycle:  8   F: -3715.052923644808288   dF: -8.203e-07   |Residual|: 5.513e-04   |deigs|: 1.042e-05  t[s]:  16684.65
	FillingsUpdate:  mu: +0.841791225  nElectrons: 756.000000
SCF: Cycle:  9   F: -3715.052925305239569   dF: -1.660e-06   |Residual|: 2.035e-04   |deigs|: 3.126e-06  t[s]:  16998.57
	FillingsUpdate:  mu: +0.841791181  nElectrons: 756.000000
SCF: Cycle: 10   F: -3715.052925452182990   dF: -1.469e-07   |Residual|: 8.470e-05   |deigs|: 1.299e-06  t[s]:  17309.99
	FillingsUpdate:  mu: +0.841791036  nElectrons: 756.000000
SCF: Cycle: 11   F: -3715.052925496883745   dF: -4.470e-08   |Residual|: 4.607e-05   |deigs|: 5.532e-07  t[s]:  17619.47
	FillingsUpdate:  mu: +0.841790973  nElectrons: 756.000000
SCF: Cycle: 12   F: -3715.052925513734863   dF: -1.685e-08   |Residual|: 2.524e-05   |deigs|: 3.525e-07  t[s]:  17931.06
	FillingsUpdate:  mu: +0.841790993  nElectrons: 756.000000
SCF: Cycle: 13   F: -3715.052925519968085   dF: -6.233e-09   |Residual|: 1.732e-05   |deigs|: 2.582e-07  t[s]:  18243.11
	FillingsUpdate:  mu: +0.841791009  nElectrons: 756.000000
SCF: Cycle: 14   F: -3715.052925523285012   dF: -3.317e-09   |Residual|: 9.283e-06   |deigs|: 2.857e-07  t[s]:  18555.35
SCF: Converged (|Delta E|<1.000000e-08 for 2 iters).

Setting wave functions to eigenvectors of Hamiltonian

# Ionic positions in lattice coordinates:
ion W   0.000000000000000   0.000000000000000   0.000000000000000 0
ion W   0.165472352540624   0.169469069557589   0.164956557115022 1
ion W  -0.007483003417220  -0.005227026903034   0.344175328202329 1
ion W   0.156381487450850   0.164391304482794   0.514121500222875 1
ion W   0.001624783566183  -0.000285040137653   0.670852606811667 1
ion W   0.157920053110177   0.172884900041588   0.827215954777140 1
ion W   0.001433296376786   0.329348161645297   0.001564755341889 1
ion W   0.159077344710187   0.509347623603247   0.169542424763399 1
ion W   0.009112772123543   0.339717283054763   0.327897716100947 1
ion W   0.168832852267920   0.502920296905608   0.499448875987530 1
ion W  -0.002679409644672   0.335942738374125   0.659458263164207 1
ion W   0.168619482946825   0.508563919946514   0.824632594065724 1
ion W  -0.003219414686286   0.674856555363386  -0.004113800101545 1
ion W   0.166505061409106   0.820304570946663   0.164533951827870 1
ion W  -0.003872269771781   0.659478691602505   0.330655808386470 1
ion W   0.165056479847707   0.835110788804925   0.500540533726223 1
ion W  -0.001962517411707   0.678545189514436   0.659244935770975 1
ion W   0.165027368343342   0.851275475187698   0.842892459478407 1
ion W   0.327750895432876  -0.005991820569292  -0.000102771616583 1
ion W   0.504421535180102   0.171851963590005   0.163898077233172 1
ion W   0.333930636793223   0.018026659631101   0.321877932291605 1
ion W   0.478916961927195   0.149591179203033   0.508578935025881 1
ion W   0.317865916135788  -0.006618060872345   0.668699225415606 1
ion W   0.489674606923988   0.161405862317361   0.840729819844368 1
ion W   0.332482337330578   0.333804875630449  -0.001099973761761 1
ion W   0.503562833890536   0.503522117342775   0.161491929973836 1
ion W   0.336132403395270   0.338889636802682   0.336999732005985 1
ion W   0.486940790857347   0.487056945857387   0.504869507259377 1
ion W   0.331249119203144   0.333616534908211   0.656029037861267 1
ion W   0.502212215132435   0.490052555783505   0.833877253215909 1
ion W   0.333189237634203   0.664128976573261  -0.016661520700076 1
ion W   0.500291534532069   0.831046600761869   0.178519727345594 1
ion W   0.335609934590053   0.669554959005959   0.336494359371600 1
ion W   0.505170524209677   0.827658443016595   0.506980860616582 1
ion W   0.317059316073166   0.682387892010378   0.688873762450867 1
ion W   0.500818783772049   0.842555278228761   0.830458117050145 1
ion W   0.665224847961145   0.007254640264137   0.001950099339607 1
ion W   0.831548671918511   0.157836271993721   0.173376129478695 1
ion W   0.666512530406359  -0.004595076913398   0.336492017733686 1
ion W   0.824825962467140   0.159781046878415   0.513303485849540 1
ion W   0.647764210718313  -0.004783839712892   0.677024822010046 1
ion W   0.831782893021470   0.172991462660249   0.833142329280742 1
ion W   0.661717642757591   0.340356422504823   0.002690318971507 1
ion W   0.835018780612775   0.501587490000530   0.161297292276760 1
ion W   0.671292885487611   0.334044129592604   0.338396062877145 1
ion W   0.840906605029212   0.496192966780804   0.497143772339436 1
ion W   0.664800425052926   0.337615968131448   0.670873336952517 1
ion W   0.840106605603714   0.506053727560399   0.827933364013382 1
ion W   0.660853421246648   0.665268178209691   0.006757796667772 1
ion W   0.833122419220624   0.819163923455314   0.165472851430122 1
ion W   0.656808345798290   0.659644808335213   0.337926212513128 1
ion W   0.840583131325222   0.829757447079243   0.500998018765960 1
ion W   0.661305931676887   0.677869784855234   0.670281601225864 1
ion W   0.830093510930576   0.828725447855999   0.825940097805891 1

# Forces in Lattice coordinates:
force W  -0.369112041410923   0.141430142741049   0.295171917348279 0
force W  -0.030974701341289  -0.050517104519411   0.119517970323510 1
force W   0.403182705977684   0.242266579949931  -0.600376620196150 1
force W   0.204522795035268   0.141405868828755  -1.081169938038299 1
force W  -0.694054518769690   0.115165645464865  -0.015757446809458 1
force W   0.323755162232343   0.050103388850872   0.515519460268656 1
force W  -0.200165350307362   0.408055397708456  -0.227214927856920 1
force W   0.661130752072154  -0.524385518504254  -0.451983118823609 1
force W  -0.482099020410466  -0.544554232118617   0.304585973984255 1
force W  -0.146383511494698   0.060396882188690  -0.006938667941090 1
force W   0.033389951917352   0.090627753470164   0.429772119311397 1
force W  -0.475641600134276  -0.493907532828917   0.500485179047280 1
force W   0.110559277552761  -0.525713319102086  -0.076593273860606 1
force W   0.031132822885767   0.756629392233770   0.235205414743729 1
force W   0.132171449486338   0.513248728239519   0.184898387408383 1
force W   0.149954107503259  -0.046441279965344  -0.312931665028093 1
force W   0.132168263148152  -0.669718480440580   0.373630608967810 1
force W  -0.418750713781486  -0.884910713773269  -0.318961962519485 1
force W   0.308479291526311   0.475414944740744   0.384776515121662 1
force W  -0.222885245634074  -0.079726103294197   0.325439970365535 1
force W  -0.347468008852437  -0.994049334188382   0.448038956541035 1
force W   0.935351207074376   0.735608189069540  -0.311212919461072 1
force W   0.592754026638693   0.530947413002394  -0.054488428973246 1
force W   0.168958520125983   0.389449549228228  -0.292314774403082 1
force W  -0.235767855848379   0.072776470928280   0.022245596643432 1
force W  -0.491941520823471  -0.258752586826553   0.411600088383026 1
force W  -0.247009782787333  -0.270560594923625  -0.467687494739099 1
force W   0.818438972714611   0.783464922051480  -0.110827910114666 1
force W  -0.258753131359698  -0.104051606399626   0.968597323500170 1
force W  -0.150570868264614   0.560153544546792  -0.192983650675183 1
force W   0.102570038511265   0.110677219685729   1.049306135757673 1
force W  -0.090803301985134   0.208876010447326  -0.623071067720902 1
force W  -0.237917635015753  -0.039760392792726   0.029330698141502 1
force W  -0.589437936786859   0.138266950119569  -0.348804988215112 1
force W   0.784091830185704  -0.558206988357497  -1.392906682791625 1
force W  -0.292832210121787  -0.652608220673445   0.843860130730164 1
force W   0.114086225714711  -0.437870105379702   0.075572856473913 1
force W   0.132658155758057   0.395213722600388  -0.134414033860946 1
force W  -0.107055136442905   0.076134311721753   0.136921341722821 1
force W  -0.001706006503837   0.197174889602225  -0.490746482810212 1
force W   0.976308033472210   0.638670915823940  -0.543888825897825 1
force W  -0.170659286931277  -0.248471031513226   0.211728917819365 1
force W   0.497317023185826  -0.384845899012371  -0.146250591793054 1
force W  -0.163760465429123  -0.334945243621359   0.177358051004055 1
force W  -0.192049778280975  -0.246930532071132  -0.039982297187256 1
force W  -0.595017792713051   0.202792364780884   0.110624196621312 1
force W  -0.022627780981385  -0.292135058595868  -0.137554999560080 1
force W  -0.326358550473451  -0.216547670799109   0.177953301621628 1
force W   0.208238334975574   0.238565003357728  -0.508040440416398 1
force W  -0.178308326029372   0.774660369308398   0.150207154495116 1
force W   0.536478361231730   0.099333325731999   0.119885999992167 1
force W  -0.729005751997195   0.110547351112955  -0.144317719517381 1
force W   0.088286767855372  -0.946197611655378  -0.142264701860412 1
force W   0.023165075549399   0.549822254234404   0.568600789282586 1

# Energy components:
   Eewald =    -3231.4946945546062125
       EH =      424.1999726312043890
     Eloc =     -850.3877595761089196
      Enl =     -798.2277232338398107
      Exc =    -1108.9571270078756697
 Exc_core =      578.9510569611438768
       KE =     1271.1251190467532979
-------------------------------------
     Etot =    -3714.7911557333295605
       TS =        0.2617697899552786
-------------------------------------
        F =    -3715.0529255232850119

IonicMinimize: Iter:   2  F: -3715.052925523285012  |grad|_K:  2.433e-02  alpha:  1.908e-01  linmin: -9.730e-01  t[s]:  18634.77

#--- Lowdin population analysis ---
# oxidation-state W +0.018 -0.006 +0.010 +0.011 -0.000 +0.020 +0.014 +0.013 +0.019 +0.018 -0.007 +0.006 -0.005 +0.022 +0.000 +0.003 +0.003 -0.014 +0.015 +0.007 +0.014 +0.013 -0.003 +0.017 +0.011 +0.001 +0.029 +0.005 -0.009 +0.004 +0.025 +0.006 -0.006 +0.013 +0.020 -0.012 +0.014 +0.010 +0.016 +0.021 -0.002 +0.017 +0.017 +0.012 +0.016 +0.003 +0.010 +0.026 +0.008 +0.015 +0.017 +0.015 +0.010 +0.011


-------- Electronic minimization -----------
Will mix electronic density at each iteration.
	FillingsUpdate:  mu: +0.841791009  nElectrons: 756.000000
	FillingsUpdate:  mu: +0.844763396  nElectrons: 756.000000
SCF: Cycle:  0   F: -3696.213940581419592   dF: +1.720e+01   |Residual|: 1.264e+00   |deigs|: 4.015e-03  t[s]:  19383.57
	FillingsUpdate:  mu: +0.841586719  nElectrons: 756.000000
SCF: Cycle:  1   F: -3706.609326182657696   dF: -1.040e+01   |Residual|: 8.523e-01   |deigs|: 8.743e-03  t[s]:  19937.63
	FillingsUpdate:  mu: +0.842933451  nElectrons: 756.000000
SCF: Cycle:  2   F: -3714.858679591324744   dF: -8.249e+00   |Residual|: 2.104e-01   |deigs|: 1.830e-02  t[s]:  20493.56
	FillingsUpdate:  mu: +0.842374323  nElectrons: 756.000000
SCF: Cycle:  3   F: -3715.104450591165460   dF: -2.458e-01   |Residual|: 5.636e-02   |deigs|: 1.913e-03  t[s]:  21045.01
	FillingsUpdate:  mu: +0.842315956  nElectrons: 756.000000
SCF: Cycle:  4   F: -3715.123321188084446   dF: -1.887e-02   |Residual|: 2.949e-02   |deigs|: 3.345e-04  t[s]:  21495.34
	FillingsUpdate:  mu: +0.842273881  nElectrons: 756.000000
SCF: Cycle:  5   F: -3715.125494331005484   dF: -2.173e-03   |Residual|: 8.080e-03   |deigs|: 1.801e-04  t[s]:  21811.31
	FillingsUpdate:  mu: +0.842262455  nElectrons: 756.000000
SCF: Cycle:  6   F: -3715.125646811395200   dF: -1.525e-04   |Residual|: 3.218e-03   |deigs|: 3.335e-05  t[s]:  22122.20
	FillingsUpdate:  mu: +0.842261391  nElectrons: 756.000000
SCF: Cycle:  7   F: -3715.125696549579970   dF: -4.974e-05   |Residual|: 8.496e-04   |deigs|: 1.200e-05  t[s]:  22430.72
	FillingsUpdate:  mu: +0.842264671  nElectrons: 756.000000
SCF: Cycle:  8   F: -3715.125697436667451   dF: -8.871e-07   |Residual|: 3.442e-04   |deigs|: 6.016e-06  t[s]:  22740.28
	FillingsUpdate:  mu: +0.842265008  nElectrons: 756.000000
SCF: Cycle:  9   F: -3715.125698121506048   dF: -6.848e-07   |Residual|: 1.535e-04   |deigs|: 1.653e-06  t[s]:  23052.02
	FillingsUpdate:  mu: +0.842265013  nElectrons: 756.000000
SCF: Cycle: 10   F: -3715.125698189523973   dF: -6.802e-08   |Residual|: 6.040e-05   |deigs|: 7.160e-07  t[s]:  23367.42
	FillingsUpdate:  mu: +0.842264926  nElectrons: 756.000000
SCF: Cycle: 11   F: -3715.125698224928328   dF: -3.540e-08   |Residual|: 3.894e-05   |deigs|: 3.889e-07  t[s]:  23676.27
	FillingsUpdate:  mu: +0.842264896  nElectrons: 756.000000
SCF: Cycle: 12   F: -3715.125698238276982   dF: -1.335e-08   |Residual|: 2.667e-05   |deigs|: 2.318e-07  t[s]:  23985.48
	FillingsUpdate:  mu: +0.842264908  nElectrons: 756.000000
SCF: Cycle: 13   F: -3715.125698244402884   dF: -6.126e-09   |Residual|: 1.096e-05   |deigs|: 1.901e-07  t[s]:  24299.25
	FillingsUpdate:  mu: +0.842264922  nElectrons: 756.000000
SCF: Cycle: 14   F: -3715.125698246843513   dF: -2.441e-09   |Residual|: 5.039e-06   |deigs|: 2.182e-07  t[s]:  24607.13
SCF: Converged (|Delta E|<1.000000e-08 for 2 iters).

Setting wave functions to eigenvectors of Hamiltonian

# Ionic positions in lattice coordinates:
ion W   0.000000000000000   0.000000000000000   0.000000000000000 0
ion W   0.165353828480574   0.169096728984572   0.165491678237035 1
ion W  -0.006564755366049  -0.004589618629491   0.342260905029748 1
ion W   0.157292795231628   0.164973380277798   0.511468985029359 1
ion W   0.000401275247021   0.000152560876296   0.670358666418894 1
ion W   0.158805304200871   0.172280739766680   0.828436561218271 1
ion W   0.000785929284870   0.330655051725737   0.001032630282907 1
ion W   0.160568484213607   0.507755991714223   0.168651045084130 1
ion W   0.007294209098483   0.338468490111618   0.328963046902173 1
ion W   0.168221665393820   0.502751925442774   0.499551138413576 1
ion W  -0.002589963970342   0.335813967467762   0.660507370842343 1
ion W   0.168153320441311   0.508111755689089   0.826074217347680 1
ion W  -0.002959633313950   0.673576932180247  -0.003496582573887 1
ion W   0.166248774620362   0.822895932394107   0.165120128231068 1
ion W  -0.003257912564962   0.660433539311693   0.330766631567193 1
ion W   0.165048760180513   0.835195953858060   0.500400312688328 1
ion W  -0.002197950922563   0.677041290540942   0.660284627034256 1
ion W   0.165135201339630   0.848459347627698   0.841269235686722 1
ion W   0.328199297787135  -0.004832468624406   0.000082025694415 1
ion W   0.503495160016026   0.171131933032619   0.164849264659216 1
ion W   0.333186155260938   0.014572904233062   0.324341656389649 1
ion W   0.482030943097494   0.152515457817112   0.507202997208050 1
ion W   0.319471922614502  -0.004986965655076   0.668540795778477 1
ion W   0.490766605960430   0.162549952888430   0.839885424828956 1
ion W   0.332157442264779   0.333960734599204  -0.000953505034467 1
ion W   0.502807186310092   0.502957322920008   0.162442141303609 1
ion W   0.335484350818646   0.338172397776765   0.336445697219001 1
ion W   0.488704131214150   0.489068280660789   0.504592120107996 1
ion W   0.331052477641804   0.333727306048350   0.657910013012373 1
ion W   0.501577559039263   0.492160482423818   0.833782194253032 1
ion W   0.332938382909743   0.664733230048775  -0.013248170414539 1
ion W   0.500003556233146   0.831474971314780   0.176525590552462 1
ion W   0.335077765332382   0.669288251008251   0.336092086814837 1
ion W   0.503466010700861   0.828320041777219   0.506424470861817 1
ion W   0.319767955522590   0.679492663360406   0.684907098042390 1
ion W   0.500068262639211   0.841017958750578   0.831514161391218 1
ion W   0.665289020797562   0.005983498041887   0.002361849692314 1
ion W   0.831824747883334   0.159294326211186   0.172729674132345 1
ion W   0.666036602890081  -0.004196932178310   0.336612602675433 1
ion W   0.825368544864430   0.160790134842448   0.511328534302925 1
ion W   0.650249590668252  -0.004100315751798   0.675822058035363 1
ion W   0.831354452779619   0.171993523322354   0.833669632559484 1
ion W   0.662494130854457   0.339230376694053   0.002350120867035 1
ion W   0.834533217967593   0.501094474447983   0.162273084618221 1
ion W   0.670283330110021   0.333328045277775   0.338052855212650 1
ion W   0.839053727399385   0.496851610928332   0.497687096722488 1
ion W   0.664478015464863   0.336542761466112   0.670415099685842 1
ion W   0.838572742938880   0.505360493389100   0.828657817071353 1
ion W   0.661618996714329   0.665478127394152   0.005690581657210 1
ion W   0.832797698215129   0.821384726938005   0.165761163060926 1
ion W   0.658256835534924   0.660388486199376   0.337594396418090 1
ion W   0.838951497090431   0.830176776002129   0.501001406447424 1
ion W   0.661580340488787   0.675726461655426   0.669839533763360 1
ion W   0.830095263066675   0.829766607426740   0.827515634408124 1

# Forces in Lattice coordinates:
force W  -0.319799750434669   0.116630122929810   0.248781610847264 0
force W  -0.021809898931020  -0.051313398604424   0.106763923715685 1
force W   0.323327156305769   0.203842299226816  -0.490464328052724 1
force W   0.182449324202837   0.120885885782500  -0.875470614114053 1
force W  -0.547243861982573   0.086088150773240  -0.016635199398835 1
force W   0.268338172707296   0.030838653329936   0.418145467854274 1
force W  -0.160482128036914   0.323777304349948  -0.177942279478082 1
force W   0.527624008274785  -0.428610787253039  -0.352658271792294 1
force W  -0.406134741794078  -0.444393378974019   0.249164963219355 1
force W  -0.128972622167392   0.045259627073842  -0.001883703007791 1
force W   0.020884264862017   0.071750098498490   0.360318107897818 1
force W  -0.385671754978302  -0.409118166950662   0.410134063442634 1
force W   0.093410155312281  -0.423627461583017  -0.053494433072915 1
force W   0.020208803305719   0.625010617640634   0.193425650321460 1
force W   0.105226963654240   0.422947010548867   0.162208199453298 1
force W   0.118826749430234  -0.048838637569229  -0.237085491277543 1
force W   0.107821120639575  -0.554447498850486   0.318340530074963 1
force W  -0.333644055438676  -0.728565418606959  -0.273912166665993 1
force W   0.251007885176684   0.393146368573605   0.302987786193794 1
force W  -0.200936391872920  -0.084358410972592   0.264620042577991 1
force W  -0.275974972465685  -0.818484952201493   0.383743711801730 1
force W   0.783831847182785   0.613073318139759  -0.258757205549176 1
force W   0.508799152256959   0.424996468298782  -0.050229034688227 1
force W   0.156787234505675   0.312694542455336  -0.248488195390779 1
force W  -0.186173269997554   0.053536721913522   0.025209714574152 1
force W  -0.399121676243741  -0.214499324808250   0.341411272704787 1
force W  -0.209210684775160  -0.227699425590500  -0.373861702346442 1
force W   0.667182514686788   0.651694667229567  -0.100985277802548 1
force W  -0.199511920382215  -0.078413628048362   0.786025406208341 1
force W  -0.129744800449151   0.461997068921296  -0.144660305403296 1
force W   0.073860189417643   0.103335887391810   0.867879475247771 1
force W  -0.080724290352072   0.171483816753571  -0.508957016379256 1
force W  -0.200873193196179  -0.040202932460390   0.011969090960221 1
force W  -0.475797986673155   0.127167799610117  -0.292719307811128 1
force W   0.654128817287273  -0.477278106857352  -1.148682367026185 1
force W  -0.227447708437510  -0.518888583327467   0.653382691274333 1
force W   0.080693594624656  -0.362276673527180   0.051672115255916 1
force W   0.098174676277600   0.332351416299699  -0.124189973303355 1
force W  -0.086043352937933   0.069367641297032   0.098078743339726 1
force W   0.021176402231277   0.173236876277505  -0.415951218578101 1
force W   0.795237804541293   0.502754095508523  -0.439676713477781 1
force W  -0.131859414647414  -0.211230154361052   0.163627248883449 1
force W   0.391613878968520  -0.319781743771664  -0.114079614566383 1
force W  -0.137789501077486  -0.269178464293927   0.155078539953024 1
force W  -0.173285106588633  -0.187883093193666  -0.044375442704447 1
force W  -0.492540984590897   0.166263442765725   0.097027965628926 1
force W  -0.024925951031273  -0.234225340549161  -0.111761306282412 1
force W  -0.274793950175733  -0.189302070468256   0.157631016198161 1
force W   0.174426318572525   0.194395044332540  -0.413310096523765 1
force W  -0.143401250505004   0.641109695977402   0.127224029081177 1
force W   0.435436992876002   0.101986713010488   0.086466271241474 1
force W  -0.598478318251697   0.099558521825506  -0.118112106395948 1
force W   0.076854283400682  -0.759094566470306  -0.120558431802718 1
force W   0.018308529301992   0.441390282927632   0.463297146221109 1

# Energy components:
   Eewald =    -3234.3575905573775344
       EH =      421.3700442804519071
     Eloc =     -844.5087165305286590
      Enl =     -798.1715400540335850
      Exc =    -1108.8483840499955022
 Exc_core =      578.9509366167334292
       KE =     1270.6961536046874244
-------------------------------------
     Etot =    -3714.8690966900630883
       TS =        0.2566015567803871
-------------------------------------
        F =    -3715.1256982468435126

IonicMinimize: Iter:   3  F: -3715.125698246843513  |grad|_K:  1.992e-02  alpha:  1.761e-01  linmin: -9.408e-01  t[s]:  24686.71

#--- Lowdin population analysis ---
# oxidation-state W +0.016 -0.003 +0.010 +0.011 +0.002 +0.018 +0.013 +0.012 +0.017 +0.017 -0.004 +0.007 -0.002 +0.020 +0.002 +0.004 +0.004 -0.009 +0.014 +0.008 +0.013 +0.011 -0.000 +0.015 +0.010 +0.002 +0.026 +0.006 -0.005 +0.005 +0.022 +0.007 -0.003 +0.013 +0.018 -0.007 +0.012 +0.010 +0.015 +0.019 +0.000 +0.015 +0.016 +0.012 +0.015 +0.004 +0.010 +0.023 +0.008 +0.014 +0.016 +0.014 +0.010 +0.010


-------- Electronic minimization -----------
Will mix electronic density at each iteration.
	FillingsUpdate:  mu: +0.842264922  nElectrons: 756.000000
	FillingsUpdate:  mu: +0.844397868  nElectrons: 756.000000
SCF: Cycle:  0   F: -3698.631545605453084   dF: +1.494e+01   |Residual|: 1.203e+00   |deigs|: 3.635e-03  t[s]:  25440.86
	FillingsUpdate:  mu: +0.842009045  nElectrons: 756.000000
SCF: Cycle:  1   F: -3708.173010765247000   dF: -9.541e+00   |Residual|: 7.839e-01   |deigs|: 7.637e-03  t[s]:  25996.16
	FillingsUpdate:  mu: +0.843193032  nElectrons: 756.000000
SCF: Cycle:  2   F: -3714.939928195856737   dF: -6.767e+00   |Residual|: 2.018e-01   |deigs|: 1.661e-02  t[s]:  26541.59
	FillingsUpdate:  mu: +0.842749594  nElectrons: 756.000000
SCF: Cycle:  3   F: -3715.163367095171452   dF: -2.234e-01   |Residual|: 5.146e-02   |deigs|: 1.769e-03  t[s]:  27094.86
	FillingsUpdate:  mu: +0.842690811  nElectrons: 756.000000
SCF: Cycle:  4   F: -3715.180101087655657   dF: -1.673e-02   |Residual|: 2.697e-02   |deigs|: 2.906e-04  t[s]:  27440.78
	FillingsUpdate:  mu: +0.842655167  nElectrons: 756.000000
SCF: Cycle:  5   F: -3715.181789878793552   dF: -1.689e-03   |Residual|: 7.235e-03   |deigs|: 1.586e-04  t[s]:  27754.79
	FillingsUpdate:  mu: +0.842644434  nElectrons: 756.000000
SCF: Cycle:  6   F: -3715.181911716192644   dF: -1.218e-04   |Residual|: 2.862e-03   |deigs|: 2.791e-05  t[s]:  28073.31
	FillingsUpdate:  mu: +0.842644469  nElectrons: 756.000000
SCF: Cycle:  7   F: -3715.181947975261664   dF: -3.626e-05   |Residual|: 8.028e-04   |deigs|: 1.014e-05  t[s]:  28387.40
	FillingsUpdate:  mu: +0.842647295  nElectrons: 756.000000
SCF: Cycle:  8   F: -3715.181948898342853   dF: -9.231e-07   |Residual|: 3.515e-04   |deigs|: 5.406e-06  t[s]:  28700.34
	FillingsUpdate:  mu: +0.842647705  nElectrons: 756.000000
SCF: Cycle:  9   F: -3715.181949556714699   dF: -6.584e-07   |Residual|: 1.461e-04   |deigs|: 1.440e-06  t[s]:  29015.05
	FillingsUpdate:  mu: +0.842647687  nElectrons: 756.000000
SCF: Cycle: 10   F: -3715.181949626396090   dF: -6.968e-08   |Residual|: 5.871e-05   |deigs|: 6.864e-07  t[s]:  29331.19
	FillingsUpdate:  mu: +0.842647610  nElectrons: 756.000000
SCF: Cycle: 11   F: -3715.181949667446133   dF: -4.105e-08   |Residual|: 4.047e-05   |deigs|: 3.949e-07  t[s]:  29647.31
	FillingsUpdate:  mu: +0.842647589  nElectrons: 756.000000
SCF: Cycle: 12   F: -3715.181949683512812   dF: -1.607e-08   |Residual|: 2.934e-05   |deigs|: 2.695e-07  t[s]:  29961.51
	FillingsUpdate:  mu: +0.842647600  nElectrons: 756.000000
SCF: Cycle: 13   F: -3715.181949690722377   dF: -7.210e-09   |Residual|: 7.588e-06   |deigs|: 2.327e-07  t[s]:  30271.29
	FillingsUpdate:  mu: +0.842647614  nElectrons: 756.000000
SCF: Cycle: 14   F: -3715.181949693824208   dF: -3.102e-09   |Residual|: 5.478e-06   |deigs|: 2.524e-07  t[s]:  30583.01
SCF: Converged (|Delta E|<1.000000e-08 for 2 iters).

Setting wave functions to eigenvectors of Hamiltonian

# Ionic positions in lattice coordinates:
ion W   0.000000000000000   0.000000000000000   0.000000000000000 0
ion W   0.165301929159412   0.168598159409917   0.166129415685184 1
ion W  -0.005794884590575  -0.003897877369994   0.340480657989087 1
ion W   0.158377803018620   0.165595996598616   0.509094721739180 1
ion W  -0.000463611426312   0.000427788215011   0.669857422428177 1
ion W   0.159695514967386   0.171591449994077   0.829540239714378 1
ion W   0.000233086969006   0.331716482857827   0.000652155018163 1
ion W   0.161781754931753   0.506267356717209   0.168064753238806 1
ion W   0.005417960266042   0.337294681234723   0.329955141697394 1
ion W   0.167505511756729   0.502546333095511   0.499701715664904 1
ion W  -0.002608720060731   0.335674420257206   0.661643647207732 1
ion W   0.167718738613388   0.507552016905257   0.827442374887662 1
ion W  -0.002665180236180   0.672467634633400  -0.002814640460499 1
ion W   0.165941161258952   0.825409304785520   0.165691587699045 1
ion W  -0.002739087323018   0.661408823536809   0.331069677983073 1
ion W   0.165002484845327   0.835090908113581   0.500532443230137 1
ion W  -0.002392130602420   0.675499801936668   0.661468335818901 1
ion W   0.165306324658099   0.845744140491468   0.839571811801876 1
ion W   0.328625734182580  -0.003660360611079   0.000118369376606 1
ion W   0.502339882801892   0.170172822447973   0.165716154080492 1
ion W   0.332606387069059   0.011271574705208   0.326876162056914 1
ion W   0.485234823048914   0.155400564068539   0.505867033036299 1
ion W   0.321372540243583  -0.003602440253268   0.668294641300670 1
ion W   0.492058773186435   0.163534109149071   0.838944321189493 1
ion W   0.331941917934412   0.334011877797618  -0.000708148570444 1
ion W   0.502116457570747   0.502371557184098   0.163424319691035 1
ion W   0.334755198096987   0.337388482660477   0.336018629686582 1
ion W   0.490363914746977   0.491154177619034   0.504160789526346 1
ion W   0.331027248264177   0.333910288005871   0.659631227054779 1
ion W   0.500886720534485   0.494179011907883   0.833881379279104 1
ion W   0.332572976272185   0.665496533672120  -0.009906271503383 1
ion W   0.499630477532356   0.831895934295945   0.174672679544953 1
ion W   0.334472288612244   0.668924103195242   0.335545524828783 1
ion W   0.501960843678324   0.829152633500171   0.505753792735241 1
ion W   0.322501529365019   0.676508810567657   0.681024096665714 1
ion W   0.499529691787318   0.839774790328143   0.832006187817083 1
ion W   0.665161102156939   0.004725568561408   0.002581674460025 1
ion W   0.831924400780197   0.160793394627251   0.171907142785645 1
ion W   0.665621954566108  -0.003718826878456   0.336518559208504 1
ion W   0.826211007128424   0.161905520438394   0.509270597320550 1
ion W   0.652563129930723  -0.003689801242194   0.674737574831217 1
ion W   0.831073030679446   0.170942902716208   0.834015186483384 1
ion W   0.663013713412980   0.338092049940140   0.002114762215873 1
ion W   0.834015464922570   0.500682763790115   0.163326990691840 1
ion W   0.669098363250646   0.332880664147631   0.337554962383498 1
ion W   0.837226839315132   0.497473032209376   0.498291298741686 1
ion W   0.664085998829868   0.335618916698567   0.670000800730930 1
ion W   0.837035580732619   0.504517857492697   0.829520272053150 1
ion W   0.662396351282587   0.665688365668189   0.004702279887151 1
ion W   0.832522620563656   0.823592802001689   0.166109541649329 1
ion W   0.659566764811193   0.661395603820265   0.337131854170023 1
ion W   0.837360667145078   0.830714587154361   0.500978404603922 1
ion W   0.661913435837889   0.673911596489819   0.669357796360091 1
ion W   0.830096198792307   0.830636735845580   0.828974711882808 1

# Forces in Lattice coordinates:
force W  -0.275459303358717   0.095277851689089   0.204424395801801 0
force W  -0.019514820282755  -0.043296439092649   0.084756470163104 1
force W   0.257389019041393   0.168345873244535  -0.385129870958090 1
force W   0.157167327376026   0.095022657246986  -0.685542760800098 1
force W  -0.424565754514279   0.064577459349079  -0.018536580231467 1
force W   0.222607103049318   0.020546316758924   0.328676806426453 1
force W  -0.125160203922373   0.246305624619754  -0.132783539365244 1
force W   0.406829200410828  -0.339116851617684  -0.269362199805524 1
force W  -0.329411448082372  -0.350899335640170   0.199991363414233 1
force W  -0.108061175022853   0.029305582274787  -0.000080451573572 1
force W   0.015569596325176   0.053148077860710   0.292403732882427 1
force W  -0.307057134736904  -0.343029970387787   0.328876395160046 1
force W   0.072824156266198  -0.336760219511471  -0.037436204989528 1
force W   0.013364774921076   0.494518607060267   0.154094456231877 1
force W   0.075737531535232   0.341441870903181   0.139480265474053 1
force W   0.092031909824201  -0.046190296885286  -0.183543172594674 1
force W   0.086325269898822  -0.448098914610211   0.260102919949253 1
force W  -0.261155564903567  -0.580860492439546  -0.217073473276626 1
force W   0.202584115952109   0.313217159756324   0.238931462492699 1
force W  -0.166203119685635  -0.073420704731855   0.203603006915316 1
force W  -0.212427396969380  -0.641800605490149   0.305078219094597 1
force W   0.628140009519207   0.486885535587331  -0.203790998629328 1
force W   0.412888650507148   0.331163643478321  -0.042261677948405 1
force W   0.128374055186372   0.251436226956399  -0.201980832779871 1
force W  -0.145860849426069   0.040043671520760   0.024413414187507 1
force W  -0.320953234539194  -0.169931754381688   0.274684958812943 1
force W  -0.172291713906129  -0.186417440940019  -0.293712742639327 1
force W   0.531952584884096   0.526118655734288  -0.090210142848294 1
force W  -0.155189671026383  -0.064512270281978   0.625509716028610 1
force W  -0.107533517355191   0.366283064652380  -0.107367347559530 1
force W   0.060515167201951   0.085700428271164   0.671359217474508 1
force W  -0.068485844875366   0.135401824308501  -0.404589528149454 1
force W  -0.163823937865698  -0.036059010500998   0.009592646502095 1
force W  -0.371789252541533   0.108523169489829  -0.250064819274459 1
force W   0.511943622121328  -0.375444435508118  -0.896323743074228 1
force W  -0.186172397758659  -0.424105709505706   0.521588671026057 1
force W   0.062064049698419  -0.287178932430763   0.033866170765788 1
force W   0.069116132528751   0.265464960108700  -0.110106265973710 1
force W  -0.065501747567645   0.065486190996277   0.069061085210488 1
force W   0.027916217524891   0.141697170245887  -0.331480350707397 1
force W   0.652283851161378   0.414601024403871  -0.369269959738227 1
force W  -0.099383538474914  -0.170711392936409   0.122465258633055 1
force W   0.304589665380136  -0.258499739443572  -0.087461977789764 1
force W  -0.111888510600613  -0.206995323568117   0.125479274735486 1
force W  -0.144844764200098  -0.137939957342428  -0.043175434779411 1
force W  -0.393948818432243   0.133850384369456   0.080488143356101 1
force W  -0.014813823150471  -0.180417272617106  -0.091233945060313 1
force W  -0.220512312061654  -0.155599093295943   0.135494668705275 1
force W   0.134885134815810   0.155441597095886  -0.325823052307007 1
force W  -0.112843797220476   0.514721091900801   0.101166710957772 1
force W   0.344188158578233   0.090558659064890   0.060940530674215 1
force W  -0.475051455821326   0.082871925961474  -0.089627644475528 1
force W   0.069869709028761  -0.604685354306357  -0.098363977057799 1
force W   0.022040342605824   0.346173618297626   0.368111067054177 1

# Energy components:
   Eewald =    -3236.5066922186629199
       EH =      419.2432015868598683
     Eloc =     -840.0890851236531489
      Enl =     -798.1284745473642488
      Exc =    -1108.7651096398101345
 Exc_core =      578.9508418518578310
       KE =     1270.3659391836283703
-------------------------------------
     Etot =    -3714.9293789071443825
       TS =        0.2525707866796781
-------------------------------------
        F =    -3715.1819496938242082

IonicMinimize: Iter:   4  F: -3715.181949693824208  |grad|_K:  1.584e-02  alpha:  1.989e-01  linmin: -9.162e-01  t[s]:  30662.96

#--- Lowdin population analysis ---
# oxidation-state W +0.015 +0.000 +0.009 +0.010 +0.003 +0.015 +0.011 +0.011 +0.015 +0.015 -0.001 +0.007 +0.001 +0.017 +0.004 +0.005 +0.005 -0.005 +0.013 +0.009 +0.012 +0.010 +0.002 +0.014 +0.010 +0.004 +0.022 +0.006 -0.002 +0.006 +0.019 +0.007 +0.000 +0.012 +0.015 -0.003 +0.011 +0.010 +0.014 +0.017 +0.002 +0.014 +0.014 +0.011 +0.014 +0.006 +0.010 +0.020 +0.008 +0.013 +0.014 +0.013 +0.010 +0.009


-------- Electronic minimization -----------
Will mix electronic density at each iteration.
	FillingsUpdate:  mu: +0.842647614  nElectrons: 756.000000
	FillingsUpdate:  mu: +0.844372079  nElectrons: 756.000000
SCF: Cycle:  0   F: -3696.439179162867276   dF: +1.695e+01   |Residual|: 1.281e+00   |deigs|: 4.069e-03  t[s]:  31413.22
	FillingsUpdate:  mu: +0.841793516  nElectrons: 756.000000
SCF: Cycle:  1   F: -3706.901103277786206   dF: -1.046e+01   |Residual|: 8.443e-01   |deigs|: 7.748e-03  t[s]:  31959.95
	FillingsUpdate:  mu: +0.843551285  nElectrons: 756.000000
SCF: Cycle:  2   F: -3714.953611746027491   dF: -8.053e+00   |Residual|: 2.197e-01   |deigs|: 1.814e-02  t[s]:  32517.88
	FillingsUpdate:  mu: +0.843095989  nElectrons: 756.000000
SCF: Cycle:  3   F: -3715.199527651919198   dF: -2.459e-01   |Residual|: 5.961e-02   |deigs|: 2.020e-03  t[s]:  33062.44
	FillingsUpdate:  mu: +0.843019701  nElectrons: 756.000000
SCF: Cycle:  4   F: -3715.225759655620095   dF: -2.623e-02   |Residual|: 2.976e-02   |deigs|: 4.003e-04  t[s]:  33519.13
	FillingsUpdate:  mu: +0.842968961  nElectrons: 756.000000
SCF: Cycle:  5   F: -3715.227551458312973   dF: -1.792e-03   |Residual|: 8.139e-03   |deigs|: 1.971e-04  t[s]:  33830.30
	FillingsUpdate:  mu: +0.842955398  nElectrons: 756.000000
SCF: Cycle:  6   F: -3715.227702343085639   dF: -1.509e-04   |Residual|: 3.315e-03   |deigs|: 2.981e-05  t[s]:  34139.77
	FillingsUpdate:  mu: +0.842955504  nElectrons: 756.000000
SCF: Cycle:  7   F: -3715.227751833332604   dF: -4.949e-05   |Residual|: 9.202e-04   |deigs|: 1.100e-05  t[s]:  34452.40
	FillingsUpdate:  mu: +0.842958969  nElectrons: 756.000000
SCF: Cycle:  8   F: -3715.227752578660329   dF: -7.453e-07   |Residual|: 4.295e-04   |deigs|: 6.966e-06  t[s]:  34763.13
	FillingsUpdate:  mu: +0.842959638  nElectrons: 756.000000
SCF: Cycle:  9   F: -3715.227753556147945   dF: -9.775e-07   |Residual|: 1.595e-04   |deigs|: 1.791e-06  t[s]:  35076.51
	FillingsUpdate:  mu: +0.842959546  nElectrons: 756.000000
SCF: Cycle: 10   F: -3715.227753632237636   dF: -7.609e-08   |Residual|: 5.943e-05   |deigs|: 8.883e-07  t[s]:  35393.15
	FillingsUpdate:  mu: +0.842959430  nElectrons: 756.000000
SCF: Cycle: 11   F: -3715.227753672506424   dF: -4.027e-08   |Residual|: 3.857e-05   |deigs|: 4.433e-07  t[s]:  35704.89
	FillingsUpdate:  mu: +0.842959407  nElectrons: 756.000000
SCF: Cycle: 12   F: -3715.227753687332097   dF: -1.483e-08   |Residual|: 2.747e-05   |deigs|: 2.861e-07  t[s]:  36018.01
	FillingsUpdate:  mu: +0.842959421  nElectrons: 756.000000
SCF: Cycle: 13   F: -3715.227753693782233   dF: -6.450e-09   |Residual|: 7.916e-06   |deigs|: 2.318e-07  t[s]:  36325.75
	FillingsUpdate:  mu: +0.842959436  nElectrons: 756.000000
SCF: Cycle: 14   F: -3715.227753695943193   dF: -2.161e-09   |Residual|: 5.026e-06   |deigs|: 2.637e-07  t[s]:  36636.47
SCF: Converged (|Delta E|<1.000000e-08 for 2 iters).

Setting wave functions to eigenvectors of Hamiltonian

# Ionic positions in lattice coordinates:
ion W   0.000000000000000   0.000000000000000   0.000000000000000 0
ion W   0.165200708484011   0.168021186965885   0.166802571651952 1
ion W  -0.004965198288318  -0.003038113321738   0.338680759035332 1
ion W   0.159765721316657   0.166234877609078   0.506773655575829 1
ion W  -0.001178009452060   0.000648136791247   0.669218723286296 1
ion W   0.160825702945141   0.170777962111227   0.830641318008283 1
ion W  -0.000308583072175   0.332630198557125   0.000417547048560 1
ion W   0.162824656351679   0.504717150157021   0.167654441406428 1
ion W   0.003295097122188   0.336093996918603   0.331049098509537 1
ion W   0.166640181962236   0.502194259987891   0.499889030894534 1
ion W  -0.002646596428128   0.335448764996888   0.662966830254416 1
ion W   0.167253479465027   0.506612234265392   0.828952673376191 1
ion W  -0.002381223126702   0.671283080527759  -0.001986874078032 1
ion W   0.165561382156917   0.828035006861791   0.166306081258259 1
ion W  -0.002341633280689   0.662545812813188   0.331593644840590 1
ion W   0.164905156330597   0.834838023989516   0.500765975531860 1
ion W  -0.002588771006883   0.673718349087402   0.662861364463177 1
ion W   0.165575577979543   0.842829217228551   0.837781168294186 1
ion W   0.329135114048604  -0.002405427983091   0.000116383449786 1
ion W   0.500989392886483   0.169032603755818   0.166506210567587 1
ion W   0.332124345884331   0.007934158652201   0.329568135189727 1
ion W   0.488739045685320   0.158463125354242   0.504483602348970 1
ion W   0.323549707185247  -0.002263956260884   0.667995243419854 1
ion W   0.493503587361118   0.164636054447408   0.837855848761417 1
ion W   0.331752788640847   0.334020543241476  -0.000362353715543 1
ion W   0.501309101832264   0.501761735740291   0.164530408538150 1
ion W   0.333865933457164   0.336454199503079   0.335637933361527 1
ion W   0.492151176614389   0.493518782145348   0.503512054962224 1
ion W   0.331072198447843   0.334068108399978   0.661467480369043 1
ion W   0.500065680863581   0.496305588919032   0.834134080537494 1
ion W   0.332218507403602   0.666370434873978  -0.006721332312518 1
ion W   0.499150839484901   0.832325315479371   0.172700743993656 1
ion W   0.333746148393267   0.668456041896281   0.334969131506583 1
ion W   0.500490052349979   0.830182448863758   0.504706595695780 1
ion W   0.325240551447611   0.673413594371743   0.677233199956003 1
ion W   0.498868109107183   0.838237548195924   0.832562043214455 1
ion W   0.664986976180393   0.003402820500619   0.002671858575923 1
ion W   0.831856649272412   0.162411289034849   0.170811019874284 1
ion W   0.665237459068008  -0.003006755377553   0.336244659011561 1
ion W   0.827321446895414   0.163170044905483   0.507066124115832 1
ion W   0.655408344466296  -0.002977586459363   0.673210648950934 1
ion W   0.830878192278799   0.169771011369984   0.834236345965825 1
ion W   0.663437201575933   0.336798828879123   0.001926888661606 1
ion W   0.833420023526625   0.500384116505374   0.164489363840975 1
ion W   0.667701692664685   0.332626191568326   0.336872326043299 1
ion W   0.835236501666664   0.498167469927116   0.498998651835462 1
ion W   0.663768865263175   0.334750898629757   0.669511130611614 1
ion W   0.835360526230941   0.503524017992892   0.830636806575457 1
ion W   0.663146889497431   0.665928210786746   0.003706737919955 1
ion W   0.832252050391288   0.826038725132936   0.166478465956767 1
ion W   0.660924459662435   0.662649447979729   0.336486825347388 1
ion W   0.835683322489651   0.831355062704332   0.501043572964155 1
ion W   0.662438089856539   0.671961549508940   0.668797469866099 1
ion W   0.830239358157148   0.831472710394331   0.830519734949630 1

# Forces in Lattice coordinates:
force W  -0.229267725763512   0.076082536659339   0.156202445249037 0
force W  -0.017524533029040  -0.028005296417616   0.057314978335215 1
force W   0.189714932485253   0.129318962681165  -0.275812742701524 1
force W   0.121385932755538   0.065805876688273  -0.494985947082663 1
force W  -0.302727793644865   0.042156910496325  -0.012697790192422 1
force W   0.167243163591059   0.012403425071109   0.241417386457571 1
force W  -0.090444549899978   0.168979745119725  -0.090273670297268 1
force W   0.287453561027498  -0.245525793998039  -0.189152973628124 1
[...]
SCF: Cycle:  3   F: -3715.280547017444405   dF: -1.629e-06   |Residual|: 2.270e-04   |deigs|: 2.079e-06  t[s]:  77563.98
	FillingsUpdate:  mu: +0.843294190  nElectrons: 756.000000
SCF: Cycle:  4   F: -3715.280547153605767   dF: -1.362e-07   |Residual|: 1.220e-04   |deigs|: 1.003e-06  t[s]:  77875.15
	FillingsUpdate:  mu: +0.843294194  nElectrons: 756.000000
SCF: Cycle:  5   F: -3715.280547191152436   dF: -3.755e-08   |Residual|: 2.422e-05   |deigs|: 3.877e-07  t[s]:  78186.74
	FillingsUpdate:  mu: +0.843294193  nElectrons: 756.000000
SCF: Cycle:  6   F: -3715.280547192886388   dF: -1.734e-09   |Residual|: 1.393e-05   |deigs|: 1.080e-07  t[s]:  78500.66
	FillingsUpdate:  mu: +0.843294193  nElectrons: 756.000000
SCF: Cycle:  7   F: -3715.280547194407063   dF: -1.521e-09   |Residual|: 5.586e-06   |deigs|: 7.900e-08  t[s]:  78812.30
SCF: Converged (|Delta E|<1.000000e-08 for 2 iters).

Setting wave functions to eigenvectors of Hamiltonian

# Ionic positions in lattice coordinates:
ion W   0.000000000000000   0.000000000000000   0.000000000000000 0
ion W   0.166352709151853   0.166655036869276   0.167622309994417 1
ion W  -0.000328057082049   0.000042971043851   0.334124760313557 1
ion W   0.166377253571394   0.166687919447883   0.500907777646006 1
ion W  -0.000314995015294   0.000082837968708   0.667386786080752 1
ion W   0.166348910823895   0.166681684021539   0.834116090642681 1
ion W  -0.000321171765251   0.333418197144934   0.000851542740306 1
ion W   0.166253397303207   0.500064538713610   0.167657760635047 1
ion W  -0.000339187997730   0.333461597843632   0.334287693810691 1
ion W   0.166271792819320   0.500056086869089   0.500930015989664 1
ion W  -0.000428800504385   0.333489455294993   0.667550246081633 1
ion W   0.166371020108036   0.500041741058919   0.834271430890146 1
ion W  -0.000464403633136   0.666756742150884   0.000875071237370 1
ion W   0.166242501835763   0.833447747558255   0.167613431077805 1
ion W  -0.000379022083239   0.666714728798255   0.334259886173920 1
ion W   0.166293475279490   0.833330196730711   0.500883186490218 1
ion W  -0.000527649032824   0.666742081523921   0.667575631073096 1
ion W   0.166453214728250   0.833352980657539   0.834203502254663 1
ion W   0.332900492757096   0.000009474007964   0.000736063025184 1
ion W   0.499640581440671   0.166787272708752   0.167593687317266 1
ion W   0.332985079388064   0.000105658506621   0.334339907365120 1
ion W   0.499725136895814   0.166744303611507   0.500828911449807 1
ion W   0.332896871594165  -0.000072274661440   0.667557485978076 1
ion W   0.499641495173999   0.166652374971668   0.834275831263111 1
ion W   0.332940776442560   0.333365171997653   0.000928290050756 1
ion W   0.499632929113322   0.500198152882581   0.167636542586088 1
ion W   0.332952525962879   0.333509785784677   0.334355788305266 1
ion W   0.499436683116070   0.500131892151413   0.501007715961591 1
ion W   0.333047076783547   0.333378595854339   0.667486601267907 1
ion W   0.499558228235272   0.500010334244033   0.834444378069947 1
ion W   0.332801453054393   0.666689829209936   0.000948717173070 1
ion W   0.499574894492664   0.833505649858441   0.167632547439910 1
ion W   0.332918745345872   0.666850372246469   0.334301815599091 1
ion W   0.499664436455222   0.833453008387573   0.500868983269412 1
ion W   0.332884672599814   0.666502496892045   0.667782442473908 1
ion W   0.499661872412696   0.833515242451574   0.834082802090748 1
ion W   0.666344322037181   0.000208013957236   0.000822102568650 1
ion W   0.833041264439554   0.166848725057903   0.167416946573238 1
ion W   0.666397067693282   0.000232020645819   0.334216055705781 1
ion W   0.833001974901125   0.166860604805136   0.500826522116724 1
ion W   0.666184481044633  -0.000044433080828   0.667662115168352 1
ion W   0.832895950502349   0.166732004966260   0.834152050965967 1
ion W   0.666256229824195   0.333472194369584   0.000924766078111 1
ion W   0.832955833172621   0.500229770387740   0.167630481466416 1
ion W   0.666293217924912   0.333573688595777   0.334292495047203 1
ion W   0.832871447927489   0.500199584764347   0.501008253643323 1
ion W   0.666292593792503   0.333453125130701   0.667635800045458 1
ion W   0.832891906806395   0.500080036611414   0.834248647720954 1
ion W   0.666242942681818   0.666789012720397   0.000929214525519 1
ion W   0.832969732172558   0.833521170038705   0.167491462794501 1
ion W   0.666242979414673   0.667062787160821   0.334256487292109 1
ion W   0.832972562049901   0.833500235877139   0.500829144175928 1
ion W   0.666229817292201   0.666864161441274   0.667584842973784 1
ion W   0.832830225459296   0.833329634172388   0.834183113908631 1

# Forces in Lattice coordinates:
force W  -0.021237782371908   0.004514657541912   0.047301005684355 0
force W  -0.003038610742090   0.003776714812313  -0.005410488928014 1
force W  -0.001805067280600   0.004615024487757  -0.003733207840269 1
force W  -0.003713326842348   0.003760123987118   0.000660323126389 1
force W  -0.005505933077399  -0.001034441750671   0.000627624006162 1
force W   0.000655515248138   0.007792357774389  -0.000389131042535 1
force W  -0.002129835011436  -0.000937280750945   0.003001572440681 1
force W   0.001211802363167   0.000677141154623  -0.002588397508853 1
force W  -0.002349255263923  -0.002350708053134  -0.002598968371710 1
force W  -0.002501750936033   0.001416765988850   0.002220202029858 1
force W   0.004089940294879  -0.003982769331029   0.001731810074676 1
force W  -0.008288256456007  -0.001771346761241   0.000257457040952 1
force W   0.003939174182855  -0.000479901097461   0.001844460173930 1
force W   0.000813309313882  -0.001011716704363  -0.005298376901660 1
force W  -0.001790397355360   0.003730068278376  -0.000521848953891 1
force W  -0.000166657439193   0.000590600236938   0.004107027229340 1
force W   0.007753136583984   0.000539457346198   0.001289210185598 1
force W  -0.008819453669183  -0.005344078981831  -0.004136474573547 1
force W   0.008388419540003   0.002844453249736   0.012398078897306 1
force W  -0.000822740049588   0.000141374046253  -0.000177795452384 1
force W   0.000480925943095   0.000358863999478  -0.006264943886488 1
force W  -0.002327934283763   0.000905899697983   0.006807131884950 1
force W   0.005754019751739   0.006358619708945  -0.003268879720580 1
force W  -0.002411575610191   0.006653272142493  -0.002978350890204 1
force W   0.000737600882502  -0.000670963172477   0.003483225160591 1
force W  -0.001880972962511  -0.002850558058314   0.002335242463967 1
force W   0.001279826694623  -0.004427628329965  -0.006493908816399 1
force W   0.011923127988370   0.001618487641957  -0.001795368747561 1
force W  -0.003705698675660  -0.003609952996669   0.007835990246054 1
force W   0.004273763947973   0.003844699733469  -0.006530161268616 1
force W   0.008942776364654   0.004312606572559   0.003660242675975 1
force W   0.000942312516432   0.000659754315927  -0.006605942347030 1
force W   0.000796453922204  -0.003544469157021  -0.000268456780121 1
force W  -0.004098322886095  -0.001439569588412   0.003863752530497 1
force W   0.003743929837977   0.012095393021660  -0.009846860939025 1
force W  -0.004567204647606  -0.010147171986427   0.012879680125249 1
force W  -0.000028847694001  -0.005596763118436   0.006853025313575 1
force W   0.003079350655166  -0.004540756564550   0.002284936887393 1
force W  -0.002102789672950  -0.001269546666180  -0.001059906755335 1
force W  -0.001208015656427  -0.004143118794700   0.004420095865988 1
force W   0.007910918717387   0.011108680675133  -0.009399334598689 1
force W   0.004753622011334   0.002280321324767  -0.000701854729965 1
force W   0.002680975955755  -0.000809313686721   0.003051929461457 1
force W  -0.000657562535692  -0.004860110648645  -0.000758837373999 1
force W   0.000886807327248  -0.001345678037245  -0.002161677167444 1
force W  -0.000133439610499  -0.001774220714815  -0.005148441373267 1
force W  -0.002490693116900  -0.001217139493001  -0.001811510579221 1
force W   0.001566611971894   0.000224674203309   0.002708948973436 1
force W  -0.001856398582228   0.002117683018375   0.001300752556547 1
force W   0.003633856419989   0.002880839376640  -0.002416476304282 1
force W   0.001846276937951  -0.012998249268297   0.001005625750125 1
force W  -0.000121250683629  -0.000181935732132   0.003987391629416 1
force W  -0.002168075260456  -0.007995950149681   0.000623761753255 1
force W   0.008267416180182   0.004247637764773  -0.000249956960372 1

# Energy components:
   Eewald =    -3240.3004401120892908
       EH =      415.4917558546941905
     Eloc =     -832.2897090571370882
      Enl =     -798.0514251553684062
      Exc =    -1108.6175693446434707
 Exc_core =      578.9506631688366269
       KE =     1269.7820159891261937
-------------------------------------
     Etot =    -3715.0347086565825521
       TS =        0.2458385378245755
-------------------------------------
        F =    -3715.2805471944070632

IonicMinimize: Iter:  15  F: -3715.280547194407063  |grad|_K:  2.520e-04  alpha:  4.954e-01  linmin:  3.575e-04  t[s]:  78892.02

#--- Lowdin population analysis ---
# oxidation-state W +0.009 +0.009 +0.009 +0.009 +0.010 +0.009 +0.009 +0.009 +0.009 +0.009 +0.009 +0.009 +0.009 +0.009 +0.009 +0.009 +0.009 +0.009 +0.009 +0.009 +0.009 +0.009 +0.009 +0.009 +0.009 +0.009 +0.009 +0.009 +0.009 +0.009 +0.009 +0.009 +0.009 +0.009 +0.009 +0.009 +0.009 +0.010 +0.009 +0.009 +0.009 +0.009 +0.009 +0.009 +0.009 +0.009 +0.009 +0.009 +0.009 +0.009 +0.009 +0.009 +0.009 +0.009


-------- Electronic minimization -----------
Will mix electronic density at each iteration.
	FillingsUpdate:  mu: +0.843294193  nElectrons: 756.000000
	FillingsUpdate:  mu: +0.843294678  nElectrons: 756.000000
SCF: Cycle:  0   F: -3715.280470757006697   dF: -1.275e-05   |Residual|: 3.023e-03   |deigs|: 7.743e-06  t[s]:  79570.95
	FillingsUpdate:  mu: +0.843294481  nElectrons: 756.000000
SCF: Cycle:  1   F: -3715.280543244596629   dF: -7.249e-05   |Residual|: 2.048e-03   |deigs|: 9.937e-06  t[s]:  79883.20
	FillingsUpdate:  mu: +0.843294414  nElectrons: 756.000000
SCF: Cycle:  2   F: -3715.280571244074963   dF: -2.800e-05   |Residual|: 6.066e-04   |deigs|: 1.209e-05  t[s]:  80196.37
	FillingsUpdate:  mu: +0.843294334  nElectrons: 756.000000
SCF: Cycle:  3   F: -3715.280572590996144   dF: -1.347e-06   |Residual|: 2.156e-04   |deigs|: 1.532e-06  t[s]:  80510.71
	FillingsUpdate:  mu: +0.843294334  nElectrons: 756.000000
SCF: Cycle:  4   F: -3715.280572756823858   dF: -1.658e-07   |Residual|: 1.088e-04   |deigs|: 7.764e-07  t[s]:  80825.98
	FillingsUpdate:  mu: +0.843294340  nElectrons: 756.000000
SCF: Cycle:  5   F: -3715.280572779359318   dF: -2.254e-08   |Residual|: 2.034e-05   |deigs|: 2.504e-07  t[s]:  81137.76
	FillingsUpdate:  mu: +0.843294340  nElectrons: 756.000000
SCF: Cycle:  6   F: -3715.280572780356579   dF: -9.973e-10   |Residual|: 1.115e-05   |deigs|: 7.377e-08  t[s]:  81452.30
	FillingsUpdate:  mu: +0.843294340  nElectrons: 756.000000
SCF: Cycle:  7   F: -3715.280572781356113   dF: -9.995e-10   |Residual|: 5.236e-06   |deigs|: 6.851e-08  t[s]:  81763.92
SCF: Converged (|Delta E|<1.000000e-08 for 2 iters).

Setting wave functions to eigenvectors of Hamiltonian

# Ionic positions in lattice coordinates:
ion W   0.000000000000000   0.000000000000000   0.000000000000000 0
ion W   0.166789225756163   0.166616517264248   0.167518826984249 1
ion W   0.000163681548380   0.000010093021210   0.334080220023166 1
ion W   0.166875381147786   0.166663706978894   0.500926320504457 1
ion W   0.000170515477216   0.000019679926780   0.667372126331398 1
ion W   0.166833751147239   0.166694061242391   0.834117368302314 1
ion W   0.000186426946952   0.333357175778023   0.000883470928023 1
ion W   0.166800561513392   0.500011740777064   0.167621821686845 1
ion W   0.000193651717163   0.333374265717380   0.334232645132448 1
ion W   0.166823325774155   0.499995073068561   0.500924945927279 1
ion W   0.000170984971708   0.333376919638377   0.667550174339011 1
ion W   0.166863920265574   0.500010791812751   0.834249191452248 1
ion W   0.000120774605139   0.666715521330687   0.000895532070364 1
ion W   0.166735484683512   0.833408942973906   0.167503755950826 1
ion W   0.000174306742243   0.666660745447476   0.334221040955893 1
ion W   0.166830938154212   0.833293004909080   0.500921989648082 1
ion W   0.000114793548583   0.666695373269685   0.667565234067420 1
ion W   0.166877447323988   0.833296635018876   0.834155934753242 1
ion W   0.333413496098025  -0.000019356010007   0.000843505691354 1
ion W   0.500145115492593   0.166679321229529   0.167582781466912 1
ion W   0.333511889522033   0.000016430791588   0.334268772373992 1
ion W   0.500223292974424   0.166666063999553   0.500899888758534 1
ion W   0.333480816825448  -0.000058408143446   0.667533510413856 1
ion W   0.500146619978937   0.166657022765753   0.834246264548723 1
ion W   0.333491882929874   0.333297863901586   0.000950077007619 1
ion W   0.500180854238338   0.500066670590238   0.167641124972191 1
ion W   0.333506951217526   0.333368887068393   0.334283251741934 1
ion W   0.500113578585803   0.500024297498336   0.500963209552083 1
ion W   0.333558930721957   0.333293031560909   0.667541548741136 1
ion W   0.500151111661848   0.499991395799863   0.834367547592044 1
ion W   0.333436565518801   0.666700845658357   0.000956436393167 1
ion W   0.500112064251500   0.833402005759866   0.167567678664571 1
ion W   0.333487267969035   0.666722659359456   0.334262830975254 1
ion W   0.500172381457401   0.833342576282130   0.500922589182761 1
ion W   0.333481162776801   0.666578325829397   0.667672685649059 1
ion W   0.500156932868357   0.833359915064278   0.834173536349935 1
ion W   0.666769627414210   0.000063745118084   0.000895442608666 1
ion W   0.833540332957504   0.166723876115775   0.167456853674746 1
ion W   0.666884038240917   0.000093403964869   0.334212868617187 1
ion W   0.833535994712817   0.166722088493404   0.500872303064462 1
ion W   0.666774626464182  -0.000049418563279   0.667568991009131 1
ion W   0.833429820812687   0.166718131402854   0.834113732048843 1
ion W   0.666793515498233   0.333383983361776   0.000955699294214 1
ion W   0.833514634284775   0.500093188998185   0.167619053121593 1
ion W   0.666832200675703   0.333436739743576   0.334260724088545 1
ion W   0.833459670181017   0.500073702773909   0.500939794346296 1
ion W   0.666810403570386   0.333358179916391   0.667597475916575 1
ion W   0.833465300636263   0.500023324618978   0.834259592149090 1
ion W   0.666773628525638   0.666703412489446   0.000947926322419 1
ion W   0.833512266227856   0.833426416230846   0.167479906994367 1
ion W   0.666811328118670   0.666784357006981   0.334250723142080 1
ion W   0.833531376863221   0.833390963548372   0.500884511162127 1
ion W   0.666775001586998   0.666705901694456   0.667576185698964 1
ion W   0.833409067559474   0.833270045016897   0.834136824216541 1

# Forces in Lattice coordinates:
force W   0.007254539338227   0.001696629226732   0.044721371264475 0
force W  -0.000963059842076   0.000648309436100  -0.001418532215943 1
force W   0.000505595582074   0.001444242212369  -0.000832280408060 1
force W  -0.001702990188628   0.000537223967172  -0.003112595943622 1
force W  -0.001580263928779  -0.000418597436459   0.001366173114628 1
force W   0.001001894036479   0.000887983346886   0.002193593716817 1
force W  -0.001781196612629   0.000217927379197   0.000099897559881 1
force W   0.001956546113644   0.000476656137764  -0.001838087790976 1
force W  -0.001600081903816  -0.002000690574736   0.000542069216075 1
force W   0.000213151655166   0.000872652692552   0.000475536558374 1
force W  -0.000429752636080   0.000252934943163   0.000800527584468 1
force W  -0.002440391702255  -0.001246908330390   0.001715541759260 1
force W   0.001061694741473  -0.001754510437098  -0.000351629814440 1
force W   0.000883350885375  -0.000059605669242  -0.000448075451590 1
force W  -0.001129014012502   0.003342722362674   0.001303101588038 1
force W   0.000076722123408   0.001549834860438  -0.002101065656299 1
force W   0.001977636731180  -0.002138272578569   0.000453548536137 1
force W  -0.002994752375429  -0.000089321744995   0.000324151507022 1
force W   0.001659834847972   0.001867013530584   0.002559321231967 1
force W   0.000214742513711   0.000937348403064   0.001122096009710 1
force W  -0.001945482287993   0.000172313563521  -0.002112329403912 1
force W  -0.001747742759704   0.000708060675554   0.000393238837204 1
force W   0.001360896071768   0.002628764276610   0.000982499849203 1
force W  -0.000341391897714   0.001126144679757   0.000387926187520 1
force W  -0.000957942548853   0.002053243625198   0.000302874497410 1
force W  -0.002653309991561  -0.001308102187563   0.000351486551070 1
force W  -0.000744118442011  -0.001756474493569  -0.001665534715534 1
force W   0.002687162084657   0.000616762892207  -0.000313626526243 1
force W  -0.002299891685053   0.001901479462659   0.003838340165087 1
force W  -0.000246481864621   0.000803805546459  -0.002816587200911 1
force W   0.001784046738244  -0.001150301383346   0.000589716595830 1
force W   0.001293682193745  -0.000376814221631   0.000894193966742 1
force W  -0.000979966587558  -0.000699618444079   0.000610361167848 1
force W  -0.001058052348140   0.000101648620995  -0.001409721046857 1
force W   0.000882890858295   0.003226032195524  -0.003958037485289 1
force W  -0.001488107807701  -0.001923221225906   0.005943674773254 1
force W   0.000978121441680  -0.001648417394775  -0.000562553902261 1
force W  -0.000456065408225  -0.001531358145495   0.001708664032324 1
force W  -0.001488355453060  -0.001957232432790   0.000497092565175 1
force W  -0.001737882954350  -0.000306486165477  -0.000054498193806 1
force W   0.002789284350861   0.004681951524079  -0.001481700823058 1
force W  -0.000316700814323   0.001034661336121   0.001280457499499 1
force W   0.002099005547462  -0.000822744068603  -0.000134343833061 1
force W  -0.001224484749972  -0.002378091282882  -0.001331598000570 1
force W   0.001142087500402  -0.002986068957410   0.000000347035255 1
force W   0.000953944926989  -0.001437679265782  -0.001012409265661 1
force W   0.000402029355688   0.000529541725582  -0.000059047843128 1
force W   0.000451232893385  -0.000262647373142   0.000906614996567 1
force W   0.001167384741384   0.000805410604002  -0.000168704219609 1
force W  -0.000622124493334   0.000097892214634   0.000737844140890 1
force W   0.001296114228711  -0.001857155548973   0.000832684031283 1
force W  -0.002239965377242  -0.001193758934081  -0.001091763859369 1
force W   0.000791979508537  -0.002943717311663   0.000945212303137 1
force W   0.000612162562832   0.002281971884935   0.000786046408622 1

# Energy components:
   Eewald =    -3240.3014468299720647
       EH =      415.4907635055868127
     Eloc =     -832.2876451257400277
      Enl =     -798.0513937814167775
      Exc =    -1108.6175306947352510
 Exc_core =      578.9506612721079364
       KE =     1269.7818558381725325
-------------------------------------
     Etot =    -3715.0347358159970099
       TS =        0.2458369653591375
-------------------------------------
        F =    -3715.2805727813561134

IonicMinimize: Iter:  16  F: -3715.280572781356113  |grad|_K:  8.893e-05  alpha:  1.000e+00  linmin: -1.524e-02  t[s]:  81843.67
IonicMinimize: Converged (|grad|_K<1.000000e-04).

#--- Lowdin population analysis ---
# oxidation-state W +0.009 +0.009 +0.009 +0.009 +0.009 +0.009 +0.009 +0.009 +0.009 +0.009 +0.009 +0.009 +0.009 +0.009 +0.009 +0.009 +0.009 +0.009 +0.009 +0.009 +0.009 +0.009 +0.009 +0.009 +0.009 +0.009 +0.009 +0.009 +0.009 +0.009 +0.009 +0.009 +0.009 +0.009 +0.009 +0.009 +0.009 +0.009 +0.009 +0.009 +0.009 +0.009 +0.009 +0.009 +0.009 +0.009 +0.009 +0.009 +0.009 +0.009 +0.009 +0.009 +0.009 +0.009


Dumping 'W_ion.Ecomponents' ... done
End date and time: Thu Jul 18 10:59:35 2024  (Duration: 0-22:45:04.36)
Done!
