
*************** JDFTx 1.7.0 (git hash e155c65d) ***************

Start date and time: Tue Jul 16 08:32:30 2024
Executable jdftx with command-line: -i W_oct.in
Running on hosts (process indices):  node3403 (0-15)
Divided in process groups (process indices):  0 (0)  1 (1)  2 (2)  3 (3)  4 (4)  5 (5)  6 (6)  7 (7)  8 (8)  9 (9)  10 (10)  11 (11)  12 (12)  13 (13)  14 (14)  15 (15)
Resource initialization completed at t[s]:      0.00
Run totals: 16 processes, 16 threads, 0 GPUs


Input parsed successfully to the following command list (including defaults):

basis kpoint-dependent
coords-type Lattice
core-overlap-check vector
coulomb-interaction Periodic
davidson-band-ratio 1.1
dump End Ecomponents
dump-name $INPUT.$VAR
elec-cutoff 20 100
elec-eigen-algo Davidson
elec-ex-corr gga-PBEsol
elec-smearing Fermi 0.01
electronic-minimize  \
	dirUpdateScheme      FletcherReeves \
	linminMethod         DirUpdateRecommended \
	nIterations          100 \
	history              15 \
	knormThreshold       0 \
	maxThreshold         no \
	energyDiffThreshold  1e-08 \
	nEnergyDiff          2 \
	alphaTstart          1 \
	alphaTmin            1e-10 \
	updateTestStepSize   yes \
	alphaTreduceFactor   0.1 \
	alphaTincreaseFactor 3 \
	nAlphaAdjustMax      3 \
	wolfeEnergy          0.0001 \
	wolfeGradient        0.9 \
	fdTest               no
electronic-scf  \
	nIterations	50 \
	energyDiffThreshold	1e-08 \
	residualThreshold	1e-07 \
	mixFraction	0.5 \
	qMetric	0.8 \
	history	10 \
	nEigSteps	2 \
	eigDiffThreshold	1e-08 \
	mixedVariable	Density \
	qKerker	0.8 \
	qKappa	-1 \
	verbose	no \
	mixFractionMag	1.5
exchange-regularization WignerSeitzTruncated
fluid None
fluid-ex-corr lda-TF lda-PZ
fluid-gummel-loop 10 1.000000e-05
fluid-minimize  \
	dirUpdateScheme      PolakRibiere \
	linminMethod         DirUpdateRecommended \
	nIterations          100 \
	history              15 \
	knormThreshold       0 \
	maxThreshold         no \
	energyDiffThreshold  0 \
	nEnergyDiff          2 \
	alphaTstart          1 \
	alphaTmin            1e-10 \
	updateTestStepSize   yes \
	alphaTreduceFactor   0.1 \
	alphaTincreaseFactor 3 \
	nAlphaAdjustMax      3 \
	wolfeEnergy          0.0001 \
	wolfeGradient        0.9 \
	fdTest               no
fluid-solvent H2O 55.338 ScalarEOS \
	epsBulk 78.4 \
	pMol 0.92466 \
	epsInf 1.77 \
	Pvap 1.06736e-10 \
	sigmaBulk 4.62e-05 \
	Rvdw 2.61727 \
	Res 1.42 \
	tauNuc 343133 \
	poleEl 15 7 1
forces-output-coords Positions
ion W  -0.000000000000000   0.000000000000000  -0.000000000000000 0
ion W   0.164370000000000   0.157120000000000   0.162090000000000 1
ion W   0.008660000000000  -0.007740000000000   0.321750000000000 1
ion W   0.167320000000000   0.182380000000000   0.481930000000000 1
ion W   0.009080000000000   0.009290000000000   0.662200000000000 1
ion W   0.165650000000000   0.151240000000000   0.832430000000000 1
ion W   0.003080000000000   0.337850000000000  -0.002100000000000 1
ion W   0.169760000000000   0.509640000000000   0.162410000000000 1
ion W  -0.009840000000000   0.331660000000000   0.330800000000000 1
ion W   0.158300000000000   0.509050000000000   0.492950000000000 1
ion W  -0.009050000000000   0.338240000000000   0.684310000000000 1
ion W   0.182510000000000   0.533920000000000   0.846790000000000 1
ion W  -0.005390000000000   0.663890000000000   0.003480000000000 1
ion W   0.169620000000000   0.853060000000000   0.158640000000000 1
ion W   0.006240000000000   0.677960000000000   0.321230000000000 1
ion W   0.168430000000000   0.835000000000000   0.493310000000000 1
ion W   0.015590000000000   0.655140000000000   0.665870000000000 1
ion W   0.142390000000000   0.824830000000000   0.841500000000000 1
ion W   0.334240000000000  -0.007970000000000   0.005870000000000 1
ion W   0.510110000000000   0.170760000000000   0.167980000000000 1
ion W   0.333030000000000   0.000970000000000   0.342100000000000 1
ion W   0.503610000000000   0.190640000000000   0.506210000000000 1
ion W   0.321870000000000   0.003110000000000   0.654310000000000 1
ion W   0.489140000000000   0.163080000000000   0.840870000000000 1
ion W   0.342140000000000   0.331600000000000  -0.015350000000000 1
ion W   0.482300000000000   0.493340000000000   0.174970000000000 1
ion W   0.335320000000000   0.342920000000000   0.324560000000000 1
ion W   0.508760000000000   0.508520000000000   0.496830000000000 1
ion W   0.334550000000000   0.338300000000000   0.656580000000000 1
ion W   0.488430000000000   0.501820000000000   0.843180000000000 1
ion W   0.332510000000000   0.652050000000000  -0.002560000000000 1
ion W   0.496430000000000   0.835090000000000   0.176570000000000 1
ion W   0.331320000000000   0.665110000000000   0.338330000000000 1
ion W   0.506030000000000   0.852380000000000   0.496000000000000 1
ion W   0.355720000000000   0.655600000000000   0.683890000000000 1
ion W   0.492970000000000   0.829890000000000   0.830300000000000 1
ion W   0.659240000000000  -0.001790000000000  -0.006440000000000 1
ion W   0.832330000000000   0.151630000000000   0.167900000000000 1
ion W   0.673630000000000   0.003800000000000   0.336280000000000 1
ion W   0.822750000000000   0.176620000000000   0.492890000000000 1
ion W   0.674430000000000   0.001620000000000   0.646730000000000 1
ion W   0.866450000000000   0.158800000000000   0.843890000000000 1
ion W   0.672300000000000   0.335360000000000  -0.010460000000000 1
ion W   0.835920000000000   0.497400000000000   0.160650000000000 1
ion W   0.683220000000000   0.332550000000000   0.329590000000000 1
ion W   0.816310000000000   0.494420000000000   0.517110000000000 1
ion W   0.659230000000000   0.336630000000000   0.666020000000000 1
ion W   0.844450000000000   0.510080000000000   0.854390000000000 1
ion W   0.658780000000000   0.673620000000000   0.011840000000000 1
ion W   0.847540000000000   0.850280000000000   0.176890000000000 1
ion W   0.683870000000000   0.662150000000000   0.339680000000000 1
ion W   0.823280000000000   0.843640000000000   0.498720000000000 1
ion W   0.670620000000000   0.671240000000000   0.672220000000000 1
ion W   0.831780000000000   0.827490000000000   0.842800000000000 1
ion O   0.340000000000000   0.150000000000000   0.180000000000000 1
ion-species GBRV/$ID_pbesol.uspp
ion-width 0
ionic-minimize  \
	dirUpdateScheme      L-BFGS \
	linminMethod         DirUpdateRecommended \
	nIterations          50 \
	history              15 \
	knormThreshold       0.0001 \
	maxThreshold         no \
	energyDiffThreshold  1e-06 \
	nEnergyDiff          2 \
	alphaTstart          1 \
	alphaTmin            1e-10 \
	updateTestStepSize   yes \
	alphaTreduceFactor   0.1 \
	alphaTincreaseFactor 3 \
	nAlphaAdjustMax      3 \
	wolfeEnergy          0.0001 \
	wolfeGradient        0.9 \
	fdTest               no
kpoint   0.500000000000   0.500000000000   0.500000000000  1.00000000000000
kpoint-folding 4 4 4 
latt-move-scale 1 1 1
latt-scale 1 1 1 
lattice  \
	  17.830580767642033    0.000000000000000    0.000000000000000  \
	   0.000000000000000   17.830580767642033    0.000000000000000  \
	   0.000000000000000    0.000000000000000   17.830580767642033 
lattice-minimize  \
	dirUpdateScheme      L-BFGS \
	linminMethod         DirUpdateRecommended \
	nIterations          0 \
	history              15 \
	knormThreshold       0 \
	maxThreshold         no \
	energyDiffThreshold  1e-06 \
	nEnergyDiff          2 \
	alphaTstart          1 \
	alphaTmin            1e-10 \
	updateTestStepSize   yes \
	alphaTreduceFactor   0.1 \
	alphaTincreaseFactor 3 \
	nAlphaAdjustMax      3 \
	wolfeEnergy          0.0001 \
	wolfeGradient        0.9 \
	fdTest               no
lcao-params -1 1e-06 0.01
pcm-variant GLSSA13
perturb-minimize  \
	nIterations            0 \
	algorithm              MINRES \
	residualTol            0.0001 \
	residualDiffThreshold  0.0001 \
	CGBypass               no \
	recomputeResidual      no
spintype no-spin
subspace-rotation-factor 1 yes
symmetries automatic
symmetry-threshold 0.0001



---------- Setting up symmetries ----------

Found 48 point-group symmetries of the bravais lattice
Found 1 space-group symmetries with basis
Applied RMS atom displacement 0 bohrs to make symmetries exact.

---------- Initializing the Grid ----------
R = 
[      17.8306            0            0  ]
[            0      17.8306            0  ]
[            0            0      17.8306  ]
unit cell volume = 5668.87
G =
[   0.352383          0          0  ]
[          0   0.352383          0  ]
[          0          0   0.352383  ]
Minimum fftbox size, Smin = [  84  84  84  ]
Chosen fftbox size, S = [  84  84  84  ]

---------- Initializing tighter grid for wavefunction operations ----------
R = 
[      17.8306            0            0  ]
[            0      17.8306            0  ]
[            0            0      17.8306  ]
unit cell volume = 5668.87
G =
[   0.352383          0          0  ]
[          0   0.352383          0  ]
[          0          0   0.352383  ]
Minimum fftbox size, Smin = [  72  72  72  ]
Chosen fftbox size, S = [  72  72  72  ]

---------- Exchange Correlation functional ----------
Initalized PBEsol GGA exchange.
Initalized PBEsol GGA correlation.

---------- Setting up pseudopotentials ----------
Width of ionic core gaussian charges (only for fluid interactions / plotting) set to 0

Reading pseudopotential file '/home/rc652/JDFTx/build/pseudopotentials/GBRV/w_pbesol.uspp':
  Title: W.  Created by USPP 7.3.6 on 3-2-2014
  Reference state energy: -79.054523.  14 valence electrons in orbitals:
    |500>  occupation: 2  eigenvalue: -2.940304
    |510>  occupation: 6  eigenvalue: -1.621550
    |520>  occupation: 3.9  eigenvalue: -0.195776
    |600>  occupation: 2  eigenvalue: -0.236158
    |610>  occupation: 0  eigenvalue: -0.068449
  lMax: 3  lLocal: 3  QijEcut: 5
  8 projectors sampled on a log grid with 667 points:
    l: 0  eig: -2.940304  rCut: 1.45
    l: 0  eig: -0.236158  rCut: 1.45
    l: 0  eig: 0.500000  rCut: 1.45
    l: 1  eig: -1.621550  rCut: 1.5
    l: 1  eig: -0.068449  rCut: 1.5
    l: 2  eig: -0.195776  rCut: 1.7
    l: 2  eig: 0.150000  rCut: 1.7
    l: 3  eig: 0.500000  rCut: 2.3
  Partial core density with radius 1.2
  Transforming core density to a uniform radial grid of dG=0.02 with 1287 points.
  Transforming local potential to a uniform radial grid of dG=0.02 with 1287 points.
  Transforming nonlocal projectors to a uniform radial grid of dG=0.02 with 432 points.
  Transforming density augmentations to a uniform radial grid of dG=0.02 with 1287 points.
  Transforming atomic orbitals to a uniform radial grid of dG=0.02 with 432 points.
  Core radius for overlap checks: 2.30 bohrs.

Reading pseudopotential file '/home/rc652/JDFTx/build/pseudopotentials/GBRV/o_pbesol.uspp':
  Title: O.  Created by USPP 7.3.6 on 3-2-2014
  Reference state energy: -15.849885.  6 valence electrons in orbitals:
    |200>  occupation: 2  eigenvalue: -0.873214
    |210>  occupation: 4  eigenvalue: -0.330058
  lMax: 2  lLocal: 2  QijEcut: 6
  5 projectors sampled on a log grid with 511 points:
    l: 0  eig: -0.873214  rCut: 1.25
    l: 0  eig: 0.000000  rCut: 1.25
    l: 1  eig: -0.330058  rCut: 1.25
    l: 1  eig: 0.000000  rCut: 1.25
    l: 2  eig: 1.000000  rCut: 1.25
  Partial core density with radius 0.7
  Transforming core density to a uniform radial grid of dG=0.02 with 1287 points.
  Transforming local potential to a uniform radial grid of dG=0.02 with 1287 points.
  Transforming nonlocal projectors to a uniform radial grid of dG=0.02 with 432 points.
  Transforming density augmentations to a uniform radial grid of dG=0.02 with 1287 points.
  Transforming atomic orbitals to a uniform radial grid of dG=0.02 with 432 points.
  Core radius for overlap checks: 1.25 bohrs.

Initialized 2 species with 55 total atoms.

Folded 1 k-points by 4x4x4 to 64 k-points.

---------- Setting up k-points, bands, fillings ----------
Adding inversion symmetry to k-mesh for non-inversion-symmetric unit cell.
Reduced to 32 k-points under symmetry. 
Computing the number of bands and number of electrons
Calculating initial fillings.
nElectrons: 762.000000   nBands: 706   nStates: 32

----- Setting up reduced wavefunction bases (one per k-point) -----
average nbasis = 24209.500 , ideal nbasis = 24217.843

---------- Setting up ewald sum ----------
Optimum gaussian width for ewald sums = 3.647666 bohr.
Real space sum over 343 unit cells with max indices [  3  3  3  ]
Reciprocal space sum over 6859 terms with max indices [  9  9  9  ]

---------- Allocating electronic variables ----------
Initializing wave functions:  linear combination of atomic orbitals
W pseudo-atom occupations:   s ( 2 2 )  p ( 6 0 )  d ( 4 )
O pseudo-atom occupations:   s ( 2 )  p ( 4 )
	FillingsUpdate:  mu: +0.848833759  nElectrons: 762.000000
LCAOMinimize: Iter:   0  F: -3729.5543967601779514  |grad|_K:  5.756e-04  alpha:  1.000e+00
	FillingsUpdate:  mu: +0.850531377  nElectrons: 762.000000
LCAOMinimize: Iter:   1  F: -3729.7632543539766630  |grad|_K:  2.446e-04  alpha:  6.028e-02  linmin: -2.813e-01  cgtest:  7.061e-01  t[s]:    363.68
LCAOMinimize: Encountered beta<0, resetting CG.
	FillingsUpdate:  mu: +0.852287539  nElectrons: 762.000000
LCAOMinimize: Iter:   2  F: -3729.8431710433819717  |grad|_K:  1.468e-04  alpha:  1.696e-01  linmin:  1.633e-02  cgtest: -5.562e-02  t[s]:    489.45
	FillingsUpdate:  mu: +0.853588661  nElectrons: 762.000000
LCAOMinimize: Iter:   3  F: -3729.8811813694505872  |grad|_K:  1.001e-04  alpha:  2.296e-01  linmin:  1.049e-02  cgtest:  8.440e-02  t[s]:    615.39
	FillingsUpdate:  mu: +0.853814930  nElectrons: 762.000000
LCAOMinimize: Iter:   4  F: -3729.8908359925912919  |grad|_K:  7.690e-05  alpha:  1.227e-01  linmin: -8.289e-04  cgtest:  3.795e-02  t[s]:    741.40
	FillingsUpdate:  mu: +0.854250163  nElectrons: 762.000000
LCAOMinimize: Iter:   5  F: -3729.8979317480821010  |grad|_K:  3.655e-05  alpha:  1.499e-01  linmin:  2.674e-03  cgtest: -3.714e-02  t[s]:    867.40
	FillingsUpdate:  mu: +0.854671805  nElectrons: 762.000000
LCAOMinimize: Iter:   6  F: -3729.8999132078756702  |grad|_K:  1.726e-05  alpha:  1.866e-01  linmin:  1.321e-05  cgtest:  1.289e-02  t[s]:    993.47
	FillingsUpdate:  mu: +0.854749369  nElectrons: 762.000000
LCAOMinimize: Iter:   7  F: -3729.9001514920682894  |grad|_K:  7.911e-06  alpha:  9.994e-02  linmin: -2.796e-04  cgtest: -1.790e-03  t[s]:   1119.42
	FillingsUpdate:  mu: +0.854781905  nElectrons: 762.000000
LCAOMinimize: Iter:   8  F: -3729.9002092568161970  |grad|_K:  5.103e-06  alpha:  1.154e-01  linmin:  1.589e-04  cgtest: -7.800e-04  t[s]:   1245.40
	FillingsUpdate:  mu: +0.854820421  nElectrons: 762.000000
LCAOMinimize: Iter:   9  F: -3729.9002629552642247  |grad|_K:  2.754e-06  alpha:  2.579e-01  linmin:  8.427e-05  cgtest:  2.592e-03  t[s]:   1371.13
	FillingsUpdate:  mu: +0.854826635  nElectrons: 762.000000
LCAOMinimize: Iter:  10  F: -3729.9002709988203605  |grad|_K:  1.575e-06  alpha:  1.326e-01  linmin: -5.086e-05  cgtest:  3.994e-04  t[s]:   1496.91
	FillingsUpdate:  mu: +0.854823737  nElectrons: 762.000000
LCAOMinimize: Iter:  11  F: -3729.9002730855877417  |grad|_K:  8.736e-07  alpha:  1.052e-01  linmin:  1.705e-05  cgtest: -2.486e-04  t[s]:   1622.72
	FillingsUpdate:  mu: +0.854825828  nElectrons: 762.000000
LCAOMinimize: Iter:  12  F: -3729.9002742079978816  |grad|_K:  5.647e-07  alpha:  1.841e-01  linmin:  3.600e-04  cgtest: -1.338e-03  t[s]:   1748.76
	FillingsUpdate:  mu: +0.854827500  nElectrons: 762.000000
LCAOMinimize: Iter:  13  F: -3729.9002746762485003  |grad|_K:  3.298e-07  alpha:  1.838e-01  linmin: -1.293e-04  cgtest:  2.513e-03  t[s]:   1874.71
	FillingsUpdate:  mu: +0.854828084  nElectrons: 762.000000
LCAOMinimize: Iter:  14  F: -3729.9002748059115220  |grad|_K:  2.867e-07  alpha:  1.487e-01  linmin:  2.154e-04  cgtest: -1.514e-03  t[s]:   2000.82
LCAOMinimize: Converged (|Delta F|<1.000000e-06 for 2 iters).


---- Citations for features of the code used in this run ----

   Software package:
      R. Sundararaman, K. Letchworth-Weaver, K.A. Schwarz, D. Gunceler, Y. Ozhabes and T.A. Arias, 'JDFTx: software for joint density-functional theory', SoftwareX 6, 278 (2017)

   gga-PBEsol exchange-correlation functional:
      J.P. Perdew et al., Phys. Rev. Lett. 100, 136406 (2008)

   Pseudopotentials:
      KF Garrity, JW Bennett, KM Rabe and D Vanderbilt, Comput. Mater. Sci. 81, 446 (2014)

This list may not be complete. Please suggest additional citations or
report any other bugs at https://github.com/shankar1729/jdftx/issues

Initialization completed successfully at t[s]:   2065.25


-------- Electronic minimization -----------
Will mix electronic density at each iteration.
	FillingsUpdate:  mu: +0.854828084  nElectrons: 762.000000
	FillingsUpdate:  mu: +0.848976697  nElectrons: 762.000000
SCF: Cycle:  0   F: -3730.547166638779345   dF: -6.469e-01   |Residual|: 1.975e-01   |deigs|: 5.931e-02  t[s]:   2611.95
	FillingsUpdate:  mu: +0.846892898  nElectrons: 762.000000
SCF: Cycle:  1   F: -3730.594164229803937   dF: -4.700e-02   |Residual|: 8.697e-02   |deigs|: 4.742e-03  t[s]:   3082.66
	FillingsUpdate:  mu: +0.845841073  nElectrons: 762.000000
SCF: Cycle:  2   F: -3730.588949316494109   dF: +5.215e-03   |Residual|: 3.527e-02   |deigs|: 2.227e-03  t[s]:   3553.43
	FillingsUpdate:  mu: +0.845682267  nElectrons: 762.000000
SCF: Cycle:  3   F: -3730.600886610903217   dF: -1.194e-02   |Residual|: 1.093e-02   |deigs|: 6.898e-04  t[s]:   3831.46
	FillingsUpdate:  mu: +0.845714335  nElectrons: 762.000000
SCF: Cycle:  4   F: -3730.600951302297744   dF: -6.469e-05   |Residual|: 5.149e-03   |deigs|: 1.090e-04  t[s]:   4109.67
	FillingsUpdate:  mu: +0.845714515  nElectrons: 762.000000
SCF: Cycle:  5   F: -3730.601064504536680   dF: -1.132e-04   |Residual|: 1.120e-03   |deigs|: 4.754e-05  t[s]:   4388.03
	FillingsUpdate:  mu: +0.845708193  nElectrons: 762.000000
SCF: Cycle:  6   F: -3730.601066555739635   dF: -2.051e-06   |Residual|: 5.532e-04   |deigs|: 2.210e-05  t[s]:   4666.40
	FillingsUpdate:  mu: +0.845707222  nElectrons: 762.000000
SCF: Cycle:  7   F: -3730.601067761166632   dF: -1.205e-06   |Residual|: 2.263e-04   |deigs|: 1.426e-05  t[s]:   4944.23
	FillingsUpdate:  mu: +0.845709012  nElectrons: 762.000000
SCF: Cycle:  8   F: -3730.601067860727198   dF: -9.956e-08   |Residual|: 8.181e-05   |deigs|: 1.255e-05  t[s]:   5222.79
	FillingsUpdate:  mu: +0.845708882  nElectrons: 762.000000
SCF: Cycle:  9   F: -3730.601067897649955   dF: -3.692e-08   |Residual|: 3.543e-05   |deigs|: 1.183e-05  t[s]:   5501.23
	FillingsUpdate:  mu: +0.845708567  nElectrons: 762.000000
SCF: Cycle: 10   F: -3730.601067909604353   dF: -1.195e-08   |Residual|: 1.619e-05   |deigs|: 1.082e-05  t[s]:   5779.54
	FillingsUpdate:  mu: +0.845708540  nElectrons: 762.000000
SCF: Cycle: 11   F: -3730.601067914755731   dF: -5.151e-09   |Residual|: 8.834e-06   |deigs|: 9.484e-06  t[s]:   6057.92
	FillingsUpdate:  mu: +0.845708557  nElectrons: 762.000000
SCF: Cycle: 12   F: -3730.601067916898046   dF: -2.142e-09   |Residual|: 5.477e-06   |deigs|: 9.116e-06  t[s]:   6336.21
SCF: Converged (|Delta E|<1.000000e-08 for 2 iters).

Setting wave functions to eigenvectors of Hamiltonian

# Ionic positions in lattice coordinates:
ion W   0.000000000000000   0.000000000000000   0.000000000000000 0
ion W   0.164370000000000   0.157120000000000   0.162090000000000 1
ion W   0.008660000000000  -0.007740000000000   0.321750000000000 1
ion W   0.167320000000000   0.182380000000000   0.481930000000000 1
ion W   0.009080000000000   0.009290000000000   0.662200000000000 1
ion W   0.165650000000000   0.151240000000000   0.832430000000000 1
ion W   0.003080000000000   0.337850000000000  -0.002100000000000 1
ion W   0.169760000000000   0.509640000000000   0.162410000000000 1
ion W  -0.009840000000000   0.331660000000000   0.330800000000000 1
ion W   0.158300000000000   0.509050000000000   0.492950000000000 1
ion W  -0.009050000000000   0.338240000000000   0.684310000000000 1
ion W   0.182510000000000   0.533920000000000   0.846790000000000 1
ion W  -0.005390000000000   0.663890000000000   0.003480000000000 1
ion W   0.169620000000000   0.853060000000000   0.158640000000000 1
ion W   0.006240000000000   0.677960000000000   0.321230000000000 1
ion W   0.168430000000000   0.835000000000000   0.493310000000000 1
ion W   0.015590000000000   0.655140000000000   0.665870000000000 1
ion W   0.142390000000000   0.824830000000000   0.841500000000000 1
ion W   0.334240000000000  -0.007970000000000   0.005870000000000 1
ion W   0.510110000000000   0.170760000000000   0.167980000000000 1
ion W   0.333030000000000   0.000970000000000   0.342100000000000 1
ion W   0.503610000000000   0.190640000000000   0.506210000000000 1
ion W   0.321870000000000   0.003110000000000   0.654310000000000 1
ion W   0.489140000000000   0.163080000000000   0.840870000000000 1
ion W   0.342140000000000   0.331600000000000  -0.015350000000000 1
ion W   0.482300000000000   0.493340000000000   0.174970000000000 1
ion W   0.335320000000000   0.342920000000000   0.324560000000000 1
ion W   0.508760000000000   0.508520000000000   0.496830000000000 1
ion W   0.334550000000000   0.338300000000000   0.656580000000000 1
ion W   0.488430000000000   0.501820000000000   0.843180000000000 1
ion W   0.332510000000000   0.652050000000000  -0.002560000000000 1
ion W   0.496430000000000   0.835090000000000   0.176570000000000 1
ion W   0.331320000000000   0.665110000000000   0.338330000000000 1
ion W   0.506030000000000   0.852380000000000   0.496000000000000 1
ion W   0.355720000000000   0.655600000000000   0.683890000000000 1
ion W   0.492970000000000   0.829890000000000   0.830300000000000 1
ion W   0.659240000000000  -0.001790000000000  -0.006440000000000 1
ion W   0.832330000000000   0.151630000000000   0.167900000000000 1
ion W   0.673630000000000   0.003800000000000   0.336280000000000 1
ion W   0.822750000000000   0.176620000000000   0.492890000000000 1
ion W   0.674430000000000   0.001620000000000   0.646730000000000 1
ion W   0.866450000000000   0.158800000000000   0.843890000000000 1
ion W   0.672300000000000   0.335360000000000  -0.010460000000000 1
ion W   0.835920000000000   0.497400000000000   0.160650000000000 1
ion W   0.683220000000000   0.332550000000000   0.329590000000000 1
ion W   0.816310000000000   0.494420000000000   0.517110000000000 1
ion W   0.659230000000000   0.336630000000000   0.666020000000000 1
ion W   0.844450000000000   0.510080000000000   0.854390000000000 1
ion W   0.658780000000000   0.673620000000000   0.011840000000000 1
ion W   0.847540000000000   0.850280000000000   0.176890000000000 1
ion W   0.683870000000000   0.662150000000000   0.339680000000000 1
ion W   0.823280000000000   0.843640000000000   0.498720000000000 1
ion W   0.670620000000000   0.671240000000000   0.672220000000000 1
ion W   0.831780000000000   0.827490000000000   0.842800000000000 1
ion O   0.340000000000000   0.150000000000000   0.180000000000000 1

# Forces in Lattice coordinates:
force W   0.108330663239151  -0.337476182785323  -0.016119197607345 0
force W  -4.902476787664767   1.228427384674138  -0.439861993068474 1
force W  -0.192530906112538   0.993666038820230   1.234020570563664 1
force W  -0.267181900634141  -0.284019296908077   0.768820927108322 1
force W  -0.501202810801042  -0.548250759970974  -0.389976551589411 1
force W   0.597288699856044   0.901631951096413  -0.050208278072949 1
force W   0.429726826577761  -0.205207695612256   0.419412502969304 1
force W  -0.401350066092675  -0.600981023996781   0.268970416926011 1
force W   0.633138220897838   0.335186299507699  -0.100284267771467 1
force W   0.294679789661963  -0.539153038281188   0.190087711934881 1
force W   0.736475126131050   0.036371623241668  -0.739451154138292 1
force W  -1.433619434897738  -2.508947819199349  -1.123464560242254 1
force W   0.212567198081007   0.654634396743926   0.501082298810768 1
force W   0.171860815302989  -1.454831339799983   0.312778385501059 1
force W  -0.275546354439407  -0.599386810950520   0.607848221300928 1
force W  -0.125807494915075  -0.165444463169431   0.541884197608970 1
force W  -1.009348440133491   0.864903035117887  -0.270111882737554 1
force W   1.262508824475141   0.711103722038280  -0.548917153486771 1
force W   0.192535074464273  -0.348441231141800  -1.222196812526833 1
force W   6.131133272407713   0.688649641566899  -0.513184412396372 1
force W   0.255034647789102  -0.263099834102137   0.290536440315693 1
force W  -0.330142509170123  -0.934813425155820  -0.526187483216649 1
force W   0.607140421146141  -0.175281593538860   0.527698258203344 1
force W   0.660323856789842  -0.061638028923753  -0.664891314541997 1
force W  -0.830774036487108   0.154436757154800   0.336716176445097 1
force W   1.395267498869927   0.416553750987861  -0.486234933420281 1
force W  -0.388483578445190   0.142883112103646   0.868941480201790 1
force W  -0.492520923751276  -0.049471641588775   0.142471095191048 1
force W  -0.486727921834225  -0.023225404924678   0.352984340304148 1
force W   1.609816990870655  -0.498615531280676  -0.361623641015932 1
force W   0.686528000259580   2.025650305185890   1.387796113743927 1
force W   0.339568198377108  -0.213394568145495  -0.270770896897957 1
force W   0.274134578920288   0.426115859749098  -0.079712668127490 1
force W  -0.383865403452805  -0.898320135600608   0.316470323187923 1
force W  -0.987444643683002   1.058156584304004  -1.588942105708283 1
force W   0.362503331244902   0.527963952730188   0.210284621251690 1
force W   0.270083742231510  -0.012388713668097   0.131763327704960 1
force W   0.106759409801444   0.980823016999894  -0.403437971661148 1
force W  -0.616410978697619   0.018086857866493  -0.475130892492629 1
force W   1.093162660561402  -0.413010584555958   0.641304072999931 1
force W  -0.392371069897259   0.370402331335764   1.472121966424071 1
force W  -2.074359779356452   0.424547485461336  -0.682045624030420 1
force W  -0.116867230735924  -0.189094949338758   0.440586390608005 1
force W  -0.215725277047190   0.151886969990109   0.608549402674177 1
force W  -1.064088689931288   0.399566234264586  -0.256712661135585 1
force W   1.293699366863358   0.599995532833295  -0.417750336502116 1
force W   0.319385284975495  -0.086103010159251   0.795848251099824 1
force W  -0.847172058715450  -0.487075691732748  -1.253664889076467 1
force W   0.194082512322196  -0.214077785174002  -0.067617831158528 1
force W  -1.091453428977796  -1.229520465610382  -0.737945103785361 1
force W  -0.694680593063651   0.278056900211674  -0.389045572850519 1
force W   1.197517727629851  -0.690944101316409   0.315806178206564 1
force W   0.049648239974746  -0.003378090501352   0.093506702752099 1
force W  -0.173204766720099   0.388836531989620  -0.467275177626861 1
force O  -1.198037852421316  -0.738713204924475   0.765076959788007 1

# Energy components:
   Eewald =    -3235.0623271021067922
       EH =      442.0604472509177754
     Eloc =     -888.3580717175231030
      Enl =     -796.1950459640049758
      Exc =    -1113.4925493868740887
 Exc_core =      579.0145205238934523
       KE =     1281.7223543672726009
-------------------------------------
     Etot =    -3730.3106720284258699
       TS =        0.2903958884723851
-------------------------------------
        F =    -3730.6010679168980460

IonicMinimize: Iter:   0  F: -3730.601067916898046  |grad|_K:  5.275e-02  t[s]:   6433.57

#--- Lowdin population analysis ---
# oxidation-state W -0.047 +0.050 -0.010 +0.001 +0.012 +0.011 +0.005 +0.016 +0.004 +0.007 +0.042 -0.001 -0.019 +0.015 +0.029 +0.000 +0.004 +0.032 +0.003 +0.074 +0.019 +0.005 +0.024 +0.001 -0.003 +0.016 +0.009 +0.007 +0.034 -0.011 -0.001 +0.006 +0.005 +0.020 +0.014 +0.013 +0.000 +0.024 -0.015 +0.008 +0.018 +0.003 +0.009 -0.006 -0.011 +0.007 +0.022 +0.000 +0.028 +0.011 +0.013 +0.013 +0.020 +0.026
# oxidation-state O +0.025


-------- Electronic minimization -----------
Will mix electronic density at each iteration.
	FillingsUpdate:  mu: +0.845708557  nElectrons: 762.000000
	FillingsUpdate:  mu: +0.848280990  nElectrons: 762.000000
SCF: Cycle:  0   F: -3719.116100783841375   dF: +1.069e+01   |Residual|: 1.041e+00   |deigs|: 2.687e-03  t[s]:   7073.41
	FillingsUpdate:  mu: +0.845367813  nElectrons: 762.000000
SCF: Cycle:  1   F: -3725.669465732948538   dF: -6.553e+00   |Residual|: 7.745e-01   |deigs|: 1.703e-02  t[s]:   7543.55
	FillingsUpdate:  mu: +0.846615790  nElectrons: 762.000000
SCF: Cycle:  2   F: -3730.486208309798712   dF: -4.817e+00   |Residual|: 1.690e-01   |deigs|: 1.514e-02  t[s]:   8013.39
	FillingsUpdate:  mu: +0.846022503  nElectrons: 762.000000
SCF: Cycle:  3   F: -3730.693525912083260   dF: -2.073e-01   |Residual|: 7.079e-02   |deigs|: 1.494e-03  t[s]:   8483.36
	FillingsUpdate:  mu: +0.846061440  nElectrons: 762.000000
SCF: Cycle:  4   F: -3730.717366909976136   dF: -2.384e-02   |Residual|: 2.175e-02   |deigs|: 8.208e-04  t[s]:   8943.89
	FillingsUpdate:  mu: +0.846035453  nElectrons: 762.000000
SCF: Cycle:  5   F: -3730.718036572306573   dF: -6.697e-04   |Residual|: 1.152e-02   |deigs|: 2.310e-04  t[s]:   9221.41
	FillingsUpdate:  mu: +0.846037604  nElectrons: 762.000000
SCF: Cycle:  6   F: -3730.718349528177441   dF: -3.130e-04   |Residual|: 2.679e-03   |deigs|: 6.809e-05  t[s]:   9499.32
	FillingsUpdate:  mu: +0.846039011  nElectrons: 762.000000
SCF: Cycle:  7   F: -3730.718361923017255   dF: -1.239e-05   |Residual|: 1.151e-03   |deigs|: 1.491e-05  t[s]:   9777.06
	FillingsUpdate:  mu: +0.846037975  nElectrons: 762.000000
SCF: Cycle:  8   F: -3730.718367386675254   dF: -5.464e-06   |Residual|: 3.999e-04   |deigs|: 7.221e-06  t[s]:  10054.93
	FillingsUpdate:  mu: +0.846038730  nElectrons: 762.000000
SCF: Cycle:  9   F: -3730.718367553412463   dF: -1.667e-07   |Residual|: 1.612e-04   |deigs|: 2.093e-06  t[s]:  10332.82
	FillingsUpdate:  mu: +0.846038793  nElectrons: 762.000000
SCF: Cycle: 10   F: -3730.718367670284806   dF: -1.169e-07   |Residual|: 6.706e-05   |deigs|: 8.078e-07  t[s]:  10610.31
	FillingsUpdate:  mu: +0.846038740  nElectrons: 762.000000
SCF: Cycle: 11   F: -3730.718367681237396   dF: -1.095e-08   |Residual|: 2.289e-05   |deigs|: 3.661e-07  t[s]:  10888.09
	FillingsUpdate:  mu: +0.846038713  nElectrons: 762.000000
SCF: Cycle: 12   F: -3730.718367684674831   dF: -3.437e-09   |Residual|: 1.752e-05   |deigs|: 2.472e-07  t[s]:  11165.87
	FillingsUpdate:  mu: +0.846038717  nElectrons: 762.000000
SCF: Cycle: 13   F: -3730.718367686637976   dF: -1.963e-09   |Residual|: 1.155e-05   |deigs|: 2.246e-07  t[s]:  11443.87
SCF: Converged (|Delta E|<1.000000e-08 for 2 iters).

Setting wave functions to eigenvectors of Hamiltonian

# Ionic positions in lattice coordinates:
ion W   0.000000000000000   0.000000000000000   0.000000000000000 0
ion W   0.159928908116775   0.158232816872674   0.161691534568798 1
ion W   0.008485588680693  -0.006839850469309   0.322867883669221 1
ion W   0.167077963286387   0.182122710501485   0.482626465180136 1
ion W   0.008625966695753   0.008793346552052   0.661846725160990 1
ion W   0.166191076299137   0.152056777011519   0.832384516954209 1
ion W   0.003469284111721   0.337664104936988  -0.001720059503933 1
ion W   0.169396422037665   0.509095578870998   0.162653656907962 1
ion W  -0.009266448071949   0.331963641040761   0.330709153746789 1
ion W   0.158566946704431   0.508561588063374   0.493122198060519 1
ion W  -0.008382836472967   0.338272948594711   0.683640140526734 1
ion W   0.181211302237274   0.531647175817881   0.845772267626001 1
ion W  -0.005197438056532   0.664483025042602   0.003933924133955 1
ion W   0.169775686544770   0.851742086640185   0.158923341994110 1
ion W   0.005990386033192   0.677417023048488   0.321780642036418 1
ion W   0.168316032577263   0.834850125947693   0.493800886059411 1
ion W   0.014675643979773   0.655923504749824   0.665625309052557 1
ion W   0.143533690819095   0.825474179892095   0.841002742874572 1
ion W   0.334414415095364  -0.008285648516133   0.004762827324043 1
ion W   0.515664116294762   0.171383839023826   0.167515112714001 1
ion W   0.333261032670483   0.000731661178968   0.342363193296522 1
ion W   0.503310928065285   0.189793164309674   0.505733333396163 1
ion W   0.322420000849186   0.002951214615375   0.654788035195841 1
ion W   0.489738179052692   0.163024162887086   0.840267683344943 1
ion W   0.341387412279540   0.331739902310277  -0.015044973063019 1
ion W   0.483563955227641   0.493717350788706   0.174529525907071 1
ion W   0.334968077626529   0.343049436008960   0.325347163126286 1
ion W   0.508313831507720   0.508475184263909   0.496959062768036 1
ion W   0.334109079315085   0.338278960398639   0.656899764061418 1
ion W   0.489888312906167   0.501368310479635   0.842852409705042 1
ion W   0.333131917055728   0.653885011060379  -0.001302813005902 1
ion W   0.496737610547674   0.834896688552427   0.176324712059942 1
ion W   0.331568335057173   0.665496012982419   0.338257789299421 1
ion W   0.505682261173002   0.851566223120364   0.496286686473892 1
ion W   0.354825486352688   0.656558570702376   0.682450597388991 1
ion W   0.493298387195241   0.830368275885162   0.830490494185910 1
ion W   0.659484665455313  -0.001801222779444  -0.006320637263465 1
ion W   0.832426712002700   0.152518515199223   0.167534530630346 1
ion W   0.673071601069665   0.003816384656398   0.335849584917683 1
ion W   0.823740282265299   0.176245858921072   0.493470949270468 1
ion W   0.674074555997059   0.001955542799787   0.648063576720374 1
ion W   0.864570863641381   0.159184592211935   0.843272143472358 1
ion W   0.672194131449813   0.335188701270594  -0.010060878346204 1
ion W   0.835724577192632   0.497537592490247   0.161201277227780 1
ion W   0.682256055477963   0.332911962011583   0.329357447238392 1
ion W   0.817481945938014   0.494963528384987   0.516731565239570 1
ion W   0.659519327101006   0.336552000369180   0.666740948892024 1
ion W   0.843682557518044   0.509638764274721   0.853254320790428 1
ion W   0.658955816899800   0.673426069634739   0.011778745859669 1
ion W   0.846551266106033   0.849166192919093   0.176221504838751 1
ion W   0.683240697613286   0.662401888238556   0.339327568522887 1
ion W   0.824364816204245   0.843014082454028   0.499006084833330 1
ion W   0.670664975714342   0.671236939830425   0.672304706542551 1
ion W   0.831623095986594   0.827842242109634   0.842376701310690 1
ion O   0.338914712621267   0.149330809025618   0.180693073567366 1

# Forces in Lattice coordinates:
force W   0.066058036682374  -0.331958325898041  -0.048646124120096 0
force W  -3.863259584322776   1.122186495162837  -0.350571224539490 1
force W  -0.232275722514805   0.866009896026317   1.106040550230222 1
force W  -0.253259106735335  -0.289778368476201   0.765628914478282 1
force W  -0.474054016137117  -0.507350550387151  -0.322984955810665 1
force W   0.516686189374243   0.864236422201632  -0.069920761780032 1
force W   0.343177860641305  -0.170764160243986   0.347723318104447 1
force W  -0.343800348636740  -0.543398539546284   0.242263229602632 1
force W   0.573601590466766   0.331178712274093  -0.068038027895165 1
force W   0.292126483381075  -0.492488344842091   0.204502370023588 1
force W   0.696771419439109   0.022526421904203  -0.710683396575083 1
force W  -1.179678407200269  -2.263218855825080  -0.950039539403319 1
force W   0.208408292951004   0.581029997494860   0.391733700886667 1
force W   0.141033580060535  -1.343659545621585   0.318893298666322 1
force W  -0.268586860167584  -0.556904851863768   0.593345047734267 1
force W  -0.109276960990970  -0.154393676888138   0.509497649299779 1
force W  -0.956464629644492   0.828648851601846  -0.223093743907827 1
force W   1.220481586252465   0.638992980710507  -0.523840397171054 1
force W   0.147524448824350  -0.204560821849334  -1.001606789771104 1
force W   4.098197965836381   0.468103681888165  -0.403880101237436 1
force W   0.230137084522437  -0.169692767771310   0.164928445128197 1
force W  -0.282729822576619  -0.878729871467138  -0.463362180800535 1
force W   0.577924376358789  -0.160681121935836   0.511243642195688 1
force W   0.625695167137112  -0.032952163015121  -0.637662947252406 1
force W  -0.739666893595824   0.141588510524861   0.354868120318861 1
force W   1.282697699052404   0.397590818391206  -0.452232164425616 1
force W  -0.318849779891638   0.044400734907130   0.707607830031177 1
force W  -0.450216123972186  -0.061313003394842   0.149453724957592 1
force W  -0.440651832940113  -0.023141551574351   0.350379136552260 1
force W   1.391459786318867  -0.392926990622033  -0.350325173740946 1
force W   0.502359013424500   1.738557113910415   1.104676683062135 1
force W   0.329518675662099  -0.199377034382016  -0.264672476186825 1
force W   0.256760912750475   0.389641036443076  -0.081776074469085 1
force W  -0.333312323088846  -0.863334154311034   0.311680649734216 1
force W  -0.947574993427287   0.963597018485866  -1.405253830261363 1
force W   0.331599115047656   0.468004086467393   0.183050215164882 1
force W   0.289600634716658  -0.015936501009032   0.122054200653801 1
force W   0.126236547841804   0.898327218834545  -0.360165942383262 1
force W  -0.530402280087064  -0.010690506853566  -0.385833301907793 1
force W   0.998030617912803  -0.380500356135926   0.588538701870451 1
force W  -0.360167235966372   0.327041896176120   1.357542576643370 1
force W  -1.940243180237782   0.405256023193316  -0.656235675094593 1
force W  -0.088379105804014  -0.159611390136386   0.414547741292639 1
force W  -0.192319020255794   0.159256286179029   0.552557097610336 1
force W  -0.965051638027532   0.379979261668858  -0.164838753101472 1
force W   1.199975725239335   0.554558410569148  -0.418512989751819 1
force W   0.314109259336625  -0.083921034067882   0.697741958502454 1
force W  -0.767501348945326  -0.441628744211319  -1.144183296490465 1
force W   0.205402685788619  -0.214309658131030  -0.091596480644109 1
force W  -0.995838739758477  -1.112188685880344  -0.655067659207280 1
force W  -0.670092819001035   0.276546750248716  -0.347655122169989 1
force W   1.083674651992911  -0.623534858390290   0.292189106324912 1
force W   0.047864657663643  -0.016084083316024   0.073509369104791 1
force W  -0.142863633854053   0.363222574494546  -0.448862515236695 1
force O  -0.263625952435121  -0.527993609815591   0.586227488636612 1

# Energy components:
   Eewald =    -3239.3264062318939978
       EH =      438.0552306331022123
     Eloc =     -879.8597848074194872
      Enl =     -796.1444444762037165
      Exc =    -1113.3463869476695436
 Exc_core =      579.0143850483445931
       KE =     1281.1761809568588433
-------------------------------------
     Etot =    -3730.4312258248810394
       TS =        0.2871418617567814
-------------------------------------
        F =    -3730.7183676866379756

IonicMinimize: Iter:   1  F: -3730.718367686637976  |grad|_K:  4.333e-02  alpha:  2.880e-01  linmin: -9.882e-01  t[s]:  11541.08

#--- Lowdin population analysis ---
# oxidation-state W -0.045 +0.056 -0.009 -0.001 +0.012 +0.010 +0.004 +0.014 +0.002 +0.006 +0.039 +0.000 -0.017 +0.012 +0.029 -0.002 +0.004 +0.031 +0.015 +0.073 +0.030 +0.004 +0.024 +0.001 +0.007 +0.015 +0.019 +0.006 +0.034 -0.010 +0.001 +0.005 +0.007 +0.017 +0.013 +0.010 +0.000 +0.028 -0.013 +0.008 +0.018 +0.003 +0.008 -0.005 -0.011 +0.009 +0.021 +0.003 +0.026 +0.010 +0.013 +0.014 +0.020 +0.026
# oxidation-state O -0.021


-------- Electronic minimization -----------
Will mix electronic density at each iteration.
	FillingsUpdate:  mu: +0.846038717  nElectrons: 762.000000
	FillingsUpdate:  mu: +0.849929994  nElectrons: 762.000000
SCF: Cycle:  0   F: -3709.082079576356591   dF: +2.000e+01   |Residual|: 1.395e+00   |deigs|: 4.917e-03  t[s]:  12180.49
	FillingsUpdate:  mu: +0.845257256  nElectrons: 762.000000
SCF: Cycle:  1   F: -3720.941837367010066   dF: -1.186e+01   |Residual|: 1.020e+00   |deigs|: 1.704e-02  t[s]:  12650.80
	FillingsUpdate:  mu: +0.847541121  nElectrons: 762.000000
SCF: Cycle:  2   F: -3730.407156366081836   dF: -9.465e+00   |Residual|: 2.266e-01   |deigs|: 2.162e-02  t[s]:  13120.86
	FillingsUpdate:  mu: +0.846553782  nElectrons: 762.000000
SCF: Cycle:  3   F: -3730.813651831778770   dF: -4.065e-01   |Residual|: 8.359e-02   |deigs|: 1.968e-03  t[s]:  13590.18
	FillingsUpdate:  mu: +0.846626420  nElectrons: 762.000000
SCF: Cycle:  4   F: -3730.845648064294437   dF: -3.200e-02   |Residual|: 3.136e-02   |deigs|: 9.915e-04  t[s]:  14022.26
	FillingsUpdate:  mu: +0.846535162  nElectrons: 762.000000
SCF: Cycle:  5   F: -3730.847623720592765   dF: -1.976e-03   |Residual|: 1.446e-02   |deigs|: 3.281e-04  t[s]:  14299.89
	FillingsUpdate:  mu: +0.846529513  nElectrons: 762.000000
SCF: Cycle:  6   F: -3730.847956667886137   dF: -3.329e-04   |Residual|: 3.838e-03   |deigs|: 1.168e-04  t[s]:  14577.39
	FillingsUpdate:  mu: +0.846529497  nElectrons: 762.000000
SCF: Cycle:  7   F: -3730.847986253110776   dF: -2.959e-05   |Residual|: 1.643e-03   |deigs|: 1.588e-05  t[s]:  14854.92
	FillingsUpdate:  mu: +0.846530894  nElectrons: 762.000000
SCF: Cycle:  8   F: -3730.847995000213359   dF: -8.747e-06   |Residual|: 5.417e-04   |deigs|: 8.780e-06  t[s]:  15132.57
	FillingsUpdate:  mu: +0.846532597  nElectrons: 762.000000
SCF: Cycle:  9   F: -3730.847995501292189   dF: -5.011e-07   |Residual|: 2.200e-04   |deigs|: 3.861e-06  t[s]:  15410.52
	FillingsUpdate:  mu: +0.846532943  nElectrons: 762.000000
SCF: Cycle: 10   F: -3730.847995708441431   dF: -2.071e-07   |Residual|: 9.328e-05   |deigs|: 1.141e-06  t[s]:  15687.93
	FillingsUpdate:  mu: +0.846532624  nElectrons: 762.000000
SCF: Cycle: 11   F: -3730.847995729080139   dF: -2.064e-08   |Residual|: 3.478e-05   |deigs|: 6.806e-07  t[s]:  15965.46
	FillingsUpdate:  mu: +0.846532628  nElectrons: 762.000000
SCF: Cycle: 12   F: -3730.847995737451583   dF: -8.371e-09   |Residual|: 2.658e-05   |deigs|: 3.433e-07  t[s]:  16242.98
	FillingsUpdate:  mu: +0.846532606  nElectrons: 762.000000
SCF: Cycle: 13   F: -3730.847995742657531   dF: -5.206e-09   |Residual|: 1.716e-05   |deigs|: 2.522e-07  t[s]:  16520.34
SCF: Converged (|Delta E|<1.000000e-08 for 2 iters).

Setting wave functions to eigenvectors of Hamiltonian

# Ionic positions in lattice coordinates:
ion W   0.000000000000000   0.000000000000000   0.000000000000000 0
ion W   0.154681380975867   0.160151276361550   0.161205247383017 1
ion W   0.007964104502911  -0.005451361969340   0.324711857646838 1
ion W   0.166624740226337   0.181560431100337   0.484074983053289 1
ion W   0.007779809356993   0.007911622875768   0.661367929767879 1
ion W   0.167010543401502   0.153623764220993   0.832211924961266 1
ion W   0.003947045990082   0.337408997586089  -0.001203718312761 1
ion W   0.168859045743395   0.508178965658085   0.163060224475341 1
ion W  -0.008296376486953   0.332584915720821   0.330644832811779 1
ion W   0.159116939437857   0.507719722556873   0.493539865113589 1
ion W  -0.007138739280305   0.338287859163878   0.682347570769125 1
ion W   0.179481194567451   0.527841434207155   0.844316315984805 1
ion W  -0.004809772897295   0.665438867489353   0.004458018573809 1
ion W   0.169981582500854   0.849412690133659   0.159541666441422 1
ion W   0.005494004576613   0.676444316835370   0.322878972059737 1
ion W   0.168141677893330   0.834578993186543   0.494703844376810 1
ion W   0.012964600321486   0.657425163472085   0.665296095046778 1
ion W   0.145768329740311   0.826543180900842   0.840057799840612 1
ion W   0.334604067309216  -0.008384473025287   0.003303914977278 1
ion W   0.519355831185244   0.171829006825814   0.166967846839256 1
ion W   0.333648202796913   0.000597397270300   0.342423520761319 1
ion W   0.502869180663709   0.188236289805125   0.504979379797963 1
ion W   0.323459381049753   0.002675285988280   0.655726413223011 1
ion W   0.490857433537213   0.163019342856134   0.839110774959988 1
ion W   0.340165373792213   0.331983079238412  -0.014334030705581 1
ion W   0.485774687067224   0.494434696569236   0.173738647628356 1
ion W   0.334502464298876   0.342935376986917   0.326366777171975 1
ion W   0.507543512394649   0.508334809641225   0.497257144064810 1
ion W   0.333364534422666   0.338235152713310   0.657560351638779 1
ion W   0.492092574571774   0.500834573629977   0.842209441000221 1
ion W   0.333715478466177   0.656610374817176   0.000225973979549 1
ion W   0.497343556523636   0.834546050243359   0.175834034230989 1
ion W   0.332021259444072   0.666162966283813   0.338098229940975 1
ion W   0.505150717874973   0.849996095448030   0.496869332501088 1
ion W   0.353105113326057   0.658199194504443   0.680150266956136 1
ion W   0.493866265931706   0.831136824303692   0.830783475024373 1
ion W   0.660074328161627  -0.001838655977588  -0.006108256911467 1
ion W   0.832705848512502   0.154059412333732   0.166937285710331 1
ion W   0.672236961928954   0.003738084736843   0.335296301803981 1
ion W   0.825445187856395   0.175588287567399   0.494483049954241 1
ion W   0.673455006970047   0.002489662884405   0.650412489533178 1
ion W   0.861153992023284   0.159915842466173   0.842077082712921 1
ion W   0.672083583360160   0.334944793882692  -0.009325565853124 1
ion W   0.835406269085740   0.497855081059738   0.162138498848396 1
ion W   0.680621689240060   0.333594582579899   0.329229318363847 1
ion W   0.819573452223413   0.495925821129717   0.515934714683149 1
ion W   0.660105608328071   0.336396919026387   0.667869213256972 1
ion W   0.842384580686393   0.508891095249611   0.851300589856436 1
ion W   0.659368959679566   0.673018342804657   0.011556366763092 1
ion W   0.844851498311856   0.847289079970121   0.175143650758022 1
ion W   0.682016841074130   0.662924376185667   0.338750307071075 1
ion W   0.826194772503755   0.841964983824119   0.499513754539097 1
ion W   0.670752340686855   0.671180773025663   0.672404105545022 1
ion W   0.831412742856996   0.828480875441571   0.841560813498601 1
ion O   0.340296511045301   0.148752030997783   0.181446731428841 1

# Forces in Lattice coordinates:
force W   0.017147793644898  -0.306883361747034  -0.095265911548242 0
force W  -2.379552715245742   0.918783580434684  -0.184848518211369 1
force W  -0.265369452760500   0.682505673745011   0.900245482026166 1
force W  -0.217517700974189  -0.299905943055909   0.725927117634396 1
force W  -0.421600641213234  -0.438506657168949  -0.213393353415120 1
force W   0.385808101664184   0.789070810594476  -0.089951212371695 1
force W   0.214732486870509  -0.120073027232168   0.237782149911862 1
force W  -0.263169405327995  -0.455827265046856   0.207289162619280 1
force W   0.479532791535795   0.313651791206933  -0.017744258477228 1
force W   0.280945309384848  -0.409068059524869   0.223204510993281 1
force W   0.618459527976763   0.003688872692491  -0.653580200221124 1
force W  -0.893138081944288  -1.905554523319454  -0.758045849804136 1
force W   0.199202902273889   0.466741175958032   0.237538458593741 1
force W   0.090515796343824  -1.143302608079296   0.324746606588060 1
force W  -0.251204501552123  -0.485286772908104   0.555896147705964 1
force W  -0.085493349268170  -0.128839257503280   0.447140941966629 1
force W  -0.844109357135455   0.748472241220372  -0.145197887232393 1
force W   1.125764355644664   0.530352976553577  -0.477967206127606 1
force W   0.070983528373409  -0.080786505767604  -0.769597489023935 1
force W   3.346663024170625   0.397246306881655  -0.384141105685797 1
force W   0.179305561497263  -0.116939064582705   0.079404372491374 1
force W  -0.214529743442770  -0.785824682926068  -0.374055688721013 1
force W   0.523390606096326  -0.135291772851710   0.473503110494545 1
force W   0.565158448821265   0.010362200286132  -0.566096073374825 1
force W  -0.609792052574401   0.156316416340749   0.335911884145720 1
force W   1.097657042566040   0.354036007849554  -0.397983748266676 1
force W  -0.245832358637481  -0.001329529890823   0.550809652571680 1
force W  -0.384255489927654  -0.079548985289773   0.158594465624367 1
force W  -0.355647073125394  -0.022770060242451   0.335763867029927 1
force W   1.084305990721266  -0.255001739092581  -0.329920275756282 1
force W   0.308146646132376   1.349646466158008   0.767128032546925 1
force W   0.304240983067694  -0.169000863525179  -0.250210325041210 1
force W   0.226113499459300   0.323269379882503  -0.083711919662220 1
force W  -0.264219451887864  -0.788064751318736   0.292775260172124 1
force W  -0.871598644215370   0.818988036720350  -1.139956364081833 1
force W   0.285325953842942   0.374842728438606   0.145899917154470 1
force W   0.300768481568397  -0.013930509148834   0.111107476829662 1
force W   0.123100571057925   0.775623292304835  -0.287760768662084 1
force W  -0.411835446352948  -0.031966766707640  -0.268484296162890 1
force W   0.832629475191913  -0.324653810908674   0.499123178592652 1
force W  -0.309997742556331   0.257121307629589   1.166952118774505 1
force W  -1.705259368789065   0.366786848503621  -0.599126793333896 1
force W  -0.053420190320862  -0.114129724588916   0.369370425257139 1
force W  -0.160225126755159   0.162510962243899   0.463319138907856 1
force W  -0.803915202142380   0.330804861393916  -0.044517669512167 1
force W   1.036149680831144   0.474576987721683  -0.416838321931619 1
force W   0.304581268469678  -0.072989832606589   0.542185388202493 1
force W  -0.643831205118590  -0.375138226016855  -0.972344472224999 1
force W   0.216105589107988  -0.210872967307596  -0.131082973693303 1
force W  -0.844583050718024  -0.931419153443742  -0.531168171771861 1
force W  -0.620067887496466   0.269505283086533  -0.278411804570618 1
force W   0.897969821691942  -0.522711057101788   0.248318236890519 1
force W   0.034804265790041  -0.033591768589467   0.042840757530494 1
force W  -0.095105046339703   0.323758258152569  -0.412155800303918 1
force O  -0.946257630712027  -0.438228365205295   0.431994888804056 1

# Energy components:
   Eewald =    -3244.7020855965006376
       EH =      432.9102157564059326
     Eloc =     -869.0444098791500664
      Enl =     -796.0687137188842826
      Exc =    -1113.1646301387133917
 Exc_core =      579.0142073424219689
       KE =     1280.4888691424466742
-------------------------------------
     Etot =    -3730.5665470919739164
       TS =        0.2814486506834979
-------------------------------------
        F =    -3730.8479957426575311

IonicMinimize: Iter:   2  F: -3730.847995742657531  |grad|_K:  3.522e-02  alpha:  2.173e-01  linmin: -9.586e-01  t[s]:  16617.53

#--- Lowdin population analysis ---
# oxidation-state W -0.040 +0.052 -0.006 -0.002 +0.012 +0.008 +0.003 +0.012 +0.002 +0.006 +0.035 +0.002 -0.014 +0.009 +0.027 -0.005 +0.004 +0.028 +0.025 +0.077 +0.039 +0.002 +0.024 +0.000 +0.016 +0.013 +0.028 +0.006 +0.032 -0.008 +0.004 +0.002 +0.009 +0.015 +0.013 +0.008 -0.001 +0.031 -0.012 +0.009 +0.017 +0.004 +0.005 -0.004 -0.011 +0.011 +0.020 +0.007 +0.024 +0.010 +0.013 +0.014 +0.019 +0.026
# oxidation-state O -0.057


-------- Electronic minimization -----------
Will mix electronic density at each iteration.
	FillingsUpdate:  mu: +0.846532606  nElectrons: 762.000000
	FillingsUpdate:  mu: +0.850961981  nElectrons: 762.000000
SCF: Cycle:  0   F: -3693.054258947039216   dF: +3.511e+01   |Residual|: 1.746e+00   |deigs|: 7.513e-03  t[s]:  17256.83
	FillingsUpdate:  mu: +0.844280931  nElectrons: 762.000000
SCF: Cycle:  1   F: -3710.596480062276441   dF: -1.754e+01   |Residual|: 1.334e+00   |deigs|: 1.731e-02  t[s]:  17726.52
	FillingsUpdate:  mu: +0.848751053  nElectrons: 762.000000
SCF: Cycle:  2   F: -3730.282009732212373   dF: -1.969e+01   |Residual|: 2.944e-01   |deigs|: 3.023e-02  t[s]:  18195.79
	FillingsUpdate:  mu: +0.847343686  nElectrons: 762.000000
SCF: Cycle:  3   F: -3730.908566362798865   dF: -6.266e-01   |Residual|: 1.063e-01   |deigs|: 2.949e-03  t[s]:  18664.59
	FillingsUpdate:  mu: +0.847354378  nElectrons: 762.000000
SCF: Cycle:  4   F: -3730.969430811925577   dF: -6.086e-02   |Residual|: 4.591e-02   |deigs|: 1.257e-03  t[s]:  19096.02
	FillingsUpdate:  mu: +0.847158387  nElectrons: 762.000000
SCF: Cycle:  5   F: -3730.975155511755929   dF: -5.725e-03   |Residual|: 1.653e-02   |deigs|: 4.924e-04  t[s]:  19373.71
	FillingsUpdate:  mu: +0.847139878  nElectrons: 762.000000
SCF: Cycle:  6   F: -3730.975494463989889   dF: -3.390e-04   |Residual|: 6.274e-03   |deigs|: 1.396e-04  t[s]:  19651.04
	FillingsUpdate:  mu: +0.847134729  nElectrons: 762.000000
SCF: Cycle:  7   F: -3730.975636022147228   dF: -1.416e-04   |Residual|: 2.081e-03   |deigs|: 2.499e-05  t[s]:  19928.41
	FillingsUpdate:  mu: +0.847140868  nElectrons: 762.000000
SCF: Cycle:  8   F: -3730.975647130260313   dF: -1.111e-05   |Residual|: 7.755e-04   |deigs|: 1.814e-05  t[s]:  20205.84
	FillingsUpdate:  mu: +0.847145278  nElectrons: 762.000000
SCF: Cycle:  9   F: -3730.975648720260779   dF: -1.590e-06   |Residual|: 2.929e-04   |deigs|: 8.171e-06  t[s]:  20483.35
	FillingsUpdate:  mu: +0.847145360  nElectrons: 762.000000
SCF: Cycle: 10   F: -3730.975649083697590   dF: -3.634e-07   |Residual|: 1.328e-04   |deigs|: 1.916e-06  t[s]:  20760.76
	FillingsUpdate:  mu: +0.847144697  nElectrons: 762.000000
SCF: Cycle: 11   F: -3730.975649126346070   dF: -4.265e-08   |Residual|: 5.125e-05   |deigs|: 1.371e-06  t[s]:  21038.34
	FillingsUpdate:  mu: +0.847144698  nElectrons: 762.000000
SCF: Cycle: 12   F: -3730.975649144932049   dF: -1.859e-08   |Residual|: 3.671e-05   |deigs|: 3.548e-07  t[s]:  21316.02
	FillingsUpdate:  mu: +0.847144673  nElectrons: 762.000000
SCF: Cycle: 13   F: -3730.975649154688199   dF: -9.756e-09   |Residual|: 2.569e-05   |deigs|: 2.534e-07  t[s]:  21593.31
	FillingsUpdate:  mu: +0.847144713  nElectrons: 762.000000
SCF: Cycle: 14   F: -3730.975649159122895   dF: -4.435e-09   |Residual|: 8.942e-06   |deigs|: 1.752e-07  t[s]:  21870.99
SCF: Converged (|Delta E|<1.000000e-08 for 2 iters).

Setting wave functions to eigenvectors of Hamiltonian

# Ionic positions in lattice coordinates:
ion W   0.000000000000000   0.000000000000000   0.000000000000000 0
ion W   0.152810449067083   0.162539710264757   0.161210543824526 1
ion W   0.006867168574951  -0.003878695050731   0.326977489431356 1
ion W   0.166000122500268   0.180485846473060   0.486469236326719 1
ion W   0.006526254861614   0.006675266129197   0.661076242948157 1
ion W   0.167809217785396   0.156061657767952   0.831802293338186 1
ion W   0.004147422006316   0.337208744371298  -0.000840186303096 1
ion W   0.168298229309500   0.506971495193051   0.163620542779633 1
ion W  -0.007028590234770   0.333612071092922   0.330791225402928 1
ion W   0.160051126891823   0.506636405147947   0.494392908553129 1
ion W  -0.005303081307632   0.338218542274201   0.680309667607607 1
ion W   0.177753222317151   0.522784156347962   0.842615858490722 1
ion W  -0.004156372303516   0.666576388037913   0.004615528752161 1
ion W   0.170089086827242   0.846253865624925   0.160691803964540 1
ion W   0.004689051729273   0.675057560670349   0.324665063596286 1
ion W   0.167948039555722   0.834227102514840   0.496007319067365 1
ion W   0.010470101525651   0.659712877810134   0.665109666881044 1
ion W   0.149306140107690   0.827918296266818   0.838587844791543 1
ion W   0.334542837939427  -0.007995835494878   0.001780923570867 1
ion W   0.524038457922056   0.172482382591430   0.165958466024201 1
ion W   0.334075563821665   0.000556192692783   0.342172850281299 1
ion W   0.502419587382504   0.185900549599749   0.504071164289822 1
ion W   0.325053706417615   0.002309316341939   0.657222799652788 1
ion W   0.492567272067557   0.163236099022732   0.837408150926191 1
ion W   0.338616922729177   0.332529070232409  -0.013180049754325 1
ion W   0.488812081620634   0.495497923533139   0.172587796318359 1
ion W   0.334011151774439   0.342574373558315   0.327472239808548 1
ion W   0.506490285575582   0.507984759826185   0.497844684795410 1
ion W   0.332468149868861   0.338157764132429   0.658674678078933 1
ion W   0.494513207180382   0.500566076835713   0.841151245793996 1
ion W   0.333832203480136   0.659569299685981   0.001317254249653 1
ion W   0.498303654781228   0.834075218413535   0.175022908105819 1
ion W   0.332680274395153   0.667018888764866   0.337799472196509 1
ion W   0.504539624391417   0.847556098721976   0.497819028424065 1
ion W   0.350390614468326   0.660423002013800   0.677345900766025 1
ion W   0.494656527648386   0.832044779698586   0.831125145301071 1
ion W   0.661187914864306  -0.001890148123046  -0.005776687010601 1
ion W   0.833169640328279   0.156219246656369   0.166235858918710 1
ion W   0.671329923389488   0.003503297288233   0.334888607576019 1
ion W   0.827661154026303   0.174690891287948   0.495846805035051 1
ion W   0.672592815130341   0.003091575458838   0.653669770927295 1
ion W   0.856201369117874   0.161035347093957   0.840219867616938 1
ion W   0.672058331714813   0.334739612393186  -0.008230768544524 1
ion W   0.834992889494745   0.498441920977293   0.163371378602223 1
ion W   0.678503266317903   0.334561695609524   0.329608116714786 1
ion W   0.822498952332136   0.497246945104890   0.514499244529902 1
ion W   0.661118985452910   0.336178554305719   0.669101385971922 1
ion W   0.840675016818582   0.507878299861596   0.848654012791600 1
ion W   0.660169426370459   0.672299195107023   0.010944432449110 1
ion W   0.842559061695832   0.844825692903888   0.173831094368604 1
ion W   0.680066193221087   0.663832282679552   0.338068432146915 1
ion W   0.828538527368044   0.840584717540441   0.500200200775733 1
ion W   0.670834465899484   0.670989036357098   0.672424485819468 1
ion W   0.831281127909867   0.829434060982448   0.840278137328401 1
ion O   0.337540488180695   0.147982125402910   0.182106472926914 1

# Forces in Lattice coordinates:
force W  -0.011749770941780  -0.249429513078509  -0.139297680614123 0
force W  -2.382111451757513   0.758827408402966  -0.179753504439272 1
force W  -0.241215994426243   0.500703488416338   0.652064343119338 1
force W  -0.159178047981051  -0.297000982810213   0.634783458885968 1
force W  -0.342888012230578  -0.347280894209882  -0.084290739990290 1
force W   0.239541719767328   0.670934866453637  -0.077828893518439 1
force W   0.079971244872140  -0.075623213766308   0.128924606049553 1
force W  -0.178503309603712  -0.352811488727595   0.170191603605518 1
force W   0.372077652669154   0.266121843485422   0.027982870851574 1
force W   0.262545019497062  -0.296796938230729   0.230109210105646 1
force W   0.490685964440954  -0.011691802840168  -0.561169494519443 1
force W  -0.669545671130428  -1.487924159822445  -0.601090488185184 1
force W   0.178890149705054   0.333259669237008   0.093736559136365 1
force W   0.030544880607877  -0.880769223569973   0.305006026031626 1
force W  -0.219360449308979  -0.393208325254919   0.481548354419046 1
force W  -0.052011750158235  -0.088765829816232   0.354105981606909 1
force W  -0.676123486245666   0.608146868757207  -0.053300474335240 1
force W   0.962475578901971   0.410934208791836  -0.401680897033396 1
force W   0.041958509899698  -0.008825409945974  -0.570507999764636 1
force W   1.814906019210243   0.201489783478645  -0.256503359245422 1
force W   0.132859159687039  -0.121008526600304   0.061031356579676 1
force W  -0.140779332342153  -0.664493311631320  -0.275864809687481 1
force W   0.440419709916769  -0.097333975507078   0.406946106703871 1
force W   0.472245741858544   0.054035287637294  -0.448954872818722 1
force W  -0.420547663162171   0.180080239062452   0.277332861420816 1
force W   0.854394766953229   0.298199375825000  -0.322236606368883 1
force W  -0.136917078123865  -0.011533934891770   0.416707753455160 1
force W  -0.303124799210161  -0.098245865294686   0.158240024327021 1
force W  -0.236461311202861  -0.025745265124414   0.296609844471325 1
force W   0.769764190997701  -0.136206622402562  -0.293323565299268 1
force W   0.181604133943794   0.964163594064056   0.489285253334790 1
force W   0.257783873857465  -0.112875321201988  -0.227595731839383 1
force W   0.180799954781669   0.235345679544856  -0.084470938771633 1
force W  -0.181348788781706  -0.664470263740632   0.251739525905107 1
force W  -0.758295628160701   0.643626715519362  -0.853563088923288 1
force W   0.233559672841260   0.267820890964717   0.112004400998488 1
force W   0.293937852013185  -0.010221535821856   0.094617860663588 1
force W   0.136066717248423   0.626102238035360  -0.197229208468093 1
force W  -0.281343538967700  -0.048136986941305  -0.146541128142115 1
force W   0.631334017484081  -0.256152369685494   0.386959453042220 1
force W  -0.251987417645438   0.171481298487207   0.919719319555777 1
force W  -1.362330366377576   0.307675044357685  -0.494441154976569 1
force W  -0.024023541984550  -0.053574680796442   0.299062937926475 1
force W  -0.110099470969198   0.159006102383519   0.355501542766026 1
force W  -0.607647147129037   0.264409876977558   0.063417247271422 1
force W   0.819775822397805   0.377770632148019  -0.399166067784119 1
force W   0.279965885564463  -0.050338388455964   0.357137070000880 1
force W  -0.484823351728527  -0.292913110496685  -0.772423199412630 1
force W   0.211295838412934  -0.191830259018813  -0.174842510155879 1
force W  -0.647603205297997  -0.717270191559879  -0.397500256613187 1
force W  -0.539887946330717   0.244171317251002  -0.193736166584536 1
force W   0.667756400898326  -0.404380649684539   0.188340550307591 1
force W   0.003549788088670  -0.048514683562024   0.003038692313115 1
force W  -0.033126532710815   0.269553611995284  -0.351484729716512 1
force O   0.409629681498857  -0.315591960976211   0.345031597953750 1

# Energy components:
   Eewald =    -3250.1266991784582387
       EH =      427.6592552093564450
     Eloc =     -858.0614144562305228
      Enl =     -795.9851622181508901
      Exc =    -1112.9797179392467115
 Exc_core =      579.0140161913782322
       KE =     1279.7785084356378320
-------------------------------------
     Etot =    -3730.7012139557123191
       TS =        0.2744352034107161
-------------------------------------
        F =    -3730.9756491591228951

IonicMinimize: Iter:   3  F: -3730.975649159122895  |grad|_K:  2.698e-02  alpha:  2.166e-01  linmin: -9.243e-01  t[s]:  21968.11

#--- Lowdin population analysis ---
# oxidation-state W -0.033 +0.058 -0.004 -0.003 +0.012 +0.006 +0.001 +0.010 -0.000 +0.006 +0.029 +0.004 -0.008 +0.005 +0.025 -0.006 +0.004 +0.025 +0.033 +0.067 +0.048 +0.001 +0.023 +0.001 +0.020 +0.012 +0.034 +0.006 +0.030 -0.003 +0.007 -0.000 +0.011 +0.011 +0.013 +0.006 -0.001 +0.032 -0.009 +0.009 +0.016 +0.005 +0.002 -0.003 -0.010 +0.014 +0.018 +0.010 +0.021 +0.009 +0.012 +0.013 +0.017 +0.025
# oxidation-state O -0.082


-------- Electronic minimization -----------
Will mix electronic density at each iteration.
	FillingsUpdate:  mu: +0.847144713  nElectrons: 762.000000
	FillingsUpdate:  mu: +0.850165248  nElectrons: 762.000000
SCF: Cycle:  0   F: -3688.903741057758452   dF: +3.931e+01   |Residual|: 1.770e+00   |deigs|: 7.554e-03  t[s]:  22606.95
	FillingsUpdate:  mu: +0.843671100  nElectrons: 762.000000
SCF: Cycle:  1   F: -3706.991442483019910   dF: -1.809e+01   |Residual|: 1.398e+00   |deigs|: 1.862e-02  t[s]:  23076.48
	FillingsUpdate:  mu: +0.849436509  nElectrons: 762.000000
SCF: Cycle:  2   F: -3730.334181451300537   dF: -2.334e+01   |Residual|: 3.102e-01   |deigs|: 3.203e-02  t[s]:  23545.75
	FillingsUpdate:  mu: +0.847951544  nElectrons: 762.000000
SCF: Cycle:  3   F: -3730.978018137619074   dF: -6.438e-01   |Residual|: 1.202e-01   |deigs|: 3.254e-03  t[s]:  24015.13
	FillingsUpdate:  mu: +0.847929922  nElectrons: 762.000000
SCF: Cycle:  4   F: -3731.068169020436926   dF: -9.015e-02   |Residual|: 4.873e-02   |deigs|: 1.493e-03  t[s]:  24446.56
	FillingsUpdate:  mu: +0.847705495  nElectrons: 762.000000
SCF: Cycle:  5   F: -3731.074204509435731   dF: -6.035e-03   |Residual|: 1.877e-02   |deigs|: 5.524e-04  t[s]:  24723.74
	FillingsUpdate:  mu: +0.847680973  nElectrons: 762.000000
SCF: Cycle:  6   F: -3731.074651749013810   dF: -4.472e-04   |Residual|: 7.265e-03   |deigs|: 1.474e-04  t[s]:  25001.18
	FillingsUpdate:  mu: +0.847673667  nElectrons: 762.000000
SCF: Cycle:  7   F: -3731.074823292328801   dF: -1.715e-04   |Residual|: 2.319e-03   |deigs|: 2.731e-05  t[s]:  25278.61
	FillingsUpdate:  mu: +0.847679988  nElectrons: 762.000000
SCF: Cycle:  8   F: -3731.074835922377588   dF: -1.263e-05   |Residual|: 8.504e-04   |deigs|: 2.213e-05  t[s]:  25555.84
	FillingsUpdate:  mu: +0.847685612  nElectrons: 762.000000
SCF: Cycle:  9   F: -3731.074837548896085   dF: -1.627e-06   |Residual|: 3.222e-04   |deigs|: 1.030e-05  t[s]:  25833.35
	FillingsUpdate:  mu: +0.847685603  nElectrons: 762.000000
SCF: Cycle: 10   F: -3731.074838014211764   dF: -4.653e-07   |Residual|: 1.458e-04   |deigs|: 2.416e-06  t[s]:  26110.59
	FillingsUpdate:  mu: +0.847684830  nElectrons: 762.000000
SCF: Cycle: 11   F: -3731.074838067412202   dF: -5.320e-08   |Residual|: 5.453e-05   |deigs|: 1.593e-06  t[s]:  26388.24
	FillingsUpdate:  mu: +0.847684828  nElectrons: 762.000000
SCF: Cycle: 12   F: -3731.074838088583874   dF: -2.117e-08   |Residual|: 3.745e-05   |deigs|: 3.880e-07  t[s]:  26665.82
	FillingsUpdate:  mu: +0.847684803  nElectrons: 762.000000
SCF: Cycle: 13   F: -3731.074838099955741   dF: -1.137e-08   |Residual|: 2.766e-05   |deigs|: 2.757e-07  t[s]:  26943.36
	FillingsUpdate:  mu: +0.847684841  nElectrons: 762.000000
SCF: Cycle: 14   F: -3731.074838104886567   dF: -4.931e-09   |Residual|: 1.025e-05   |deigs|: 1.994e-07  t[s]:  27221.05
	FillingsUpdate:  mu: +0.847684854  nElectrons: 762.000000
SCF: Cycle: 15   F: -3731.074838106744664   dF: -1.858e-09   |Residual|: 5.212e-06   |deigs|: 2.072e-07  t[s]:  27498.72
SCF: Converged (|Delta E|<1.000000e-08 for 2 iters).

Setting wave functions to eigenvectors of Hamiltonian

# Ionic positions in lattice coordinates:
ion W   0.000000000000000   0.000000000000000   0.000000000000000 0
ion W   0.148175184634045   0.165099617000943   0.161063832989440 1
ion W   0.005611649974195  -0.002478132187178   0.328952622359297 1
ion W   0.165446332036763   0.179077363076275   0.489190909684839 1
ion W   0.005212864328018   0.005422769731753   0.661232792641387 1
ion W   0.168266935452870   0.158769377357704   0.831359758221671 1
ion W   0.003879311719554   0.337105909281455  -0.000783878589181 1
ion W   0.167878984097795   0.505785620119227   0.164227646517049 1
ion W  -0.005781774615825   0.334740668207112   0.331162825265245 1
ion W   0.161206720265969   0.505688095109732   0.495539452547932 1
ion W  -0.003446101125931   0.338072957769166   0.678017680395888 1
ion W   0.176104864045594   0.517734233856222   0.840817331046371 1
ion W  -0.003382524137729   0.667540335158789   0.004289221900941 1
ion W   0.169978377178533   0.843196520720562   0.162111293317359 1
ion W   0.003768160829432   0.673605447271708   0.326686976305115 1
ion W   0.167832590479114   0.833946693730936   0.497322283266881 1
ion W   0.007919282355567   0.662100067962059   0.665250821004862 1
ion W   0.153253448846237   0.829271077189321   0.836976619527734 1
ion W   0.334399016909241  -0.007393629314238   0.000344690966257 1
ion W   0.526441266045713   0.172781348949622   0.165055656502006 1
ion W   0.334451148029716   0.000285414284042   0.342001418831017 1
ion W   0.502112014121638   0.183307635555754   0.503248600536619 1
ion W   0.326804077209211   0.001991442616291   0.658902974393182 1
ion W   0.494430531369258   0.163698028841454   0.835698639608270 1
ion W   0.337362630329763   0.333411722695176  -0.011987108125469 1
ion W   0.491812673945569   0.496661142209666   0.171381589167457 1
ion W   0.333787189167297   0.342243376045476   0.328572800913041 1
ion W   0.505425989076175   0.507442430510833   0.498613400481069 1
ion W   0.331807416619599   0.338038494891970   0.659961175002050 1
ion W   0.496530389534496   0.500618935593976   0.839908177510065 1
ion W   0.333698315870961   0.662071669679178   0.001887493008655 1
ion W   0.499360719418874   0.833714734761322   0.174046670171420 1
ion W   0.333356348227673   0.667771421199036   0.337400612243665 1
ion W   0.504057947204541   0.844879496070583   0.498880062809001 1
ion W   0.347282666491193   0.662659506540648   0.674738436364533 1
ion W   0.495501614841516   0.832814123180900   0.831458102412584 1
ion W   0.662598854051287  -0.001931781214419  -0.005400957561830 1
ion W   0.833816644324043   0.158482443412148   0.165689460139590 1
ion W   0.670632160846796   0.003163795943366   0.334805751746422 1
ion W   0.829750409650736   0.173788178184347   0.497182890424947 1
ion W   0.671682076673867   0.003531183889407   0.656947107517038 1
ion W   0.851125906025744   0.162257343016498   0.838240365034631 1
ion W   0.672121560758331   0.334725534934729  -0.007087053071366 1
ion W   0.834657764368353   0.499191981650494   0.164562398894272 1
ion W   0.676509345194582   0.335541778250947   0.330496584012157 1
ion W   0.825453463480337   0.498592247760123   0.512676715469623 1
ion W   0.662353312643739   0.336002457727849   0.669968969153118 1
ion W   0.839069459235177   0.506867213140737   0.845952338967352 1
ion W   0.661189978455874   0.671439791904886   0.009944396438095 1
ion W   0.840343216432071   0.842427815883988   0.172615211263314 1
ion W   0.677834607002756   0.664914100088522   0.337521020707143 1
ion W   0.830684123810965   0.839228857120181   0.500847971955867 1
ion W   0.670782158064764   0.670679993768321   0.672282070139384 1
ion W   0.831371144805249   0.830473070014563   0.838848178559066 1
ion O   0.339031033463257   0.147162462151543   0.182897729835897 1

# Forces in Lattice coordinates:
force W  -0.042980166777713  -0.210559902447808  -0.188158626307463 0
force W  -1.281579495522158   0.521753488089338  -0.046114745429175 1
force W  -0.213999366294026   0.335510790624797   0.471887512858006 1
force W  -0.095644219700899  -0.278401337408165   0.513311777112110 1
force W  -0.256101951227338  -0.258525822490518   0.016341904313433 1
force W   0.129090812074136   0.530671750033321  -0.054831400849769 1
force W  -0.032921749252494  -0.021382289989583   0.033272656451221 1
force W  -0.115263041582109  -0.252656318682266   0.132762642973023 1
force W   0.269870836781775   0.219267196591139   0.073570417927376 1
force W   0.237275236729529  -0.198148576520901   0.213419404750560 1
force W   0.354611110878846  -0.018088186446711  -0.463094742586540 1
force W  -0.510037092781862  -1.095616624324345  -0.469271870683601 1
force W   0.158748087567235   0.221622033399010   0.007397244242754 1
force W  -0.015963148993276  -0.638919660830019   0.259102037471583 1
force W  -0.173883735052607  -0.303490601978638   0.389777666138420 1
force W  -0.031782821456465  -0.052537089974503   0.263225403981799 1
force W  -0.497829367300164   0.452256681667692   0.014043440162681 1
force W   0.768375156721831   0.307539669895752  -0.308315355524899 1
force W   0.007591365113398   0.062982586821761  -0.380415695869848 1
force W   1.504678484888846   0.165180787545636  -0.222686057496933 1
force W   0.084966018498645  -0.116259639963579   0.041405511150478 1
force W  -0.084873128831508  -0.541401271248103  -0.188701846989462 1
force W   0.350680121468931  -0.053604616334455   0.330861795711236 1
force W   0.368037150091444   0.082140213873493  -0.320731340437089 1
force W  -0.282580053222765   0.169757142377523   0.235086077175814 1
force W   0.632322160169331   0.239664658051945  -0.247262116014391 1
force W  -0.079709555284190  -0.034278445654228   0.308265901024702 1
force W  -0.234254164300004  -0.107406797566267   0.141461928405364 1
force W  -0.121178124742770  -0.033957079788948   0.243779765056811 1
force W   0.519349429296670  -0.061790217823339  -0.247665978888743 1
force W   0.116841053402591   0.659790515554983   0.303527319838879 1
force W   0.200198568555634  -0.070863451423821  -0.201622980584834 1
force W   0.132744680565842   0.154687031176730  -0.083211506432440 1
force W  -0.120989429123773  -0.524748521383190   0.201033110133533 1
force W  -0.623845103739537   0.472915381569244  -0.611780972525798 1
force W   0.186033434000640   0.178985887707383   0.089724524845688 1
force W   0.260944445728912  -0.001034120070078   0.083676671438914 1
force W   0.089796398783038   0.483567468273692  -0.116708953869906 1
force W  -0.183725403723818  -0.045093477778699  -0.067930014022065 1
force W   0.441621795775509  -0.196418549661420   0.282994717779077 1
force W  -0.200357981583636   0.093574697392320   0.680748328597884 1
force W  -1.028981482377814   0.248100941458124  -0.382105889816873 1
force W  -0.004416146228113   0.000875635352532   0.228221360555553 1
force W  -0.073909303806542   0.146707800320546   0.257913511767083 1
force W  -0.432568370983047   0.199755829688854   0.119714741356416 1
force W   0.607872520462292   0.287020484018373  -0.362210501412414 1
force W   0.243051218675056  -0.023973281349931   0.198673472333919 1
force W  -0.344333480671356  -0.215651333671384  -0.598902671637012 1
force W   0.193317509227322  -0.158825789653891  -0.200831892100022 1
force W  -0.472339736495079  -0.529324082907958  -0.288290973863812 1
force W  -0.445306011305727   0.203078117682124  -0.123110226595293 1
force W   0.455759129007950  -0.298038202566323   0.128393287901331 1
force W  -0.023201811020953  -0.053094908603979  -0.030022125625469 1
force W   0.014993568443605   0.210942234187062  -0.281877279069349 1
force O  -0.304179345616210  -0.251533512647968   0.228614970658228 1

# Energy components:
   Eewald =    -3254.2983730102278059
       EH =      423.6248953633695464
     Eloc =     -849.6158010039313240
      Enl =     -795.9254229408746824
      Exc =    -1112.8389925291032796
 Exc_core =      579.0138866742313439
       KE =     1279.2334479804867442
-------------------------------------
     Etot =    -3730.8063594660488889
       TS =        0.2684786406957630
-------------------------------------
        F =    -3731.0748381067446644

IonicMinimize: Iter:   4  F: -3731.074838106744664  |grad|_K:  1.967e-02  alpha:  2.398e-01  linmin: -9.542e-01  t[s]:  27595.81

#--- Lowdin population analysis ---
# oxidation-state W -0.025 +0.053 -0.000 -0.004 +0.012 +0.005 +0.000 +0.008 -0.001 +0.007 +0.024 +0.006 -0.003 +0.002 +0.022 -0.006 +0.006 +0.021 +0.041 +0.069 +0.056 -0.000 +0.022 +0.002 +0.025 +0.010 +0.040 +0.007 +0.027 +0.001 +0.010 -0.002 +0.014 +0.008 +0.011 +0.005 -0.002 +0.034 -0.006 +0.009 +0.014 +0.006 -0.001 -0.001 -0.009 +0.015 +0.016 +0.012 +0.018 +0.008 +0.012 +0.012 +0.016 +0.024
# oxidation-state O -0.104


-------- Electronic minimization -----------
Will mix electronic density at each iteration.
	FillingsUpdate:  mu: +0.847684854  nElectrons: 762.000000
	FillingsUpdate:  mu: +0.849791378  nElectrons: 762.000000
SCF: Cycle:  0   F: -3685.817602605979573   dF: +4.254e+01   |Residual|: 1.753e+00   |deigs|: 7.098e-03  t[s]:  28233.38
	FillingsUpdate:  mu: +0.843094843  nElectrons: 762.000000
SCF: Cycle:  1   F: -3703.293547638507334   dF: -1.748e+01   |Residual|: 1.432e+00   |deigs|: 1.792e-02  t[s]:  28702.57
	FillingsUpdate:  mu: +0.849995116  nElectrons: 762.000000
SCF: Cycle:  2   F: -3730.467826447769767   dF: -2.717e+01   |Residual|: 3.141e-01   |deigs|: 3.352e-02  t[s]:  29171.04
	FillingsUpdate:  mu: +0.848437925  nElectrons: 762.000000
SCF: Cycle:  3   F: -3731.024924248292791   dF: -5.571e-01   |Residual|: 1.271e-01   |deigs|: 3.357e-03  t[s]:  29639.47
	FillingsUpdate:  mu: +0.848380093  nElectrons: 762.000000
SCF: Cycle:  4   F: -3731.137570119780321   dF: -1.126e-01   |Residual|: 5.011e-02   |deigs|: 1.609e-03  t[s]:  30070.34
	FillingsUpdate:  mu: +0.848132878  nElectrons: 762.000000
SCF: Cycle:  5   F: -3731.144095532716165   dF: -6.525e-03   |Residual|: 1.867e-02   |deigs|: 5.596e-04  t[s]:  30347.18
	FillingsUpdate:  mu: +0.848109992  nElectrons: 762.000000
SCF: Cycle:  6   F: -3731.144685511890657   dF: -5.900e-04   |Residual|: 7.890e-03   |deigs|: 1.329e-04  t[s]:  30624.29
	FillingsUpdate:  mu: +0.848098353  nElectrons: 762.000000
SCF: Cycle:  7   F: -3731.144881476968294   dF: -1.960e-04   |Residual|: 2.042e-03   |deigs|: 3.185e-05  t[s]:  30901.68
	FillingsUpdate:  mu: +0.848105238  nElectrons: 762.000000
SCF: Cycle:  8   F: -3731.144889088297532   dF: -7.611e-06   |Residual|: 8.904e-04   |deigs|: 2.187e-05  t[s]:  31178.57
	FillingsUpdate:  mu: +0.848111215  nElectrons: 762.000000
SCF: Cycle:  9   F: -3731.144890984271115   dF: -1.896e-06   |Residual|: 3.183e-04   |deigs|: 1.104e-05  t[s]:  31455.79
	FillingsUpdate:  mu: +0.848111027  nElectrons: 762.000000
SCF: Cycle: 10   F: -3731.144891408502644   dF: -4.242e-07   |Residual|: 1.471e-04   |deigs|: 2.515e-06  t[s]:  31732.58
	FillingsUpdate:  mu: +0.848110301  nElectrons: 762.000000
SCF: Cycle: 11   F: -3731.144891466838999   dF: -5.834e-08   |Residual|: 5.738e-05   |deigs|: 1.556e-06  t[s]:  32009.94
	FillingsUpdate:  mu: +0.848110288  nElectrons: 762.000000
SCF: Cycle: 12   F: -3731.144891489681413   dF: -2.284e-08   |Residual|: 3.908e-05   |deigs|: 3.858e-07  t[s]:  32286.87
	FillingsUpdate:  mu: +0.848110250  nElectrons: 762.000000
SCF: Cycle: 13   F: -3731.144891501362508   dF: -1.168e-08   |Residual|: 2.811e-05   |deigs|: 2.850e-07  t[s]:  32564.30
	FillingsUpdate:  mu: +0.848110296  nElectrons: 762.000000
SCF: Cycle: 14   F: -3731.144891506462955   dF: -5.100e-09   |Residual|: 8.293e-06   |deigs|: 2.012e-07  t[s]:  32841.53
	FillingsUpdate:  mu: +0.848110298  nElectrons: 762.000000
SCF: Cycle: 15   F: -3731.144891508577984   dF: -2.115e-09   |Residual|: 6.470e-06   |deigs|: 2.143e-07  t[s]:  33118.51
SCF: Converged (|Delta E|<1.000000e-08 for 2 iters).

Setting wave functions to eigenvectors of Hamiltonian

# Ionic positions in lattice coordinates:
ion W   0.000000000000000   0.000000000000000   0.000000000000000 0
ion W   0.145982254350003   0.167331603443812   0.161464868884399 1
ion W   0.004160600050051  -0.001368849019122   0.330799385178267 1
ion W   0.165115876774247   0.177229135475213   0.492153502627830 1
ion W   0.003936071556234   0.004201439308007   0.662047775756599 1
ion W   0.168322806317116   0.161656114546279   0.830998343796603 1
ion W   0.002857918642070   0.337285881460793  -0.001230442083100 1
ion W   0.167596687843392   0.504702598525488   0.164880710115298 1
ion W  -0.004608916671300   0.335998819947501   0.331959311145318 1
ion W   0.162691249511451   0.504959845266431   0.496998446443357 1
ion W  -0.001754980843097   0.337861427208356   0.675409111647281 1
ion W   0.174232892912200   0.512857070570410   0.838777109124289 1
ion W  -0.002415274112543   0.668273312567587   0.003504372076572 1
ion W   0.169545255408670   0.840352357735112   0.163737748535042 1
ion W   0.002790353922517   0.672093062239079   0.328900161586268 1
ion W   0.167780403695130   0.833795836269261   0.498590749153532 1
ion W   0.005500236665287   0.664384975139028   0.665836793604521 1
ion W   0.157506288794992   0.830632199143464   0.835345485339144 1
ion W   0.334133393447214  -0.006288821562615  -0.000773041105919 1
ion W   0.529360391369476   0.173077603675244   0.164019502293583 1
ion W   0.334720718797680  -0.000270372394510   0.341886043293979 1
ion W   0.501964722554146   0.180373910357777   0.502569112292300 1
ion W   0.328695556112909   0.001850703359195   0.660763904542691 1
ion W   0.496373640157230   0.164493974978656   0.834172201179834 1
ion W   0.336416866872327   0.334574274691337  -0.010602989419582 1
ion W   0.494710829208455   0.497951401553724   0.170146485553429 1
ion W   0.333771487936320   0.341734054827048   0.329698495275683 1
ion W   0.504305550470923   0.506624525930194   0.499551144923284 1
ion W   0.331644005925014   0.337789212418080   0.661391176481733 1
ion W   0.498137419285664   0.500940057563347   0.838454716604757 1
ion W   0.333548693834700   0.664154323389883   0.002102428629261 1
ion W   0.500447699393952   0.833491335911466   0.172820019450454 1
ion W   0.333993803838856   0.668329384961680   0.336837864687798 1
ion W   0.503698262505993   0.842036864610913   0.500014413886795 1
[...]
	FillingsUpdate:  mu: +0.847720529  nElectrons: 762.000000
SCF: Cycle:  4   F: -3731.228423432254658   dF: -7.167e-08   |Residual|: 1.052e-04   |deigs|: 1.028e-06  t[s]: 120136.60
	FillingsUpdate:  mu: +0.847720491  nElectrons: 762.000000
SCF: Cycle:  5   F: -3731.228423458173893   dF: -2.592e-08   |Residual|: 2.235e-05   |deigs|: 3.823e-07  t[s]: 120412.72
	FillingsUpdate:  mu: +0.847720481  nElectrons: 762.000000
SCF: Cycle:  6   F: -3731.228423459446731   dF: -1.273e-09   |Residual|: 1.203e-05   |deigs|: 1.215e-07  t[s]: 120689.06
	FillingsUpdate:  mu: +0.847720486  nElectrons: 762.000000
SCF: Cycle:  7   F: -3731.228423459745954   dF: -2.992e-10   |Residual|: 3.222e-06   |deigs|: 5.577e-08  t[s]: 120964.62
SCF: Converged (|Delta E|<1.000000e-08 for 2 iters).

Setting wave functions to eigenvectors of Hamiltonian

# Ionic positions in lattice coordinates:
ion W   0.000000000000000   0.000000000000000   0.000000000000000 0
ion W   0.148343802491062   0.175777184183057   0.169196015461509 1
ion W   0.001089690124594   0.001476999598313   0.337175544021000 1
ion W   0.167033473699754   0.170117952371436   0.503068821545369 1
ion W   0.001131958086600   0.002571384115824   0.669252274123783 1
ion W   0.166870849373291   0.169962325267665   0.835949060892013 1
ion W  -0.001464127484451   0.338605047108038   0.000799499048533 1
ion W   0.167991358133085   0.502689915282396   0.169642367315214 1
ion W  -0.001302439576147   0.338778855064384   0.338258941055396 1
ion W   0.168085166747028   0.502392945204043   0.503328562072338 1
ion W   0.001284116382233   0.336164134681266   0.669572239274587 1
ion W   0.168034246077703   0.502287573518832   0.835907233209306 1
ion W   0.001012138013833   0.668987343875755   0.002743639675164 1
ion W   0.165982403345885   0.831812634438694   0.169414718671510 1
ion W   0.001103068531095   0.669305334443917   0.336410327720197 1
ion W   0.166225550238670   0.833035411391056   0.505551467914932 1
ion W   0.000367441547923   0.668025204050243   0.669509264022735 1
ion W   0.166148946739414   0.832718789142776   0.833266723173013 1
ion W   0.334480090472767  -0.004637685164567  -0.015480992812426 1
ion W   0.521019230341470   0.176322766970367   0.169683766335987 1
ion W   0.334765603466823  -0.004247409669475   0.354196324775243 1
ion W   0.502564076475351   0.170166366268264   0.503125945766925 1
ion W   0.334758367351612   0.002288544106644   0.669496614561624 1
ion W   0.502496275113091   0.170108812927130   0.836082256896248 1
ion W   0.334744946936074   0.339964671173215   0.001025647376519 1
ion W   0.501596443582860   0.502792044178817   0.169701172865011 1
ion W   0.334778771320454   0.340038201511825   0.338298516834045 1
ion W   0.501510463598756   0.502422870938722   0.503367448546928 1
ion W   0.334777626543223   0.335407520651049   0.669663897521797 1
ion W   0.501475974855918   0.502338032809299   0.835962027982642 1
ion W   0.334744301583230   0.668870590217057   0.002899223362936 1
ion W   0.503370106950102   0.831849639640103   0.169621149515268 1
ion W   0.334755441166026   0.669006474546083   0.336354790899482 1
ion W   0.503282383502458   0.833062568568935   0.505600509343475 1
ion W   0.334753501840164   0.667486291760940   0.669577837488470 1
ion W   0.503286705598022   0.832901773013541   0.833504043021395 1
ion W   0.668181445508670   0.001417287450646   0.001672887044536 1
ion W   0.834855593376468   0.169203679240556   0.169404585898726 1
ion W   0.668452269075117   0.001547900701456   0.337464685414084 1
ion W   0.834826199612374   0.169067955965849   0.503214783064140 1
ion W   0.668258489109985   0.002628148139292   0.669534033404262 1
ion W   0.834621273727092   0.168997701160180   0.835750605690253 1
ion W   0.671013122072747   0.338841006522548   0.000906993970017 1
ion W   0.834831212457879   0.504205636619844   0.169646287080327 1
ion W   0.671114280577781   0.338893698581889   0.338386610819332 1
ion W   0.834838199194631   0.503673620526476   0.504066766020198 1
ion W   0.668277693063305   0.336202830399295   0.669608686550496 1
ion W   0.834750224685636   0.503585624484651   0.835102391759782 1
ion W   0.668408753508793   0.669191565401832   0.002822804508855 1
ion W   0.834651810333475   0.835994053051941   0.169536032909609 1
ion W   0.668462648520731   0.669317989969299   0.336460911423179 1
ion W   0.834750024764645   0.835475330861256   0.503123574784923 1
ion W   0.669064512703737   0.668039968687740   0.669531808545813 1
ion W   0.834420794916067   0.835140071459104   0.835672074464351 1
ion O   0.334955963616497   0.087937346258762   0.169154917164793 1

# Forces in Lattice coordinates:
force W   0.056296422147522   0.073252103079479   0.083129273315959 0
force W   0.003581488181464  -0.004718195526270  -0.001746982466451 1
force W  -0.001177843896040  -0.001118492510256  -0.002006781278894 1
force W  -0.001566518886786  -0.002667714142072  -0.001097487126731 1
force W  -0.001023137205919  -0.001845666639536  -0.001425585772504 1
force W  -0.001768948384544  -0.002430486191657  -0.001343572333089 1
force W  -0.001438500411905  -0.001683491013346   0.000114885407739 1
force W  -0.000756241042905  -0.001346510570123  -0.000732362617702 1
force W  -0.001162657555220  -0.001943436909623  -0.001368753718266 1
force W  -0.001382720437811  -0.001946170713229  -0.000171064838805 1
force W  -0.001182958379473  -0.001995510750145  -0.000537611880911 1
force W  -0.000184619884489  -0.000588095629543   0.000113931382631 1
force W  -0.001112834801479  -0.001763133484431  -0.000835903881238 1
force W  -0.000807009119309  -0.000857064726617  -0.001218137854465 1
force W  -0.001219715199142  -0.001958134854107  -0.000884006319533 1
force W  -0.001627083104876  -0.002671455274475  -0.000134610689966 1
force W  -0.000316770438677  -0.002418507732620  -0.000141720675318 1
force W  -0.001780851947487  -0.002440381628458  -0.000176253484984 1
force W  -0.001610499261726  -0.001405789205610  -0.002187398443708 1
force W   0.001459096342975   0.002029710087120  -0.001588319419704 1
force W  -0.001739248015360  -0.003520215021350   0.005500760029513 1
force W  -0.001013242042144  -0.000939891524258   0.000908881749522 1
force W  -0.001338103399598  -0.002242918924376  -0.001821840831914 1
force W  -0.001157388277038  -0.001615737717133  -0.001018837861739 1
force W  -0.001731006513141  -0.001356207955468  -0.001785055620523 1
force W  -0.002286214324011  -0.001536933697846   0.000246773370739 1
force W  -0.001508348288508  -0.003845229550983  -0.001745366168910 1
force W  -0.000042518693906  -0.001215563617147   0.000412803525681 1
force W  -0.001062185105453  -0.001844119994480  -0.001055013870913 1
force W  -0.000818828536854  -0.000723567017737   0.000382541952024 1
force W  -0.001264443281358  -0.002564825634084  -0.000113436777083 1
force W  -0.001038190218442  -0.002051208559249  -0.000437917778345 1
force W  -0.000992385087267  -0.002487478921904  -0.000271344590406 1
force W   0.000589635571483  -0.002226395137999   0.001020219902589 1
force W   0.000857119906686  -0.002075071568648   0.000429738334158 1
force W  -0.001025408544729  -0.001736708747919  -0.000373331522388 1
force W  -0.001903603694806  -0.000119535743819  -0.000615583699251 1
force W  -0.002032171612507  -0.000608645112906  -0.000900567220407 1
force W  -0.001874981240911  -0.000337598274970  -0.001133745778864 1
force W  -0.001788022709385  -0.001105413686237  -0.000818118101510 1
force W  -0.000758067055818  -0.000720027869251  -0.001227321969478 1
force W  -0.000811472510421  -0.001582952158423   0.000118666681614 1
force W  -0.001810764659044  -0.001000402021184  -0.000329184307080 1
force W  -0.001352080880651  -0.001614677913778  -0.000303994977328 1
force W  -0.002296711505848  -0.001140007048242  -0.000709349106364 1
force W  -0.001366229927832  -0.002017123507852   0.000173556181194 1
force W  -0.000855692518459  -0.001620494467300   0.000162742315155 1
force W  -0.000735191276736  -0.000840986802938   0.000897288151540 1
force W  -0.001504108159052  -0.000692504388081   0.000484770544835 1
force W  -0.001409479125328   0.000532089546462   0.000054727062534 1
force W  -0.000185352564559  -0.000956267410641  -0.000217964236940 1
force W  -0.001492470995354  -0.000792303646818  -0.000535469165418 1
force W  -0.000234342155164  -0.001429826131066   0.000607249382384 1
force W  -0.000517364661850  -0.001627371247634  -0.000209537547952 1
force O  -0.012097092317510  -0.000982521538506   0.008149855156221 1

# Energy components:
   Eewald =    -3260.0837238306221479
       EH =      418.0774458205899009
     Eloc =     -837.9839246650312816
      Enl =     -795.8526345332633127
      Exc =    -1112.6575643666542419
 Exc_core =      579.0136271874779368
       KE =     1278.5132105409302312
-------------------------------------
     Etot =    -3730.9735638465735974
       TS =        0.2548596131723750
-------------------------------------
        F =    -3731.2284234597459545

IonicMinimize: Iter:  24  F: -3731.228423459745954  |grad|_K:  1.063e-04  alpha:  1.000e+00  linmin: -2.996e-02  t[s]: 121061.49

#--- Lowdin population analysis ---
# oxidation-state W +0.003 +0.070 +0.003 +0.003 +0.009 +0.003 -0.007 +0.015 -0.007 +0.012 +0.011 +0.012 +0.013 +0.006 +0.012 -0.007 +0.013 -0.007 +0.072 +0.070 +0.071 +0.003 +0.028 +0.003 +0.009 +0.016 +0.008 +0.012 +0.011 +0.012 +0.016 +0.006 +0.016 -0.007 +0.007 -0.007 +0.003 +0.030 +0.003 +0.008 +0.008 +0.008 -0.007 +0.007 -0.007 +0.013 +0.011 +0.013 +0.012 +0.010 +0.012 +0.011 +0.013 +0.010
# oxidation-state O -0.134


-------- Electronic minimization -----------
Will mix electronic density at each iteration.
	FillingsUpdate:  mu: +0.847720486  nElectrons: 762.000000
	FillingsUpdate:  mu: +0.847720011  nElectrons: 762.000000
SCF: Cycle:  0   F: -3731.228421977039034   dF: +1.502e-06   |Residual|: 8.897e-04   |deigs|: 9.802e-08  t[s]: 121521.91
	FillingsUpdate:  mu: +0.847718757  nElectrons: 762.000000
SCF: Cycle:  1   F: -3731.228427393006314   dF: -5.416e-06   |Residual|: 6.236e-04   |deigs|: 1.317e-05  t[s]: 121798.12
	FillingsUpdate:  mu: +0.847719574  nElectrons: 762.000000
SCF: Cycle:  2   F: -3731.228429770110779   dF: -2.377e-06   |Residual|: 1.671e-04   |deigs|: 6.285e-06  t[s]: 122074.27
	FillingsUpdate:  mu: +0.847719415  nElectrons: 762.000000
SCF: Cycle:  3   F: -3731.228429901205345   dF: -1.311e-07   |Residual|: 6.151e-05   |deigs|: 1.156e-06  t[s]: 122350.16
	FillingsUpdate:  mu: +0.847719501  nElectrons: 762.000000
SCF: Cycle:  4   F: -3731.228429912969204   dF: -1.176e-08   |Residual|: 3.147e-05   |deigs|: 4.049e-07  t[s]: 122625.81
	FillingsUpdate:  mu: +0.847719488  nElectrons: 762.000000
SCF: Cycle:  5   F: -3731.228429915127890   dF: -2.159e-09   |Residual|: 8.567e-06   |deigs|: 1.509e-07  t[s]: 122901.72
	FillingsUpdate:  mu: +0.847719488  nElectrons: 762.000000
SCF: Cycle:  6   F: -3731.228429915194283   dF: -6.639e-11   |Residual|: 3.579e-06   |deigs|: 5.659e-08  t[s]: 123165.25
SCF: Converged (|Delta E|<1.000000e-08 for 2 iters).

Setting wave functions to eigenvectors of Hamiltonian

# Ionic positions in lattice coordinates:
ion W   0.000000000000000   0.000000000000000   0.000000000000000 0
ion W   0.148368160865545   0.175728993373378   0.169199301508359 1
ion W   0.001052974800860   0.001450206318471   0.337148538447408 1
ion W   0.167008921229717   0.170056481830972   0.503054354151253 1
ion W   0.001120977938299   0.002514496658424   0.669231162797049 1
ion W   0.166845317046191   0.169910294915939   0.835954541430527 1
ion W  -0.001484397159038   0.338572902728784   0.000803060563029 1
ion W   0.167964248361715   0.502681906634491   0.169634282092672 1
ion W  -0.001353985359682   0.338734383264395   0.338255326682396 1
ion W   0.168040600887640   0.502341778850984   0.503343706993760 1
ion W   0.001268698469879   0.336109000217417   0.669588038649658 1
ion W   0.168006293288733   0.502255577001320   0.835913380476903 1
ion W   0.000985722724532   0.668966133411546   0.002733072938794 1
ion W   0.165946929709668   0.831754146303782   0.169390118711381 1
ion W   0.001060995830874   0.669256498737253   0.336397565791716 1
ion W   0.166185652685083   0.832954857081386   0.505573578168455 1
ion W   0.000382451102183   0.667988190037503   0.669499618688780 1
ion W   0.166104729835866   0.832655134540820   0.833241452482717 1
ion W   0.334444402103783  -0.004724590729680  -0.015540484837692 1
ion W   0.520953890154263   0.176353317828599   0.169696742414999 1
ion W   0.334733635480198  -0.004327742217362   0.354270259734034 1
ion W   0.502514552629998   0.170130928995618   0.503129919624246 1
ion W   0.334730542606737   0.002215873879113   0.669461305406831 1
ion W   0.502460998362314   0.170069618538417   0.836088363405243 1
ion W   0.334708130602745   0.339939519342636   0.001025411942000 1
ion W   0.501559716149279   0.502788016719491   0.169713690364271 1
ion W   0.334734787738741   0.339983460311506   0.338296551471644 1
ion W   0.501515032493187   0.502386549675043   0.503381629013662 1
ion W   0.334747985658493   0.335349738837317   0.669658506322533 1
ion W   0.501489786624284   0.502300359643825   0.835968865778562 1
ion W   0.334721575717291   0.668822134487819   0.002916411053924 1
ion W   0.503345973603362   0.831790108453210   0.169616899891192 1
ion W   0.334737619526516   0.668937331631469   0.336348601830872 1
ion W   0.503285331770119   0.833003222198750   0.505626449563796 1
ion W   0.334762199979937   0.667436425680991   0.669568806436942 1
ion W   0.503279516217402   0.832859187270848   0.833474559062030 1
ion W   0.668122118701704   0.001431452924099   0.001679855275690 1
ion W   0.834800209126865   0.169189947298110   0.169409553809182 1
ion W   0.668414847131318   0.001550910648074   0.337439903073321 1
ion W   0.834792196840190   0.169031302478120   0.503187230434212 1
ion W   0.668226711759104   0.002597545812428   0.669524774053256 1
ion W   0.834595175875488   0.168974671564276   0.835779500409350 1
ion W   0.670974376299689   0.338819883069471   0.000897640680888 1
ion W   0.834797487168199   0.504180262743638   0.169649953508369 1
ion W   0.671083720232901   0.338862649940667   0.338380230901200 1
ion W   0.834812922609802   0.503603469588129   0.504053872671285 1
ion W   0.668252130099117   0.336158649986465   0.669636237162450 1
ion W   0.834723836951256   0.503538399050199   0.835136908845856 1
ion W   0.668379991318504   0.669181826644476   0.002819315857392 1
ion W   0.834616649418841   0.836009417670724   0.169535440122671 1
ion W   0.668461344922804   0.669279674544053   0.336451960982799 1
ion W   0.834729468227304   0.835458613633402   0.503118409955874 1
ion W   0.669041672131770   0.668011410712339   0.669538297692450 1
ion W   0.834399614326557   0.835140073016203   0.835664093837805 1
ion O   0.334808417165851   0.087771642800208   0.169186522994149 1

# Forces in Lattice coordinates:
force W   0.054664158906102   0.071847633476405   0.083010706718194 0
force W  -0.003488796300222  -0.000460305957891  -0.001787265406187 1
force W  -0.000252050383045  -0.001745181971399  -0.001277470798231 1
force W  -0.002441419533287  -0.001761535584706  -0.000238891775778 1
force W  -0.002240564044714  -0.000260734543685  -0.000597520054059 1
force W  -0.001359427681011  -0.002020897380883  -0.002235809542676 1
force W  -0.001426605803947  -0.001764109346455   0.000843548793083 1
force W  -0.001221460845550  -0.003613680583060   0.000039409364576 1
force W   0.000787060563651  -0.001884981546892  -0.001791050865838 1
force W  -0.000094313028837  -0.002288427306351  -0.001233829864287 1
force W  -0.002060037851692  -0.001747230583426  -0.001269419150845 1
force W   0.000636186931430  -0.001167274169929  -0.000363882399364 1
force W  -0.001887787991395  -0.001655623673284  -0.000372692748841 1
force W  -0.000464629711903  -0.000201662349211   0.000202010878694 1
force W  -0.000587874866647  -0.001007293309559  -0.000517289839131 1
force W  -0.000789382351885  -0.001625721276116  -0.002665116579062 1
force W  -0.004011403202444  -0.003754606393114   0.000380933434430 1
force W  -0.000132484012757  -0.001449940960996   0.000852446634650 1
force W  -0.000972938619819   0.001625617134114   0.001963962327887 1
force W  -0.008486109914905  -0.004204241198759  -0.002290700285985 1
force W  -0.001337780157514  -0.003066171890201   0.002158351829891 1
force W   0.000300645555774  -0.001057971343891   0.000852171004133 1
force W  -0.001258855779458  -0.001124657351070   0.000712707418663 1
force W  -0.001636691313832  -0.001806348104739  -0.001402017514474 1
force W  -0.001208858236540  -0.002028813777738  -0.001604709716898 1
force W  -0.001663791358285  -0.003023559020054  -0.000249510786622 1
force W  -0.001093569823365  -0.002671651350939  -0.001559727279465 1
force W  -0.001440023385080  -0.001966376812660  -0.000208203437593 1
force W  -0.000849734369355  -0.000912575996144  -0.000497822777396 1
force W  -0.003199893979176  -0.000473500700802   0.000166311857869 1
force W  -0.001062527643731  -0.002036192350634  -0.002058391818918 1
force W  -0.001368029402782   0.000090934638801  -0.000037482857497 1
force W  -0.001431815316591  -0.001154465708609   0.000860496718384 1
force W   0.000033334237675  -0.001610691152432  -0.001384811710189 1
force W  -0.000365246080826  -0.002934080264325   0.001224808482935 1
force W  -0.001851601328301  -0.001398940990820   0.001300094379474 1
force W  -0.000804789521203  -0.002016845285442  -0.000953890720885 1
force W  -0.000666933641843  -0.000686129094612  -0.001793820678592 1
force W  -0.002555105614331  -0.002215317589846  -0.000006023598663 1
force W  -0.001583088670907  -0.001175423033058   0.001303106702484 1
force W   0.000002139535768  -0.000108903175365  -0.000923093250922 1
force W  -0.000657321380318  -0.002406142294272  -0.001741694829278 1
force W  -0.001867964817185  -0.001097882242616   0.001127454586085 1
force W  -0.001022451725437  -0.001524104299289  -0.001051237220410 1
force W  -0.003205545937269  -0.000839199959920  -0.000151072613919 1
force W  -0.001183975886523  -0.000088881203012   0.002161199236581 1
force W  -0.000408314941447  -0.001619604210444  -0.001429917880827 1
force W   0.000006104490014   0.000606441775380  -0.001467254409156 1
force W  -0.000713228500325  -0.000939361965533   0.000746389111229 1
force W  -0.001197730680083  -0.001113326506011  -0.000682497465031 1
force W  -0.001069527105515  -0.000156718811919   0.000456744512551 1
force W  -0.001768739769643  -0.001961199014976  -0.000816864451075 1
force W   0.001919137754571  -0.002398385267100   0.000221285959209 1
force W  -0.000637186813821  -0.002724852400198   0.000415344220374 1
force O   0.003382351588371  -0.002347454703706   0.005490342641819 1

# Energy components:
   Eewald =    -3260.0858639746402332
       EH =      418.0759570261652129
     Eloc =     -837.9802297044117267
      Enl =     -795.8527588816591560
      Exc =    -1112.6575387923694507
 Exc_core =      579.0136271274541286
       KE =     1278.5132405761769405
-------------------------------------
     Etot =    -3730.9735666232845688
       TS =        0.2548632919095652
-------------------------------------
        F =    -3731.2284299151942832

IonicMinimize: Iter:  25  F: -3731.228429915194283  |grad|_K:  9.966e-05  alpha:  1.000e+00  linmin: -6.167e-02  t[s]: 123262.03
IonicMinimize: Converged (|grad|_K<1.000000e-04).

#--- Lowdin population analysis ---
# oxidation-state W +0.003 +0.070 +0.003 +0.003 +0.009 +0.003 -0.007 +0.015 -0.007 +0.012 +0.011 +0.012 +0.013 +0.006 +0.012 -0.007 +0.013 -0.007 +0.072 +0.070 +0.071 +0.003 +0.028 +0.003 +0.009 +0.016 +0.008 +0.012 +0.011 +0.012 +0.016 +0.006 +0.016 -0.007 +0.007 -0.007 +0.003 +0.030 +0.003 +0.008 +0.008 +0.008 -0.007 +0.007 -0.007 +0.013 +0.011 +0.013 +0.012 +0.010 +0.012 +0.011 +0.013 +0.010
# oxidation-state O -0.134


Dumping 'W_oct.Ecomponents' ... done
End date and time: Wed Jul 17 18:47:40 2024  (Duration: 1-10:15:09.95)
Done!
