
*************** JDFTx 1.7.0 (git hash e155c65d) ***************

Start date and time: Tue Jul 16 08:30:31 2024
Executable jdftx with command-line: -i W_tet.in
Running on hosts (process indices):  node3401 (0-15)
Divided in process groups (process indices):  0 (0)  1 (1)  2 (2)  3 (3)  4 (4)  5 (5)  6 (6)  7 (7)  8 (8)  9 (9)  10 (10)  11 (11)  12 (12)  13 (13)  14 (14)  15 (15)
Resource initialization completed at t[s]:      0.00
Run totals: 16 processes, 16 threads, 0 GPUs


Input parsed successfully to the following command list (including defaults):

basis kpoint-dependent
coords-type Lattice
core-overlap-check vector
coulomb-interaction Periodic
davidson-band-ratio 1.1
dump End Ecomponents
dump-name $INPUT.$VAR
elec-cutoff 20 100
elec-eigen-algo Davidson
elec-ex-corr gga-PBEsol
elec-smearing Fermi 0.01
electronic-minimize  \
	dirUpdateScheme      FletcherReeves \
	linminMethod         DirUpdateRecommended \
	nIterations          100 \
	history              15 \
	knormThreshold       0 \
	maxThreshold         no \
	energyDiffThreshold  1e-08 \
	nEnergyDiff          2 \
	alphaTstart          1 \
	alphaTmin            1e-10 \
	updateTestStepSize   yes \
	alphaTreduceFactor   0.1 \
	alphaTincreaseFactor 3 \
	nAlphaAdjustMax      3 \
	wolfeEnergy          0.0001 \
	wolfeGradient        0.9 \
	fdTest               no
electronic-scf  \
	nIterations	50 \
	energyDiffThreshold	1e-08 \
	residualThreshold	1e-07 \
	mixFraction	0.5 \
	qMetric	0.8 \
	history	10 \
	nEigSteps	2 \
	eigDiffThreshold	1e-08 \
	mixedVariable	Density \
	qKerker	0.8 \
	qKappa	-1 \
	verbose	no \
	mixFractionMag	1.5
exchange-regularization WignerSeitzTruncated
fluid None
fluid-ex-corr lda-TF lda-PZ
fluid-gummel-loop 10 1.000000e-05
fluid-minimize  \
	dirUpdateScheme      PolakRibiere \
	linminMethod         DirUpdateRecommended \
	nIterations          100 \
	history              15 \
	knormThreshold       0 \
	maxThreshold         no \
	energyDiffThreshold  0 \
	nEnergyDiff          2 \
	alphaTstart          1 \
	alphaTmin            1e-10 \
	updateTestStepSize   yes \
	alphaTreduceFactor   0.1 \
	alphaTincreaseFactor 3 \
	nAlphaAdjustMax      3 \
	wolfeEnergy          0.0001 \
	wolfeGradient        0.9 \
	fdTest               no
fluid-solvent H2O 55.338 ScalarEOS \
	epsBulk 78.4 \
	pMol 0.92466 \
	epsInf 1.77 \
	Pvap 1.06736e-10 \
	sigmaBulk 4.62e-05 \
	Rvdw 2.61727 \
	Res 1.42 \
	tauNuc 343133 \
	poleEl 15 7 1
forces-output-coords Positions
ion W  -0.000000000000000   0.000000000000000  -0.000000000000000 0
ion W   0.164370000000000   0.157120000000000   0.162090000000000 1
ion W   0.008660000000000  -0.007740000000000   0.321750000000000 1
ion W   0.167320000000000   0.182380000000000   0.481930000000000 1
ion W   0.009080000000000   0.009290000000000   0.662200000000000 1
ion W   0.165650000000000   0.151240000000000   0.832430000000000 1
ion W   0.003080000000000   0.337850000000000  -0.002100000000000 1
ion W   0.169760000000000   0.509640000000000   0.162410000000000 1
ion W  -0.009840000000000   0.331660000000000   0.330800000000000 1
ion W   0.158300000000000   0.509050000000000   0.492950000000000 1
ion W  -0.009050000000000   0.338240000000000   0.684310000000000 1
ion W   0.182510000000000   0.533920000000000   0.846790000000000 1
ion W  -0.005390000000000   0.663890000000000   0.003480000000000 1
ion W   0.169620000000000   0.853060000000000   0.158640000000000 1
ion W   0.006240000000000   0.677960000000000   0.321230000000000 1
ion W   0.168430000000000   0.835000000000000   0.493310000000000 1
ion W   0.015590000000000   0.655140000000000   0.665870000000000 1
ion W   0.142390000000000   0.824830000000000   0.841500000000000 1
ion W   0.334240000000000  -0.007970000000000   0.005870000000000 1
ion W   0.510110000000000   0.170760000000000   0.167980000000000 1
ion W   0.333030000000000   0.000970000000000   0.342100000000000 1
ion W   0.503610000000000   0.190640000000000   0.506210000000000 1
ion W   0.321870000000000   0.003110000000000   0.654310000000000 1
ion W   0.489140000000000   0.163080000000000   0.840870000000000 1
ion W   0.342140000000000   0.331600000000000  -0.015350000000000 1
ion W   0.482300000000000   0.493340000000000   0.174970000000000 1
ion W   0.335320000000000   0.342920000000000   0.324560000000000 1
ion W   0.508760000000000   0.508520000000000   0.496830000000000 1
ion W   0.334550000000000   0.338300000000000   0.656580000000000 1
ion W   0.488430000000000   0.501820000000000   0.843180000000000 1
ion W   0.332510000000000   0.652050000000000  -0.002560000000000 1
ion W   0.496430000000000   0.835090000000000   0.176570000000000 1
ion W   0.331320000000000   0.665110000000000   0.338330000000000 1
ion W   0.506030000000000   0.852380000000000   0.496000000000000 1
ion W   0.355720000000000   0.655600000000000   0.683890000000000 1
ion W   0.492970000000000   0.829890000000000   0.830300000000000 1
ion W   0.659240000000000  -0.001790000000000  -0.006440000000000 1
ion W   0.832330000000000   0.151630000000000   0.167900000000000 1
ion W   0.673630000000000   0.003800000000000   0.336280000000000 1
ion W   0.822750000000000   0.176620000000000   0.492890000000000 1
ion W   0.674430000000000   0.001620000000000   0.646730000000000 1
ion W   0.866450000000000   0.158800000000000   0.843890000000000 1
ion W   0.672300000000000   0.335360000000000  -0.010460000000000 1
ion W   0.835920000000000   0.497400000000000   0.160650000000000 1
ion W   0.683220000000000   0.332550000000000   0.329590000000000 1
ion W   0.816310000000000   0.494420000000000   0.517110000000000 1
ion W   0.659230000000000   0.336630000000000   0.666020000000000 1
ion W   0.844450000000000   0.510080000000000   0.854390000000000 1
ion W   0.658780000000000   0.673620000000000   0.011840000000000 1
ion W   0.847540000000000   0.850280000000000   0.176890000000000 1
ion W   0.683870000000000   0.662150000000000   0.339680000000000 1
ion W   0.823280000000000   0.843640000000000   0.498720000000000 1
ion W   0.670620000000000   0.671240000000000   0.672220000000000 1
ion W   0.831780000000000   0.827490000000000   0.842800000000000 1
ion O   0.240000000000000   0.180000000000000   0.310000000000000 1
ion-species GBRV/$ID_pbesol.uspp
ion-width 0
ionic-minimize  \
	dirUpdateScheme      L-BFGS \
	linminMethod         DirUpdateRecommended \
	nIterations          50 \
	history              15 \
	knormThreshold       0.0001 \
	maxThreshold         no \
	energyDiffThreshold  1e-06 \
	nEnergyDiff          2 \
	alphaTstart          1 \
	alphaTmin            1e-10 \
	updateTestStepSize   yes \
	alphaTreduceFactor   0.1 \
	alphaTincreaseFactor 3 \
	nAlphaAdjustMax      3 \
	wolfeEnergy          0.0001 \
	wolfeGradient        0.9 \
	fdTest               no
kpoint   0.500000000000   0.500000000000   0.500000000000  1.00000000000000
kpoint-folding 4 4 4 
latt-move-scale 1 1 1
latt-scale 1 1 1 
lattice  \
	  17.830580767642033    0.000000000000000    0.000000000000000  \
	   0.000000000000000   17.830580767642033    0.000000000000000  \
	   0.000000000000000    0.000000000000000   17.830580767642033 
lattice-minimize  \
	dirUpdateScheme      L-BFGS \
	linminMethod         DirUpdateRecommended \
	nIterations          0 \
	history              15 \
	knormThreshold       0 \
	maxThreshold         no \
	energyDiffThreshold  1e-06 \
	nEnergyDiff          2 \
	alphaTstart          1 \
	alphaTmin            1e-10 \
	updateTestStepSize   yes \
	alphaTreduceFactor   0.1 \
	alphaTincreaseFactor 3 \
	nAlphaAdjustMax      3 \
	wolfeEnergy          0.0001 \
	wolfeGradient        0.9 \
	fdTest               no
lcao-params -1 1e-06 0.01
pcm-variant GLSSA13
perturb-minimize  \
	nIterations            0 \
	algorithm              MINRES \
	residualTol            0.0001 \
	residualDiffThreshold  0.0001 \
	CGBypass               no \
	recomputeResidual      no
spintype no-spin
subspace-rotation-factor 1 yes
symmetries automatic
symmetry-threshold 0.0001



---------- Setting up symmetries ----------

Found 48 point-group symmetries of the bravais lattice
Found 1 space-group symmetries with basis
Applied RMS atom displacement 0 bohrs to make symmetries exact.

---------- Initializing the Grid ----------
R = 
[      17.8306            0            0  ]
[            0      17.8306            0  ]
[            0            0      17.8306  ]
unit cell volume = 5668.87
G =
[   0.352383          0          0  ]
[          0   0.352383          0  ]
[          0          0   0.352383  ]
Minimum fftbox size, Smin = [  84  84  84  ]
Chosen fftbox size, S = [  84  84  84  ]

---------- Initializing tighter grid for wavefunction operations ----------
R = 
[      17.8306            0            0  ]
[            0      17.8306            0  ]
[            0            0      17.8306  ]
unit cell volume = 5668.87
G =
[   0.352383          0          0  ]
[          0   0.352383          0  ]
[          0          0   0.352383  ]
Minimum fftbox size, Smin = [  72  72  72  ]
Chosen fftbox size, S = [  72  72  72  ]

---------- Exchange Correlation functional ----------
Initalized PBEsol GGA exchange.
Initalized PBEsol GGA correlation.

---------- Setting up pseudopotentials ----------
Width of ionic core gaussian charges (only for fluid interactions / plotting) set to 0

Reading pseudopotential file '/home/rc652/JDFTx/build/pseudopotentials/GBRV/w_pbesol.uspp':
  Title: W.  Created by USPP 7.3.6 on 3-2-2014
  Reference state energy: -79.054523.  14 valence electrons in orbitals:
    |500>  occupation: 2  eigenvalue: -2.940304
    |510>  occupation: 6  eigenvalue: -1.621550
    |520>  occupation: 3.9  eigenvalue: -0.195776
    |600>  occupation: 2  eigenvalue: -0.236158
    |610>  occupation: 0  eigenvalue: -0.068449
  lMax: 3  lLocal: 3  QijEcut: 5
  8 projectors sampled on a log grid with 667 points:
    l: 0  eig: -2.940304  rCut: 1.45
    l: 0  eig: -0.236158  rCut: 1.45
    l: 0  eig: 0.500000  rCut: 1.45
    l: 1  eig: -1.621550  rCut: 1.5
    l: 1  eig: -0.068449  rCut: 1.5
    l: 2  eig: -0.195776  rCut: 1.7
    l: 2  eig: 0.150000  rCut: 1.7
    l: 3  eig: 0.500000  rCut: 2.3
  Partial core density with radius 1.2
  Transforming core density to a uniform radial grid of dG=0.02 with 1287 points.
  Transforming local potential to a uniform radial grid of dG=0.02 with 1287 points.
  Transforming nonlocal projectors to a uniform radial grid of dG=0.02 with 432 points.
  Transforming density augmentations to a uniform radial grid of dG=0.02 with 1287 points.
  Transforming atomic orbitals to a uniform radial grid of dG=0.02 with 432 points.
  Core radius for overlap checks: 2.30 bohrs.

Reading pseudopotential file '/home/rc652/JDFTx/build/pseudopotentials/GBRV/o_pbesol.uspp':
  Title: O.  Created by USPP 7.3.6 on 3-2-2014
  Reference state energy: -15.849885.  6 valence electrons in orbitals:
    |200>  occupation: 2  eigenvalue: -0.873214
    |210>  occupation: 4  eigenvalue: -0.330058
  lMax: 2  lLocal: 2  QijEcut: 6
  5 projectors sampled on a log grid with 511 points:
    l: 0  eig: -0.873214  rCut: 1.25
    l: 0  eig: 0.000000  rCut: 1.25
    l: 1  eig: -0.330058  rCut: 1.25
    l: 1  eig: 0.000000  rCut: 1.25
    l: 2  eig: 1.000000  rCut: 1.25
  Partial core density with radius 0.7
  Transforming core density to a uniform radial grid of dG=0.02 with 1287 points.
  Transforming local potential to a uniform radial grid of dG=0.02 with 1287 points.
  Transforming nonlocal projectors to a uniform radial grid of dG=0.02 with 432 points.
  Transforming density augmentations to a uniform radial grid of dG=0.02 with 1287 points.
  Transforming atomic orbitals to a uniform radial grid of dG=0.02 with 432 points.
  Core radius for overlap checks: 1.25 bohrs.

Initialized 2 species with 55 total atoms.

Folded 1 k-points by 4x4x4 to 64 k-points.

---------- Setting up k-points, bands, fillings ----------
Adding inversion symmetry to k-mesh for non-inversion-symmetric unit cell.
Reduced to 32 k-points under symmetry. 
Computing the number of bands and number of electrons
Calculating initial fillings.
nElectrons: 762.000000   nBands: 706   nStates: 32

----- Setting up reduced wavefunction bases (one per k-point) -----
average nbasis = 24209.500 , ideal nbasis = 24217.843

---------- Setting up ewald sum ----------
Optimum gaussian width for ewald sums = 3.647666 bohr.
Real space sum over 343 unit cells with max indices [  3  3  3  ]
Reciprocal space sum over 6859 terms with max indices [  9  9  9  ]

---------- Allocating electronic variables ----------
Initializing wave functions:  linear combination of atomic orbitals
W pseudo-atom occupations:   s ( 2 2 )  p ( 6 0 )  d ( 4 )
O pseudo-atom occupations:   s ( 2 )  p ( 4 )
	FillingsUpdate:  mu: +0.848916095  nElectrons: 762.000000
LCAOMinimize: Iter:   0  F: -3729.5019181991742698  |grad|_K:  5.463e-04  alpha:  1.000e+00
	FillingsUpdate:  mu: +0.850336997  nElectrons: 762.000000
LCAOMinimize: Iter:   1  F: -3729.7076660926650220  |grad|_K:  2.381e-04  alpha:  6.639e-02  linmin: -2.785e-01  cgtest:  6.646e-01  t[s]:    367.63
LCAOMinimize: Encountered beta<0, resetting CG.
	FillingsUpdate:  mu: +0.851938374  nElectrons: 762.000000
LCAOMinimize: Iter:   2  F: -3729.7891732246330321  |grad|_K:  1.659e-04  alpha:  1.834e-01  linmin:  1.693e-02  cgtest: -6.245e-02  t[s]:    495.10
	FillingsUpdate:  mu: +0.853007198  nElectrons: 762.000000
LCAOMinimize: Iter:   3  F: -3729.8238032696308437  |grad|_K:  1.261e-04  alpha:  1.629e-01  linmin:  3.456e-03  cgtest:  1.089e-01  t[s]:    622.58
	FillingsUpdate:  mu: +0.853513009  nElectrons: 762.000000
LCAOMinimize: Iter:   4  F: -3729.8378285093067461  |grad|_K:  6.634e-05  alpha:  1.108e-01  linmin:  1.355e-04  cgtest:  2.201e-02  t[s]:    750.11
	FillingsUpdate:  mu: +0.853825516  nElectrons: 762.000000
LCAOMinimize: Iter:   5  F: -3729.8452484483477747  |grad|_K:  4.027e-05  alpha:  2.116e-01  linmin:  2.721e-03  cgtest: -4.092e-03  t[s]:    877.73
	FillingsUpdate:  mu: +0.854258817  nElectrons: 762.000000
LCAOMinimize: Iter:   6  F: -3729.8473557503157281  |grad|_K:  2.964e-05  alpha:  1.635e-01  linmin:  1.671e-04  cgtest:  1.046e-02  t[s]:   1005.46
	FillingsUpdate:  mu: +0.854384072  nElectrons: 762.000000
LCAOMinimize: Iter:   7  F: -3729.8480279548889484  |grad|_K:  8.783e-06  alpha:  9.564e-02  linmin: -2.329e-04  cgtest: -1.059e-02  t[s]:   1132.69
	FillingsUpdate:  mu: +0.854432028  nElectrons: 762.000000
LCAOMinimize: Iter:   8  F: -3729.8481059099276536  |grad|_K:  4.625e-06  alpha:  1.263e-01  linmin:  3.361e-04  cgtest: -7.579e-04  t[s]:   1260.13
	FillingsUpdate:  mu: +0.854447662  nElectrons: 762.000000
LCAOMinimize: Iter:   9  F: -3729.8481476179849778  |grad|_K:  4.067e-06  alpha:  2.439e-01  linmin:  1.355e-04  cgtest:  1.286e-03  t[s]:   1387.69
	FillingsUpdate:  mu: +0.854475954  nElectrons: 762.000000
LCAOMinimize: Iter:  10  F: -3729.8481610889411968  |grad|_K:  1.924e-06  alpha:  1.018e-01  linmin: -1.316e-04  cgtest:  1.508e-03  t[s]:   1515.45
	FillingsUpdate:  mu: +0.854473996  nElectrons: 762.000000
LCAOMinimize: Iter:  11  F: -3729.8481653000426377  |grad|_K:  8.606e-07  alpha:  1.422e-01  linmin: -3.754e-05  cgtest: -9.055e-04  t[s]:   1643.16
	FillingsUpdate:  mu: +0.854477621  nElectrons: 762.000000
LCAOMinimize: Iter:  12  F: -3729.8481663884977024  |grad|_K:  6.699e-07  alpha:  1.837e-01  linmin: -1.728e-04  cgtest:  7.863e-04  t[s]:   1770.96
	FillingsUpdate:  mu: +0.854475374  nElectrons: 762.000000
LCAOMinimize: Iter:  13  F: -3729.8481669050033815  |grad|_K:  4.686e-07  alpha:  1.438e-01  linmin:  2.410e-05  cgtest: -1.377e-03  t[s]:   1898.73
	FillingsUpdate:  mu: +0.854477518  nElectrons: 762.000000
LCAOMinimize: Iter:  14  F: -3729.8481671336107865  |grad|_K:  2.362e-07  alpha:  1.302e-01  linmin: -1.791e-04  cgtest:  1.363e-03  t[s]:   2026.17
LCAOMinimize: Converged (|Delta F|<1.000000e-06 for 2 iters).


---- Citations for features of the code used in this run ----

   Software package:
      R. Sundararaman, K. Letchworth-Weaver, K.A. Schwarz, D. Gunceler, Y. Ozhabes and T.A. Arias, 'JDFTx: software for joint density-functional theory', SoftwareX 6, 278 (2017)

   gga-PBEsol exchange-correlation functional:
      J.P. Perdew et al., Phys. Rev. Lett. 100, 136406 (2008)

   Pseudopotentials:
      KF Garrity, JW Bennett, KM Rabe and D Vanderbilt, Comput. Mater. Sci. 81, 446 (2014)

This list may not be complete. Please suggest additional citations or
report any other bugs at https://github.com/shankar1729/jdftx/issues

Initialization completed successfully at t[s]:   2091.37


-------- Electronic minimization -----------
Will mix electronic density at each iteration.
	FillingsUpdate:  mu: +0.854477518  nElectrons: 762.000000
	FillingsUpdate:  mu: +0.848719192  nElectrons: 762.000000
SCF: Cycle:  0   F: -3730.501776031306235   dF: -6.536e-01   |Residual|: 1.991e-01   |deigs|: 5.908e-02  t[s]:   2642.77
	FillingsUpdate:  mu: +0.846608366  nElectrons: 762.000000
SCF: Cycle:  1   F: -3730.548399473728750   dF: -4.662e-02   |Residual|: 8.984e-02   |deigs|: 4.768e-03  t[s]:   3117.61
	FillingsUpdate:  mu: +0.845578248  nElectrons: 762.000000
SCF: Cycle:  2   F: -3730.544033112935722   dF: +4.366e-03   |Residual|: 3.579e-02   |deigs|: 2.237e-03  t[s]:   3592.36
	FillingsUpdate:  mu: +0.845394796  nElectrons: 762.000000
SCF: Cycle:  3   F: -3730.555153507111299   dF: -1.112e-02   |Residual|: 1.100e-02   |deigs|: 7.378e-04  t[s]:   3872.45
	FillingsUpdate:  mu: +0.845440455  nElectrons: 762.000000
SCF: Cycle:  4   F: -3730.555227581161034   dF: -7.407e-05   |Residual|: 5.220e-03   |deigs|: 1.179e-04  t[s]:   4152.74
	FillingsUpdate:  mu: +0.845437065  nElectrons: 762.000000
SCF: Cycle:  5   F: -3730.555333270828669   dF: -1.057e-04   |Residual|: 1.389e-03   |deigs|: 3.856e-05  t[s]:   4433.08
	FillingsUpdate:  mu: +0.845431006  nElectrons: 762.000000
SCF: Cycle:  6   F: -3730.555338566080991   dF: -5.295e-06   |Residual|: 5.285e-04   |deigs|: 2.139e-05  t[s]:   4713.54
	FillingsUpdate:  mu: +0.845429339  nElectrons: 762.000000
SCF: Cycle:  7   F: -3730.555339184146760   dF: -6.181e-07   |Residual|: 2.314e-04   |deigs|: 1.450e-05  t[s]:   4993.78
	FillingsUpdate:  mu: +0.845430358  nElectrons: 762.000000
SCF: Cycle:  8   F: -3730.555339354767057   dF: -1.706e-07   |Residual|: 8.601e-05   |deigs|: 1.305e-05  t[s]:   5274.26
	FillingsUpdate:  mu: +0.845430756  nElectrons: 762.000000
SCF: Cycle:  9   F: -3730.555339392937640   dF: -3.817e-08   |Residual|: 3.534e-05   |deigs|: 1.251e-05  t[s]:   5554.81
	FillingsUpdate:  mu: +0.845430548  nElectrons: 762.000000
SCF: Cycle: 10   F: -3730.555339406355415   dF: -1.342e-08   |Residual|: 1.856e-05   |deigs|: 1.133e-05  t[s]:   5834.97
	FillingsUpdate:  mu: +0.845430451  nElectrons: 762.000000
SCF: Cycle: 11   F: -3730.555339411630484   dF: -5.275e-09   |Residual|: 8.196e-06   |deigs|: 9.932e-06  t[s]:   6115.38
	FillingsUpdate:  mu: +0.845430470  nElectrons: 762.000000
SCF: Cycle: 12   F: -3730.555339413624552   dF: -1.994e-09   |Residual|: 5.114e-06   |deigs|: 9.330e-06  t[s]:   6395.43
SCF: Converged (|Delta E|<1.000000e-08 for 2 iters).

Setting wave functions to eigenvectors of Hamiltonian

# Ionic positions in lattice coordinates:
ion W   0.000000000000000   0.000000000000000   0.000000000000000 0
ion W   0.164370000000000   0.157120000000000   0.162090000000000 1
ion W   0.008660000000000  -0.007740000000000   0.321750000000000 1
ion W   0.167320000000000   0.182380000000000   0.481930000000000 1
ion W   0.009080000000000   0.009290000000000   0.662200000000000 1
ion W   0.165650000000000   0.151240000000000   0.832430000000000 1
ion W   0.003080000000000   0.337850000000000  -0.002100000000000 1
ion W   0.169760000000000   0.509640000000000   0.162410000000000 1
ion W  -0.009840000000000   0.331660000000000   0.330800000000000 1
ion W   0.158300000000000   0.509050000000000   0.492950000000000 1
ion W  -0.009050000000000   0.338240000000000   0.684310000000000 1
ion W   0.182510000000000   0.533920000000000   0.846790000000000 1
ion W  -0.005390000000000   0.663890000000000   0.003480000000000 1
ion W   0.169620000000000   0.853060000000000   0.158640000000000 1
ion W   0.006240000000000   0.677960000000000   0.321230000000000 1
ion W   0.168430000000000   0.835000000000000   0.493310000000000 1
ion W   0.015590000000000   0.655140000000000   0.665870000000000 1
ion W   0.142390000000000   0.824830000000000   0.841500000000000 1
ion W   0.334240000000000  -0.007970000000000   0.005870000000000 1
ion W   0.510110000000000   0.170760000000000   0.167980000000000 1
ion W   0.333030000000000   0.000970000000000   0.342100000000000 1
ion W   0.503610000000000   0.190640000000000   0.506210000000000 1
ion W   0.321870000000000   0.003110000000000   0.654310000000000 1
ion W   0.489140000000000   0.163080000000000   0.840870000000000 1
ion W   0.342140000000000   0.331600000000000  -0.015350000000000 1
ion W   0.482300000000000   0.493340000000000   0.174970000000000 1
ion W   0.335320000000000   0.342920000000000   0.324560000000000 1
ion W   0.508760000000000   0.508520000000000   0.496830000000000 1
ion W   0.334550000000000   0.338300000000000   0.656580000000000 1
ion W   0.488430000000000   0.501820000000000   0.843180000000000 1
ion W   0.332510000000000   0.652050000000000  -0.002560000000000 1
ion W   0.496430000000000   0.835090000000000   0.176570000000000 1
ion W   0.331320000000000   0.665110000000000   0.338330000000000 1
ion W   0.506030000000000   0.852380000000000   0.496000000000000 1
ion W   0.355720000000000   0.655600000000000   0.683890000000000 1
ion W   0.492970000000000   0.829890000000000   0.830300000000000 1
ion W   0.659240000000000  -0.001790000000000  -0.006440000000000 1
ion W   0.832330000000000   0.151630000000000   0.167900000000000 1
ion W   0.673630000000000   0.003800000000000   0.336280000000000 1
ion W   0.822750000000000   0.176620000000000   0.492890000000000 1
ion W   0.674430000000000   0.001620000000000   0.646730000000000 1
ion W   0.866450000000000   0.158800000000000   0.843890000000000 1
ion W   0.672300000000000   0.335360000000000  -0.010460000000000 1
ion W   0.835920000000000   0.497400000000000   0.160650000000000 1
ion W   0.683220000000000   0.332550000000000   0.329590000000000 1
ion W   0.816310000000000   0.494420000000000   0.517110000000000 1
ion W   0.659230000000000   0.336630000000000   0.666020000000000 1
ion W   0.844450000000000   0.510080000000000   0.854390000000000 1
ion W   0.658780000000000   0.673620000000000   0.011840000000000 1
ion W   0.847540000000000   0.850280000000000   0.176890000000000 1
ion W   0.683870000000000   0.662150000000000   0.339680000000000 1
ion W   0.823280000000000   0.843640000000000   0.498720000000000 1
ion W   0.670620000000000   0.671240000000000   0.672220000000000 1
ion W   0.831780000000000   0.827490000000000   0.842800000000000 1
ion O   0.240000000000000   0.180000000000000   0.310000000000000 1

# Forces in Lattice coordinates:
force W  -0.006551525584742  -0.423307254252419  -0.102749520201798 0
force W  -3.177707322383272   0.003864451445458  -6.985579495818912 1
force W  -0.570067776004867   0.688913450816708   1.147795954946988 1
force W  -1.384700965336831  -0.205803211265581   3.662025115483496 1
force W  -0.555906200182004  -0.611036855505857  -0.327466423877149 1
force W   0.592748110763122   0.884211572088762  -0.132067413482881 1
force W   0.406739009198377  -0.196657883189545   0.380199396664896 1
force W  -0.406084444138207  -0.583289147578174   0.260401343408641 1
force W   0.097948731652060   0.605869770274580  -0.107948890178098 1
force W   0.279045861071421  -0.548140043427024   0.198172943879757 1
force W   0.706494983901271   0.037486819804636  -0.691879867002554 1
force W  -1.417833920548602  -2.541245902260294  -1.118651206541452 1
force W   0.207630265386703   0.650626651309684   0.511421714011843 1
force W   0.162414649790292  -1.449767057761144   0.316561522705150 1
force W  -0.269489035425388  -0.606395885750514   0.614377970472517 1
force W  -0.126181716514492  -0.126907829406635   0.508567110686393 1
force W  -0.995189316325657   0.878636822691477  -0.276219945004318 1
force W   1.244277365078205   0.737018578646690  -0.538246942067651 1
force W   0.146956895352516   0.317993928417036  -0.516221621005509 1
force W   0.002345479698551  -0.121745749417463  -0.184238020567665 1
force W   0.913681566180641  -1.099959084527033  -0.426260803750331 1
force W  -0.180222943145363  -0.905783538718273  -0.420162117377298 1
force W   0.611933286396200  -0.168854439785244   0.535845676815570 1
force W   0.676070174129540  -0.077219641208815  -0.730293300229921 1
force W  -0.907113757629062  -0.385590089100246   0.992978896910503 1
force W   1.539344939868041   0.610481375569246  -0.538116984787378 1
force W   1.247821605526704   2.338866322087711   0.615405967480039 1
force W  -0.437369327113948  -0.009150277674865   0.139434952260066 1
force W  -0.492686784574105  -0.004340781287495   0.341466192804640 1
force W   1.689259394299850  -0.461864177291976  -0.404591286930707 1
force W   0.674839988429210   1.995889582883984   1.390549082927936 1
force W   0.332877701137109  -0.146775173838082  -0.255742542432579 1
force W   0.303639875510413   0.440412744145436  -0.088867527663835 1
force W  -0.334417146621838  -0.914191955268777   0.345165283714472 1
force W  -0.992358382905771   1.057160944875816  -1.605119105594136 1
force W   0.423060583866920   0.532521436826686   0.210408949761274 1
force W   0.276290527892296   0.031050741734162   0.175544631800582 1
force W   0.132285995812591   0.993146321711079  -0.402384718027583 1
force W  -0.608688830361309   0.043935128434573  -0.516360709880515 1
force W   1.119203161808233  -0.434221024588924   0.650186151823117 1
force W  -0.400682549459260   0.369749780665384   1.490379678371174 1
force W  -2.077129412544384   0.437008588857197  -0.679538682249039 1
force W  -0.165885661192099  -0.242976216315429   0.484753887787097 1
force W  -0.210600076405171   0.163555281044043   0.606004067986189 1
force W  -1.114069333459583   0.350906382315996  -0.297262153590985 1
force W   1.296730448602035   0.596630736998327  -0.443296272012703 1
force W   0.305083901470088  -0.113807950225901   0.798524283814042 1
force W  -0.860958868558676  -0.487494457917910  -1.247404856728140 1
force W   0.187186074297986  -0.223621189068016  -0.065261379748839 1
force W  -1.087348255644025  -1.206457123972970  -0.709269983967223 1
force W  -0.694938320043994   0.269626389652180  -0.395551362239038 1
force W   1.200777821139294  -0.674623687191079   0.306109560965437 1
force W   0.023174859474093  -0.013140931069592   0.093610059660764 1
force W  -0.173457196691945   0.415349453789987  -0.422601589274333 1
force O   2.840985925513570  -0.460391855254447   3.853105823162394 1

# Energy components:
   Eewald =    -3233.3254745456924866
       EH =      443.5494343767191481
     Eloc =     -891.7231390257660451
      Enl =     -796.1632886885222433
      Exc =    -1113.5654716310846197
 Exc_core =      579.0145462199982376
       KE =     1281.9443865280816226
-------------------------------------
     Etot =    -3730.2690067662661022
       TS =        0.2863326473584750
-------------------------------------
        F =    -3730.5553394136245515

IonicMinimize: Iter:   0  F: -3730.555339413624552  |grad|_K:  5.947e-02  t[s]:   6492.84

#--- Lowdin population analysis ---
# oxidation-state W -0.058 +0.087 -0.033 +0.039 +0.001 +0.014 +0.001 +0.013 -0.016 +0.007 +0.031 -0.005 -0.021 +0.029 +0.027 +0.008 +0.002 +0.031 -0.018 +0.012 +0.013 -0.006 +0.018 +0.009 +0.005 +0.013 +0.017 -0.006 +0.031 -0.021 -0.005 +0.016 +0.005 +0.010 +0.015 +0.010 +0.015 +0.028 -0.007 +0.007 +0.023 +0.003 +0.028 -0.004 +0.006 +0.009 +0.026 -0.001 +0.032 +0.017 +0.014 +0.016 +0.022 +0.026
# oxidation-state O +0.051


-------- Electronic minimization -----------
Will mix electronic density at each iteration.
	FillingsUpdate:  mu: +0.845430470  nElectrons: 762.000000
	FillingsUpdate:  mu: +0.847736306  nElectrons: 762.000000
SCF: Cycle:  0   F: -3722.617109251232250   dF: +7.343e+00   |Residual|: 8.968e-01   |deigs|: 2.070e-03  t[s]:   7139.06
	FillingsUpdate:  mu: +0.845622171  nElectrons: 762.000000
SCF: Cycle:  1   F: -3727.267055173705103   dF: -4.650e+00   |Residual|: 6.495e-01   |deigs|: 1.699e-02  t[s]:   7614.35
	FillingsUpdate:  mu: +0.845847989  nElectrons: 762.000000
SCF: Cycle:  2   F: -3730.536852999704024   dF: -3.270e+00   |Residual|: 1.500e-01   |deigs|: 1.286e-02  t[s]:   8089.50
	FillingsUpdate:  mu: +0.845556026  nElectrons: 762.000000
SCF: Cycle:  3   F: -3730.660722863615774   dF: -1.239e-01   |Residual|: 5.848e-02   |deigs|: 1.200e-03  t[s]:   8564.87
	FillingsUpdate:  mu: +0.845532159  nElectrons: 762.000000
SCF: Cycle:  4   F: -3730.671503269469213   dF: -1.078e-02   |Residual|: 1.936e-02   |deigs|: 6.256e-04  t[s]:   9030.75
	FillingsUpdate:  mu: +0.845536685  nElectrons: 762.000000
SCF: Cycle:  5   F: -3730.672064111874079   dF: -5.608e-04   |Residual|: 1.108e-02   |deigs|: 1.790e-04  t[s]:   9311.24
	FillingsUpdate:  mu: +0.845535404  nElectrons: 762.000000
SCF: Cycle:  6   F: -3730.672420159859485   dF: -3.560e-04   |Residual|: 2.777e-03   |deigs|: 5.019e-05  t[s]:   9591.66
	FillingsUpdate:  mu: +0.845538036  nElectrons: 762.000000
SCF: Cycle:  7   F: -3730.672435759416203   dF: -1.560e-05   |Residual|: 1.126e-03   |deigs|: 2.967e-05  t[s]:   9872.05
	FillingsUpdate:  mu: +0.845536584  nElectrons: 762.000000
SCF: Cycle:  8   F: -3730.672439779834349   dF: -4.020e-06   |Residual|: 3.918e-04   |deigs|: 9.568e-06  t[s]:  10152.69
	FillingsUpdate:  mu: +0.845536751  nElectrons: 762.000000
SCF: Cycle:  9   F: -3730.672439919163480   dF: -1.393e-07   |Residual|: 1.616e-04   |deigs|: 3.068e-06  t[s]:  10432.81
	FillingsUpdate:  mu: +0.845536876  nElectrons: 762.000000
SCF: Cycle: 10   F: -3730.672440008735975   dF: -8.957e-08   |Residual|: 6.461e-05   |deigs|: 1.166e-06  t[s]:  10713.22
	FillingsUpdate:  mu: +0.845536862  nElectrons: 762.000000
SCF: Cycle: 11   F: -3730.672440014635413   dF: -5.899e-09   |Residual|: 2.193e-05   |deigs|: 4.818e-07  t[s]:  10993.22
	FillingsUpdate:  mu: +0.845536863  nElectrons: 762.000000
SCF: Cycle: 12   F: -3730.672440017368899   dF: -2.733e-09   |Residual|: 1.506e-05   |deigs|: 2.255e-07  t[s]:  11273.60
SCF: Converged (|Delta E|<1.000000e-08 for 2 iters).

Setting wave functions to eigenvectors of Hamiltonian

# Ionic positions in lattice coordinates:
ion W   0.000000000000000   0.000000000000000   0.000000000000000 0
ion W   0.162047771680129   0.157122824092239   0.156985026857371 1
ion W   0.008243401679456  -0.007236550763452   0.322588794766666 1
ion W   0.166308078048092   0.182229601616186   0.484606161637466 1
ion W   0.008673750779953   0.008843461994330   0.661960691679193 1
ion W   0.166083172822326   0.151886170633462   0.832333486804602 1
ion W   0.003377239723528   0.337706284906274  -0.001822155089641 1
ion W   0.169463238624339   0.509213739668333   0.162600298008233 1
ion W  -0.009768420305754   0.332102761965136   0.330721112316385 1
ion W   0.158503923185927   0.508649426189084   0.493094822280916 1
ion W  -0.008533702401443   0.338267394893784   0.683804382944022 1
ion W   0.181473864903486   0.532062889636054   0.845972503846849 1
ion W  -0.005238266428142   0.664365469727716   0.003853740520189 1
ion W   0.169738690571862   0.852000528570698   0.158871339156954 1
ion W   0.006043060821382   0.677516853556328   0.321678979650230 1
ion W   0.168337787997505   0.834907257363387   0.493681654412183 1
ion W   0.014862728234685   0.655782096677112   0.665668141957793 1
ion W   0.143299302160903   0.825368603855537   0.841106655942431 1
ion W   0.334347394240427  -0.007737614059068   0.005492751768489 1
ion W   0.510111714046898   0.170671029746154   0.167845361184793 1
ion W   0.333697706932411   0.000166163813201   0.341788493995924 1
ion W   0.503478295352591   0.189978064846165   0.505902950838789 1
ion W   0.322317193106027   0.002986603311059   0.654701589243294 1
ion W   0.489634063532386   0.163023568862871   0.840336310892869 1
ion W   0.341477092739009   0.331318215639791  -0.014624343581236 1
ion W   0.483424933812574   0.493786132067958   0.174576750913568 1
ion W   0.336231892246995   0.344629213926433   0.325009730897441 1
ion W   0.508440376027549   0.508513313092807   0.496931897299552 1
ion W   0.334189950729287   0.338296827811937   0.656829539174871 1
ion W   0.489664489399769   0.501482475500847   0.842884329804741 1
ion W   0.333003164528235   0.653508570863359  -0.001543804317723 1
ion W   0.496673262813787   0.834982738559357   0.176383106584597 1
ion W   0.331541896180616   0.665431848063125   0.338265056734771 1
ion W   0.505785612178924   0.851711920081699   0.496252242423722 1
ion W   0.354994797045023   0.656372559847649   0.682716999259019 1
ion W   0.493279167323862   0.830279159930755   0.830453764199254 1
ion W   0.659441909623289  -0.001767308510667  -0.006311714203351 1
ion W   0.832426672932600   0.152355778770690   0.167605942337387 1
ion W   0.673185177901408   0.003832107236173   0.335902650124098 1
ion W   0.823567899515079   0.176302676767215   0.493365147816263 1
ion W   0.674137186260648   0.001890208463152   0.647819150618780 1
ion W   0.864932060096639   0.159119360349496   0.843393401725750 1
ion W   0.672178772856906   0.335182436054256  -0.010105747989924 1
ion W   0.835766096127812   0.497519524130756   0.161092860108205 1
ion W   0.682405852221746   0.332806437945967   0.329372764577898 1
ion W   0.817257634210920   0.494856010196472   0.516786044691180 1
ion W   0.659452951456523   0.336546830589407   0.666603551446955 1
ion W   0.843820822148180   0.509723745215935   0.853478412307756 1
ion W   0.658916793215586   0.673456580463368   0.011792307809099 1
ion W   0.846745379647448   0.849398336392950   0.176371674466493 1
ion W   0.683362147865223   0.662347039555350   0.339390936067370 1
ion W   0.824157513244370   0.843146993541974   0.498943700995510 1
ion W   0.670636935894190   0.671230396773779   0.672288409047629 1
ion W   0.831653239674527   0.827793532127531   0.842491168103581 1
ion O   0.242076156581858   0.179663551455170   0.312815801001868 1

# Forces in Lattice coordinates:
force W  -0.059325859177017  -0.434608819279970  -0.138295375256344 0
force W  -1.841008216619440   0.394080456436925  -4.390761728778218 1
force W  -0.541809978037748   0.662562732854745   1.025692300590799 1
force W  -1.272755614956840  -0.198366364511234   3.316570561041662 1
force W  -0.550004217928165  -0.586885434712484  -0.262603180235808 1
force W   0.526628414970703   0.852300568935027  -0.158127501417111 1
force W   0.337100555421382  -0.169681024464105   0.324550101744745 1
force W  -0.360201536851979  -0.551167381102454   0.239942842999965 1
force W   0.136980769318759   0.535573013938617  -0.098146337090154 1
force W   0.269530608707756  -0.507407939882139   0.208833129175866 1
force W   0.669101067960945   0.034890304502418  -0.658762228339842 1
force W  -1.213304178695377  -2.339221632574307  -0.979943859613416 1
force W   0.203167206413336   0.595568746927682   0.425346097587629 1
force W   0.144834241657348  -1.363721829151830   0.329968196855975 1
force W  -0.262928475719638  -0.573757454132244   0.601761095891971 1
force W  -0.113597419777019  -0.112533359846648   0.475881689665209 1
force W  -0.948522192542013   0.850611212076374  -0.237591075302739 1
force W   1.215543031416496   0.674133822284715  -0.520752357774289 1
force W   0.130971261998543   0.295467861149152  -0.499182842059445 1
force W  -0.020972357632223  -0.118848432590724  -0.184051358376294 1
force W   0.782176721548787  -0.980750320032930  -0.442392468568329 1
force W  -0.134024965443226  -0.861468135829931  -0.377160110058465 1
force W   0.594614412976751  -0.159761662886789   0.517873347816957 1
force W   0.644955425431963  -0.053353002636762  -0.694420707877302 1
force W  -0.812791130683623  -0.313003808797904   0.924080267853999 1
force W   1.485613283008931   0.606537656323604  -0.554428844571147 1
force W   1.007221219016423   2.005781144834546   0.575558928741890 1
force W  -0.397692992775604  -0.010494338752938   0.153797258883750 1
force W  -0.451945545536604  -0.002566545378142   0.344937713170974 1
force W   1.499338812371562  -0.384057926855067  -0.386378299962708 1
force W   0.523464870186509   1.765198192490092   1.153985267381174 1
force W   0.326068117877096  -0.138937905141564  -0.257606185975690 1
force W   0.287454690321383   0.424969505070276  -0.087910727805256 1
force W  -0.293981574047757  -0.887551302369030   0.340409195701990 1
force W  -0.956333096370002   0.982943901592541  -1.453341230077391 1
force W   0.394304024645269   0.486210699524598   0.194690374790903 1
force W   0.279931030601424   0.036151039254670   0.173853326915691 1
force W   0.111115122284923   0.939424515398838  -0.362847284681002 1
force W  -0.551757396377548   0.038631333896700  -0.452239991930559 1
force W   1.033562599989380  -0.405978493817997   0.597392264202966 1
force W  -0.372378788052698   0.333650022826146   1.397519515597350 1
force W  -1.977669462602846   0.422891830410231  -0.664539589888355 1
force W  -0.157043166718243  -0.230677465548382   0.471284925936193 1
force W  -0.199838756901620   0.166454791964913   0.562474488669866 1
force W  -1.043790818316274   0.314640258274225  -0.240228732256372 1
force W   1.222449378808546   0.557043319007777  -0.445998052622586 1
force W   0.304519943943704  -0.111553805248123   0.720936364404702 1
force W  -0.805296698892128  -0.455719106294713  -1.157860394661287 1
force W   0.201041319814904  -0.223142664726276  -0.087580759816826 1
force W  -1.014999465642940  -1.119712559466167  -0.640963647426574 1
force W  -0.675357946438272   0.271313024647709  -0.361405507197953 1
force W   1.110668136154725  -0.619624591714763   0.285985149602313 1
force W   0.021945048989996  -0.019587277280193   0.084626795880611 1
force W  -0.156176371942731   0.391431073882601  -0.414728931294025 1
force O   1.712035287162510  -0.700611177988639   1.764372917539837 1

# Energy components:
   Eewald =    -3237.1699345311121760
       EH =      439.9930615564442178
     Eloc =     -884.1233694440485351
      Enl =     -796.1287887260323259
      Exc =    -1113.4344595851107442
 Exc_core =      579.0144157225323625
       KE =     1281.4596022724911109
-------------------------------------
     Etot =    -3730.3894727348369997
       TS =        0.2829672825320920
-------------------------------------
        F =    -3730.6724400173688991

IonicMinimize: Iter:   1  F: -3730.672440017368899  |grad|_K:  4.696e-02  alpha:  2.323e-01  linmin: -9.741e-01  t[s]:  11370.86

#--- Lowdin population analysis ---
# oxidation-state W -0.056 +0.081 -0.028 +0.048 +0.000 +0.016 +0.001 +0.012 -0.011 +0.006 +0.028 -0.004 -0.020 +0.028 +0.027 +0.007 +0.002 +0.030 -0.016 +0.013 +0.025 -0.007 +0.018 +0.009 +0.005 +0.010 +0.031 -0.007 +0.030 -0.018 -0.004 +0.012 +0.006 +0.009 +0.015 +0.010 +0.014 +0.029 -0.006 +0.008 +0.022 +0.004 +0.026 -0.005 +0.007 +0.010 +0.025 +0.002 +0.031 +0.016 +0.013 +0.016 +0.021 +0.027
# oxidation-state O +0.008


-------- Electronic minimization -----------
Will mix electronic density at each iteration.
	FillingsUpdate:  mu: +0.845536863  nElectrons: 762.000000
	FillingsUpdate:  mu: +0.850024674  nElectrons: 762.000000
SCF: Cycle:  0   F: -3705.681997082593625   dF: +2.322e+01   |Residual|: 1.509e+00   |deigs|: 5.564e-03  t[s]:  12016.41
	FillingsUpdate:  mu: +0.845252283  nElectrons: 762.000000
SCF: Cycle:  1   F: -3719.288244475915690   dF: -1.361e+01   |Residual|: 1.150e+00   |deigs|: 2.280e-02  t[s]:  12491.41
	FillingsUpdate:  mu: +0.846864029  nElectrons: 762.000000
SCF: Cycle:  2   F: -3730.453193545110935   dF: -1.116e+01   |Residual|: 2.552e-01   |deigs|: 2.486e-02  t[s]:  12966.44
	FillingsUpdate:  mu: +0.846002753  nElectrons: 762.000000
SCF: Cycle:  3   F: -3730.791629881264726   dF: -3.384e-01   |Residual|: 1.042e-01   |deigs|: 2.264e-03  t[s]:  13440.87
	FillingsUpdate:  mu: +0.845947247  nElectrons: 762.000000
SCF: Cycle:  4   F: -3730.817586285209927   dF: -2.596e-02   |Residual|: 3.293e-02   |deigs|: 1.147e-03  t[s]:  13906.72
	FillingsUpdate:  mu: +0.845884908  nElectrons: 762.000000
SCF: Cycle:  5   F: -3730.818379304969312   dF: -7.930e-04   |Residual|: 1.766e-02   |deigs|: 3.894e-04  t[s]:  14344.13
	FillingsUpdate:  mu: +0.845880568  nElectrons: 762.000000
SCF: Cycle:  6   F: -3730.819455122485579   dF: -1.076e-03   |Residual|: 4.766e-03   |deigs|: 1.387e-04  t[s]:  14624.68
	FillingsUpdate:  mu: +0.845881306  nElectrons: 762.000000
SCF: Cycle:  7   F: -3730.819481158669078   dF: -2.604e-05   |Residual|: 1.938e-03   |deigs|: 4.477e-05  t[s]:  14905.46
	FillingsUpdate:  mu: +0.845880343  nElectrons: 762.000000
SCF: Cycle:  8   F: -3730.819497001545187   dF: -1.584e-05   |Residual|: 6.855e-04   |deigs|: 1.002e-05  t[s]:  15185.77
	FillingsUpdate:  mu: +0.845882281  nElectrons: 762.000000
SCF: Cycle:  9   F: -3730.819497443009368   dF: -4.415e-07   |Residual|: 2.503e-04   |deigs|: 5.986e-06  t[s]:  15466.14
	FillingsUpdate:  mu: +0.845882545  nElectrons: 762.000000
SCF: Cycle: 10   F: -3730.819497657582815   dF: -2.146e-07   |Residual|: 1.030e-04   |deigs|: 1.924e-06  t[s]:  15746.89
	FillingsUpdate:  mu: +0.845882339  nElectrons: 762.000000
SCF: Cycle: 11   F: -3730.819497672581292   dF: -1.500e-08   |Residual|: 3.777e-05   |deigs|: 7.660e-07  t[s]:  16027.43
	FillingsUpdate:  mu: +0.845882313  nElectrons: 762.000000
SCF: Cycle: 12   F: -3730.819497678148309   dF: -5.567e-09   |Residual|: 2.422e-05   |deigs|: 3.558e-07  t[s]:  16308.09
	FillingsUpdate:  mu: +0.845882301  nElectrons: 762.000000
SCF: Cycle: 13   F: -3730.819497681713983   dF: -3.566e-09   |Residual|: 1.387e-05   |deigs|: 2.022e-07  t[s]:  16588.64
SCF: Converged (|Delta E|<1.000000e-08 for 2 iters).

Setting wave functions to eigenvectors of Hamiltonian

# Ionic positions in lattice coordinates:
ion W   0.000000000000000   0.000000000000000   0.000000000000000 0
ion W   0.160207742452253   0.158141704055120   0.152048445459914 1
ion W   0.007364460843210  -0.006154138989217   0.324189302806552 1
ion W   0.164285481622187   0.181905117537903   0.489827015678035 1
ion W   0.007760463122198   0.007885431225903   0.661581972286029 1
ion W   0.166901765900558   0.153280387287954   0.832045264370995 1
ion W   0.003875988754023   0.337447774451587  -0.001331443328783 1
ion W   0.168903948667888   0.508322738659581   0.162982199268196 1
ion W  -0.009503534593763   0.332932436329484   0.330566224577845 1
ion W   0.158945361260311   0.507839478901793   0.493453513736672 1
ion W  -0.007450573806180   0.338323277153307   0.682734572925616 1
ion W   0.179636134708330   0.528342081703572   0.844463758643460 1
ion W  -0.004903014827166   0.665309444738462   0.004484707714520 1
ion W   0.169964379533359   0.849802045534533   0.159434915871586 1
ion W   0.005609920702358   0.676588594938009   0.322672518159629 1
ion W   0.168159660961171   0.834732562054630   0.494446375329590 1
ion W   0.013321416511819   0.657177081865153   0.665306960339439 1
ion W   0.145303224229557   0.826436583284575   0.840252944059703 1
ion W   0.334551399839092  -0.007264872965768   0.004674648969630 1
ion W   0.510055133316490   0.170475179568006   0.167538089398359 1
ion W   0.334882752464255  -0.001361947107420   0.341034602633916 1
ion W   0.503297107907624   0.188579997314645   0.505312670599530 1
ion W   0.323294448502660   0.002728135792654   0.655550050468758 1
ion W   0.490682661165175   0.162956501681853   0.839209481847407 1
ion W   0.340206548103406   0.330862442533326  -0.013144404369446 1
ion W   0.485856888452008   0.494795664308909   0.173635544493921 1
ion W   0.337692043209721   0.347671920996382   0.325934337293582 1
ion W   0.507812723870412   0.508494541027452   0.497202076494664 1
ion W   0.333472657741577   0.338294180152662   0.657408940320164 1
ion W   0.491993519731698   0.500912835466712   0.842255743793204 1
ion W   0.333737688844896   0.656244023581781   0.000165235395527 1
ion W   0.497211642947132   0.834757895387765   0.175951072177656 1
ion W   0.332007111451417   0.666127457365399   0.338119092494720 1
ion W   0.505331903941778   0.850253949349635   0.496816475903690 1
ion W   0.353430603689424   0.657945911706221   0.680429556944989 1
ion W   0.493911249391552   0.831048543584894   0.830764454685233 1
ion W   0.659912878034482  -0.001702207683571  -0.006022867915708 1
ion W   0.832592718642155   0.153875374279906   0.167036369019112 1
ion W   0.672316117858315   0.003891736821613   0.335206470194968 1
ion W   0.825215249751872   0.175650618343732   0.494314261050148 1
ion W   0.673541310261686   0.002414186645385   0.650067792547410 1
ion W   0.861720419122768   0.159812724845759   0.842297197752205 1
ion W   0.671924615101475   0.334808471525698  -0.009330947753802 1
ion W   0.835442224661918   0.497800254068761   0.161992206882688 1
ion W   0.680727220473793   0.333298507973752   0.329024184540846 1
ion W   0.819231003217084   0.495749927540829   0.516038540983369 1
ion W   0.659961108512355   0.336362571197368   0.667736123935227 1
ion W   0.842527070392507   0.508991863421106   0.851627039314435 1
ion W   0.659265421571929   0.673084279228884   0.011625385304982 1
ion W   0.845116754875248   0.847608099180032   0.175364113445830 1
ion W   0.682252106170293   0.662801806656792   0.338818788790412 1
ion W   0.825929532714004   0.842162780663639   0.499402821278787 1
ion W   0.670672457022887   0.671191720615140   0.672421470488142 1
ion W   0.831408327673022   0.828425286089595   0.841805668975541 1
ion O   0.243892725765889   0.178271245934055   0.313832864303801 1

# Forces in Lattice coordinates:
force W  -0.120674691072581  -0.424209172192751  -0.191232291979648 0
force W  -1.087013573412844   0.522506988055569  -2.829871577315224 1
force W  -0.505578934963356   0.567601806928663   0.818457097632114 1
force W  -0.839305096266245  -0.209848804786931   2.358350451419077 1
force W  -0.520085409528038  -0.527983186239653  -0.150267232190575 1
force W   0.402172511876558   0.781561062225863  -0.182461597883295 1
force W   0.209452615423428  -0.115828028802004   0.214655157652709 1
force W  -0.281302824277416  -0.471772176614726   0.201499488138732 1
force W   0.166758583250360   0.440811951753948  -0.054832930030370 1
force W   0.252918154311272  -0.418393684381436   0.228969744254791 1
force W   0.587542655859346   0.028243070352650  -0.599709729340463 1
force W  -0.903153940498761  -1.971881067773236  -0.771917491188239 1
force W   0.194133556368105   0.484175309789411   0.266384559474327 1
force W   0.101696181181314  -1.160677152924530   0.337296433712837 1
force W  -0.248458881121300  -0.505793114012727   0.567489126512396 1
force W  -0.088410108567464  -0.086764662931860   0.414318429490139 1
force W  -0.845591560111037   0.777222160823737  -0.159330688946707 1
force W   1.137656707368417   0.558353316453035  -0.479069808438346 1
force W   0.095182774732106   0.261862810547268  -0.443398617423984 1
force W  -0.055130972117602  -0.112330944607323  -0.173439317389702 1
force W   0.610878455186658  -0.824098476784720  -0.401429883619324 1
force W  -0.079285938381545  -0.777906960094775  -0.310153603516459 1
force W   0.554591926471521  -0.142953892501928   0.480663120976105 1
force W   0.583185646066488  -0.008559227956405  -0.613901688947973 1
force W  -0.640464414785419  -0.191621163398433   0.794351537198509 1
force W   1.338235322606729   0.572763014702132  -0.535354331589554 1
force W   0.605815064513213   1.339745229968885   0.519339479142122 1
force W  -0.319755562477177  -0.015474156003662   0.180329009304649 1
force W  -0.361393193366840   0.004774573501274   0.349341971546550 1
force W   1.166169737977722  -0.251795884427894  -0.352529852996873 1
force W   0.305087281800984   1.370779641403169   0.780767248716043 1
force W   0.312631587827198  -0.122029167385689  -0.257174900090698 1
force W   0.252228640647176   0.383934469570684  -0.085649264335684 1
force W  -0.215835016120977  -0.826102720982939   0.329440866793466 1
force W  -0.882701451159383   0.843176468890239  -1.177560607637393 1
force W   0.340709353214883   0.395288004665210   0.163878011463303 1
force W   0.280533420201813   0.044699250874437   0.171310972869732 1
force W   0.093318290535244   0.831403731531063  -0.291730977152315 1
force W  -0.443337951026302   0.025799042027253  -0.335901582018531 1
force W   0.856620688468709  -0.348498771490934   0.498659240065864 1
force W  -0.319684572853823   0.265826175749308   1.213377250177111 1
force W  -1.762750125525984   0.386475260928007  -0.608726636982429 1
force W  -0.142198175150001  -0.201298864942284   0.438680046346671 1
force W  -0.175562207748300   0.167641424110726   0.475171809046059 1
force W  -0.897050290621042   0.250544464012804  -0.134056900596167 1
force W   1.067151323584489   0.479167722026434  -0.447267984657912 1
force W   0.300875959916067  -0.099764328325554   0.572139484885048 1
force W  -0.690600842750529  -0.391874614443852  -0.980856750948786 1
force W   0.223206236944217  -0.215119849490796  -0.134271340196137 1
force W  -0.872204984237553  -0.949202224320499  -0.523282226933648 1
force W  -0.627662126926255   0.272341061092715  -0.293485632293164 1
force W   0.931169068943956  -0.519754876657238   0.243089978319758 1
force W   0.013844048050327  -0.031992033416508   0.058983843749242 1
force W  -0.116365534663421   0.345762826257946  -0.387915291031726 1
force O   1.046257006914374  -0.480694111771477   1.231029437327917 1

# Energy components:
   Eewald =    -3243.1298293449322045
       EH =      434.3550340576777558
     Eloc =     -872.2094082537608983
      Enl =     -796.0609935197480809
      Exc =    -1113.2376888640387733
 Exc_core =      579.0142380053165425
       KE =     1280.7262449894058136
-------------------------------------
     Etot =    -3730.5424029300793336
       TS =        0.2770947516348305
-------------------------------------
        F =    -3730.8194976817139832

IonicMinimize: Iter:   2  F: -3730.819497681713983  |grad|_K:  3.662e-02  alpha:  2.971e-01  linmin: -9.906e-01  t[s]:  16685.87

#--- Lowdin population analysis ---
# oxidation-state W -0.052 +0.080 -0.021 +0.052 -0.001 +0.018 -0.001 +0.009 -0.006 +0.005 +0.022 -0.002 -0.017 +0.024 +0.026 +0.004 +0.002 +0.028 -0.014 +0.015 +0.038 -0.007 +0.017 +0.009 +0.004 +0.006 +0.044 -0.008 +0.027 -0.014 -0.003 +0.008 +0.010 +0.007 +0.015 +0.009 +0.013 +0.028 -0.003 +0.009 +0.021 +0.005 +0.024 -0.004 +0.008 +0.011 +0.024 +0.005 +0.029 +0.015 +0.012 +0.016 +0.020 +0.027
# oxidation-state O -0.036


-------- Electronic minimization -----------
Will mix electronic density at each iteration.
	FillingsUpdate:  mu: +0.845882301  nElectrons: 762.000000
	FillingsUpdate:  mu: +0.851210722  nElectrons: 762.000000
SCF: Cycle:  0   F: -3690.902346413990017   dF: +3.720e+01   |Residual|: 1.799e+00   |deigs|: 7.833e-03  t[s]:  17331.31
	FillingsUpdate:  mu: +0.844310075  nElectrons: 762.000000
SCF: Cycle:  1   F: -3709.551918221803135   dF: -1.865e+01   |Residual|: 1.406e+00   |deigs|: 2.111e-02  t[s]:  17805.63
	FillingsUpdate:  mu: +0.847953262  nElectrons: 762.000000
SCF: Cycle:  2   F: -3730.376984127719425   dF: -2.083e+01   |Residual|: 3.063e-01   |deigs|: 3.186e-02  t[s]:  18280.78
	FillingsUpdate:  mu: +0.846681204  nElectrons: 762.000000
SCF: Cycle:  3   F: -3730.900290154740105   dF: -5.233e-01   |Residual|: 1.167e-01   |deigs|: 2.885e-03  t[s]:  18755.23
	FillingsUpdate:  mu: +0.846559977  nElectrons: 762.000000
SCF: Cycle:  4   F: -3730.953100817838731   dF: -5.281e-02   |Residual|: 4.505e-02   |deigs|: 1.236e-03  t[s]:  19221.00
	FillingsUpdate:  mu: +0.846421826  nElectrons: 762.000000
SCF: Cycle:  5   F: -3730.956968118781333   dF: -3.867e-03   |Residual|: 1.980e-02   |deigs|: 4.435e-04  t[s]:  19501.50
	FillingsUpdate:  mu: +0.846392954  nElectrons: 762.000000
SCF: Cycle:  6   F: -3730.957712234298469   dF: -7.441e-04   |Residual|: 5.602e-03   |deigs|: 1.779e-04  t[s]:  19782.14
	FillingsUpdate:  mu: +0.846390516  nElectrons: 762.000000
SCF: Cycle:  7   F: -3730.957778391700685   dF: -6.616e-05   |Residual|: 1.998e-03   |deigs|: 2.842e-05  t[s]:  20062.74
	FillingsUpdate:  mu: +0.846393397  nElectrons: 762.000000
SCF: Cycle:  8   F: -3730.957792703080486   dF: -1.431e-05   |Residual|: 7.663e-04   |deigs|: 1.487e-05  t[s]:  20343.22
	FillingsUpdate:  mu: +0.846397849  nElectrons: 762.000000
SCF: Cycle:  9   F: -3730.957793865617987   dF: -1.163e-06   |Residual|: 2.418e-04   |deigs|: 8.858e-06  t[s]:  20623.43
	FillingsUpdate:  mu: +0.846397730  nElectrons: 762.000000
SCF: Cycle: 10   F: -3730.957794051713336   dF: -1.861e-07   |Residual|: 1.248e-04   |deigs|: 1.655e-06  t[s]:  20903.81
	FillingsUpdate:  mu: +0.846397261  nElectrons: 762.000000
SCF: Cycle: 11   F: -3730.957794097996612   dF: -4.628e-08   |Residual|: 4.844e-05   |deigs|: 1.167e-06  t[s]:  21184.42
	FillingsUpdate:  mu: +0.846397235  nElectrons: 762.000000
SCF: Cycle: 12   F: -3730.957794111052408   dF: -1.306e-08   |Residual|: 3.136e-05   |deigs|: 4.251e-07  t[s]:  21464.74
	FillingsUpdate:  mu: +0.846397224  nElectrons: 762.000000
SCF: Cycle: 13   F: -3730.957794117941376   dF: -6.889e-09   |Residual|: 2.296e-05   |deigs|: 3.274e-07  t[s]:  21745.02
	FillingsUpdate:  mu: +0.846397233  nElectrons: 762.000000
SCF: Cycle: 14   F: -3730.957794121067309   dF: -3.126e-09   |Residual|: 1.413e-05   |deigs|: 2.639e-07  t[s]:  22025.77
SCF: Converged (|Delta E|<1.000000e-08 for 2 iters).

Setting wave functions to eigenvectors of Hamiltonian

# Ionic positions in lattice coordinates:
ion W   0.000000000000000   0.000000000000000   0.000000000000000 0
ion W   0.159323329980208   0.160216691893226   0.148385852715340 1
ion W   0.005911616828242  -0.004678403945079   0.326095410884334 1
ion W   0.162964991262760   0.181224631727631   0.494279480760906 1
ion W   0.006239475955676   0.006427743706597   0.661455887443122 1
ion W   0.167771748767132   0.155486486453196   0.831404824965674 1
ion W   0.004139889758669   0.337250951619316  -0.000997078538945 1
ion W   0.168271836144957   0.507099819782264   0.163489921610752 1
ion W  -0.008893022405312   0.334006622448683   0.330523766669006 1
ion W   0.159677562553130   0.506811352616487   0.494222203338218 1
ion W  -0.005877014110561   0.338390872770657   0.681057503901776 1
ion W   0.177783562957115   0.523348331357320   0.842707644035017 1
ion W  -0.004329629736809   0.666473241287142   0.004830661434058 1
ion W   0.170150525942756   0.846817195283229   0.160502340906892 1
ion W   0.004884661680512   0.675227600746176   0.324326046366914 1
ion W   0.167961704994194   0.834541778153844   0.495542890579131 1
ion W   0.011013458486649   0.659363000883187   0.665048618446396 1
ion W   0.148590827669108   0.827815383107534   0.838895373047911 1
ion W   0.334738958291417  -0.006556963629708   0.003467973878385 1
ion W   0.509780812537324   0.170147196238595   0.167032293230087 1
ion W   0.336248334551273  -0.003432042632133   0.339907466882342 1
ion W   0.503220223721877   0.186424991280906   0.504556372826778 1
ion W   0.324890435055803   0.002336518755342   0.656925339360624 1
ion W   0.492301239250779   0.163064626455027   0.837551051646769 1
ion W   0.338743990114882   0.330636293287239  -0.011077258421687 1
ion W   0.489558793426199   0.496468905972268   0.172031017700084 1
ion W   0.338353590173237   0.349819328466251   0.327369467297938 1
ion W   0.507057497917654   0.508432013219900   0.497839604708853 1
ion W   0.332625270524987   0.338330521964257   0.658502935778012 1
ion W   0.494596520214614   0.500533127350892   0.841267127205721 1
ion W   0.334017182920312   0.659293987049852   0.001450115214588 1
ion W   0.498138309462696   0.834431004444071   0.175156457602338 1
ion W   0.332681985753867   0.667193109781137   0.337860920467112 1
ion W   0.504898877036665   0.847882093558387   0.497802717145387 1
ion W   0.350920953837668   0.660133914134316   0.677617165570392 1
ion W   0.494803966041795   0.831998435344409   0.831178897526736 1
ion W   0.660783124069372  -0.001538144181989  -0.005500722987858 1
ion W   0.832825222089973   0.156123169648493   0.166348118831830 1
ion W   0.671270478221205   0.003933321399301   0.334517597496199 1
ion W   0.827335032808102   0.174744897096946   0.495559882125001 1
ion W   0.672710923134408   0.003032589053648   0.653268611701205 1
ion W   0.856910660880021   0.160899856363897   0.840578787349816 1
ion W   0.671529618066702   0.334273376278993  -0.008071208279220 1
ion W   0.834971669269090   0.498322844795144   0.163200248209312 1
ion W   0.678391804707144   0.333880358375444   0.328928684691268 1
ion W   0.822066949646223   0.496998409919030   0.514650876718609 1
ion W   0.660881073390042   0.336088514623905   0.669059010128898 1
ion W   0.840734465908936   0.507971138995913   0.849124060617739 1
ion W   0.660022859071734   0.672442165069229   0.011070369612626 1
ion W   0.842847274213639   0.845183665443626   0.174100499547595 1
ion W   0.680452758057267   0.663647498331664   0.338114670135465 1
ion W   0.828271503629466   0.840855689672963   0.500026418749421 1
ion W   0.670691634138986   0.671055532671829   0.672527914416995 1
ion W   0.831167145663208   0.829357590130513   0.840684972446117 1
ion O   0.244952614205908   0.177364226583506   0.315628502757702 1

# Forces in Lattice coordinates:
force W  -0.161465210247160  -0.372855879266901  -0.242542685198331 0
force W  -0.614224817973541   0.468769726122110  -1.810302234794278 1
force W  -0.444964037702507   0.430615959668999   0.592094801614660 1
force W  -0.580746271947949  -0.238178917533163   1.781865906626258 1
force W  -0.437970636816031  -0.430370842691950  -0.024254499771214 1
force W   0.253442657181858   0.667526778682416  -0.178530231845018 1
force W   0.065905916044805  -0.062710991651998   0.097553188505532 1
force W  -0.190862775775327  -0.367259788800105   0.163668063962710 1
force W   0.151405451550736   0.349342756519119  -0.011124990208344 1
force W   0.230881063333583  -0.302313826194884   0.240461884899392 1
force W   0.462564322351275   0.016765822788174  -0.512969585324393 1
force W  -0.660322242574257  -1.544031985667476  -0.602565149858821 1
force W   0.176472952880134   0.349305326312605   0.109230615852387 1
force W   0.044494091572040  -0.887212587615336   0.311801463883533 1
force W  -0.221607239900131  -0.412872010788233   0.497595062146679 1
force W  -0.061844130272436  -0.051704845453869   0.334868553775630 1
force W  -0.685941165257695   0.644365236643210  -0.064092873331641 1
force W   0.988188163546703   0.431962798779195  -0.411224641556324 1
force W   0.054455421940488   0.225305442812046  -0.350636741495986 1
force W  -0.093977513986883  -0.101562131760306  -0.151971957032856 1
force W   0.432107996317518  -0.623886402933227  -0.340068291193630 1
force W  -0.026451825845226  -0.665521197636325  -0.231270057528084 1
force W   0.475119223186596  -0.111493757612043   0.411581099608693 1
force W   0.491709054195451   0.040077204860173  -0.489731578164361 1
force W  -0.435884048055646  -0.074185983879963   0.634644120588951 1
force W   1.058087909997432   0.467720936209067  -0.430080911803322 1
force W   0.449989138575536   0.982709622583439   0.394949617159217 1
force W  -0.232783202482031  -0.029833892550491   0.189474515410488 1
force W  -0.236600378448244   0.007163572595237   0.327621331196753 1
force W   0.822789223938991  -0.135548231246500  -0.307014898557885 1
force W   0.159798543634584   0.973850191318889   0.474033426322136 1
force W   0.281672611888458  -0.094923680230043  -0.251724831757342 1
force W   0.204631587140640   0.292345356270760  -0.086993296111036 1
force W  -0.130865350527323  -0.713199126252935   0.290375856953240 1
force W  -0.774606061217783   0.670577773732026  -0.878984371929036 1
force W   0.277903712023956   0.288175809760257   0.129606990339051 1
force W   0.267115694069359   0.052002497015017   0.161709132459205 1
force W   0.079364612729104   0.684065028061791  -0.205563705706989 1
force W  -0.317632261127513   0.010583615006089  -0.208685253827641 1
force W   0.646939208527352  -0.275666752893548   0.382511043453611 1
force W  -0.258498383359684   0.180990970308387   0.967522405168701 1
force W  -1.443170609065543   0.325750522960549  -0.507774587958350 1
force W  -0.126229953677940  -0.153204351341897   0.382873955045980 1
force W  -0.134003854470221   0.160068229948436   0.367059910676552 1
force W  -0.709619742946454   0.184759070494650  -0.024745896856438 1
force W   0.851089588717879   0.379561640092750  -0.434958647181848 1
force W   0.286040842529958  -0.072853864954892   0.386945151444693 1
force W  -0.539780844163505  -0.311687824673712  -0.771929795254906 1
force W   0.233943910682646  -0.192062265168663  -0.186857712706675 1
force W  -0.686186906441045  -0.737606596054144  -0.397127425554255 1
force W  -0.547172534524124   0.256339158914658  -0.206996659346075 1
force W   0.701544651770198  -0.401286034636759   0.180873639382292 1
force W  -0.002417075734008  -0.045433962181497   0.023665484255606 1
force W  -0.061066796725183   0.287712812839639  -0.337730981485507 1
force O   0.660723790386352  -0.420141220188848   0.824285258242086 1

# Energy components:
   Eewald =    -3249.0118524471181445
       EH =      428.7038722824178762
     Eloc =     -860.3480963942322433
      Enl =     -795.9821787554928960
      Exc =    -1113.0398690393662946
 Exc_core =      579.0140527465118794
       KE =     1279.9761455845250566
-------------------------------------
     Etot =    -3730.6879260227547093
       TS =        0.2698680983128051
-------------------------------------
        F =    -3730.9577941210673089

IonicMinimize: Iter:   3  F: -3730.957794121067309  |grad|_K:  2.787e-02  alpha:  2.653e-01  linmin: -9.824e-01  t[s]:  22123.00

#--- Lowdin population analysis ---
# oxidation-state W -0.045 +0.077 -0.014 +0.056 -0.001 +0.020 -0.002 +0.007 -0.003 +0.005 +0.016 +0.000 -0.012 +0.018 +0.024 +0.002 +0.002 +0.026 -0.010 +0.014 +0.047 -0.006 +0.015 +0.009 +0.003 +0.003 +0.052 -0.008 +0.023 -0.008 -0.001 +0.004 +0.014 +0.004 +0.014 +0.008 +0.013 +0.027 +0.000 +0.010 +0.020 +0.005 +0.021 -0.003 +0.009 +0.012 +0.022 +0.009 +0.027 +0.014 +0.011 +0.015 +0.019 +0.027
# oxidation-state O -0.065


-------- Electronic minimization -----------
Will mix electronic density at each iteration.
	FillingsUpdate:  mu: +0.846397233  nElectrons: 762.000000
	FillingsUpdate:  mu: +0.850620582  nElectrons: 762.000000
SCF: Cycle:  0   F: -3687.456902513566092   dF: +4.081e+01   |Residual|: 1.772e+00   |deigs|: 7.334e-03  t[s]:  22768.04
	FillingsUpdate:  mu: +0.843549103  nElectrons: 762.000000
SCF: Cycle:  1   F: -3705.496604592593485   dF: -1.804e+01   |Residual|: 1.432e+00   |deigs|: 2.021e-02  t[s]:  23242.41
	FillingsUpdate:  mu: +0.848561932  nElectrons: 762.000000
SCF: Cycle:  2   F: -3730.501324494484834   dF: -2.500e+01   |Residual|: 3.123e-01   |deigs|: 3.302e-02  t[s]:  23716.92
	FillingsUpdate:  mu: +0.847242565  nElectrons: 762.000000
SCF: Cycle:  3   F: -3730.976508181534427   dF: -4.752e-01   |Residual|: 1.209e-01   |deigs|: 3.075e-03  t[s]:  24190.90
	FillingsUpdate:  mu: +0.847085234  nElectrons: 762.000000
SCF: Cycle:  4   F: -3731.055994795937750   dF: -7.949e-02   |Residual|: 4.781e-02   |deigs|: 1.246e-03  t[s]:  24627.92
	FillingsUpdate:  mu: +0.846925064  nElectrons: 762.000000
SCF: Cycle:  5   F: -3731.061270001273897   dF: -5.275e-03   |Residual|: 1.942e-02   |deigs|: 4.895e-04  t[s]:  24908.28
	FillingsUpdate:  mu: +0.846891693  nElectrons: 762.000000
SCF: Cycle:  6   F: -3731.061734929921840   dF: -4.649e-04   |Residual|: 6.178e-03   |deigs|: 1.795e-04  t[s]:  25188.72
	FillingsUpdate:  mu: +0.846886196  nElectrons: 762.000000
SCF: Cycle:  7   F: -3731.061817220930152   dF: -8.229e-05   |Residual|: 2.345e-03   |deigs|: 2.126e-05  t[s]:  25469.04
	FillingsUpdate:  mu: +0.846889976  nElectrons: 762.000000
SCF: Cycle:  8   F: -3731.061837798238230   dF: -2.058e-05   |Residual|: 8.368e-04   |deigs|: 1.523e-05  t[s]:  25749.48
	FillingsUpdate:  mu: +0.846894875  nElectrons: 762.000000
SCF: Cycle:  9   F: -3731.061838779743539   dF: -9.815e-07   |Residual|: 3.177e-04   |deigs|: 9.278e-06  t[s]:  26029.88
	FillingsUpdate:  mu: +0.846895066  nElectrons: 762.000000
SCF: Cycle: 10   F: -3731.061839168227834   dF: -3.885e-07   |Residual|: 1.491e-04   |deigs|: 1.712e-06  t[s]:  26310.20
	FillingsUpdate:  mu: +0.846894464  nElectrons: 762.000000
SCF: Cycle: 11   F: -3731.061839231818340   dF: -6.359e-08   |Residual|: 5.367e-05   |deigs|: 1.369e-06  t[s]:  26590.54
	FillingsUpdate:  mu: +0.846894449  nElectrons: 762.000000
SCF: Cycle: 12   F: -3731.061839251083711   dF: -1.927e-08   |Residual|: 3.433e-05   |deigs|: 4.293e-07  t[s]:  26870.53
	FillingsUpdate:  mu: +0.846894423  nElectrons: 762.000000
SCF: Cycle: 13   F: -3731.061839261077239   dF: -9.994e-09   |Residual|: 2.647e-05   |deigs|: 3.056e-07  t[s]:  27150.65
	FillingsUpdate:  mu: +0.846894444  nElectrons: 762.000000
SCF: Cycle: 14   F: -3731.061839265962135   dF: -4.885e-09   |Residual|: 1.659e-05   |deigs|: 2.436e-07  t[s]:  27430.67
SCF: Converged (|Delta E|<1.000000e-08 for 2 iters).

Setting wave functions to eigenvectors of Hamiltonian

# Ionic positions in lattice coordinates:
ion W   0.000000000000000   0.000000000000000   0.000000000000000 0
ion W   0.159336248645977   0.162333018865147   0.146101560283115 1
ion W   0.004118551417453  -0.003372794466478   0.327615745278583 1
ion W   0.162097461765314   0.179967100117568   0.498558423796746 1
ion W   0.004558269485839   0.004895963815351   0.662041118790474 1
ion W   0.168151743235911   0.158048512936219   0.830539370758406 1
ion W   0.003652378243578   0.337264339704177  -0.001201171270184 1
ion W   0.167872417112055   0.505931422984206   0.164040586132617 1
ion W  -0.008193202377398   0.335123916617850   0.330727825879053 1
ion W   0.160647173989161   0.506010282138146   0.495436134140162 1
ion W  -0.004342341516203   0.338412262524139   0.679091727839765 1
ion W   0.176189171259439   0.518435745505167   0.840911628475887 1
ion W  -0.003585130695258   0.667381178643895   0.004435149889390 1
ion W   0.170054267015702   0.844096470932647   0.161880359241795 1
ion W   0.003974074235810   0.673775541093936   0.326328813835358 1
ion W   0.167821703888505   0.834483061789083   0.496693679827666 1
ion W   0.008603626118270   0.661735847494851   0.665265727836351 1
ion W   0.152507652999672   0.829139045539268   0.837304575181255 1
ion W   0.334768342166864  -0.005700498920598   0.002288672738606 1
ion W   0.509125289601726   0.169723699669369   0.166422776511231 1
ion W   0.337279349417256  -0.005307769928811   0.338637421536968 1
ion W   0.503397703258641   0.183887965905695   0.503898237854276 1
ion W   0.326740005007237   0.001965851999263   0.658522480746428 1
ion W   0.494142152064524   0.163526540271627   0.835883825262308 1
ion W   0.337811786078076   0.330969120840601  -0.008956330856412 1
ion W   0.493161034655516   0.498192132732341   0.170462864939983 1
ion W   0.339120741618558   0.351794817007960   0.328641908137650 1
ion W   0.506447694019223   0.508225930675306   0.498816409319842 1
ion W   0.332170475036893   0.338388114644328   0.659967739087541 1
ion W   0.496510761747976   0.500593274975312   0.840063201578243 1
ion W   0.333806855475780   0.661598672521518   0.001800361760859 1
ion W   0.499317766935899   0.834122041500436   0.173994893368136 1
ion W   0.333392467491441   0.668132774839992   0.337450728034002 1
ion W   0.504760954387590   0.845083450646235   0.498995943499728 1
ion W   0.347836473900158   0.662354890440506   0.675159283741278 1
ion W   0.495766575909331   0.832766011869972   0.831597233902230 1
ion W   0.661987582713463  -0.001249209659085  -0.004781884373455 1
ion W   0.833115329993925   0.158564152192520   0.165849121509131 1
ion W   0.670469018948543   0.003899242179539   0.334248364559266 1
ion W   0.829227537214568   0.173840091492239   0.496722358771318 1
ion W   0.671831613619632   0.003426702559543   0.656516481406768 1
ion W   0.851773190424408   0.162125874460679   0.838692844594549 1
ion W   0.671025358840142   0.333796104178746  -0.006549607216606 1
ion W   0.834549278751929   0.499047876795778   0.164341563015727 1
ion W   0.676060822771077   0.334374128836866   0.329436762548231 1
ion W   0.824935875192772   0.498249750490559   0.512650661280908 1
ion W   0.662161817902150   0.335874094128646   0.669878986900535 1
ion W   0.838999031998355   0.506937368373154   0.846639194753020 1
ion W   0.661206199336072   0.671644716697284   0.009897957540765 1
ion W   0.840612063762035   0.842858229204361   0.172941728060081 1
ion W   0.678283233265272   0.664792821280282   0.337605570306716 1
ion W   0.830339707116006   0.839615436642461   0.500553783111514 1
ion W   0.670600618277219   0.670766109950419   0.672451927488401 1
ion W   0.831171220245777   0.830399508677041   0.839343968018908 1
ion O   0.245602997288034   0.176170868072235   0.317603263277241 1

# Forces in Lattice coordinates:
force W  -0.175162670311412  -0.305617368129098  -0.279114275681955 0
force W  -0.375672207152422   0.371018276827174  -1.207863178924867 1
force W  -0.361377025693833   0.317176899098369   0.430662504796447 1
force W  -0.391128270912312  -0.237299163635063   1.327349169570988 1
force W  -0.339097576945863  -0.327406242726856   0.054288307363166 1
force W   0.151634757568013   0.535946515086037  -0.130175841838933 1
force W  -0.015381862989385  -0.035667613760723   0.033880787490923 1
force W  -0.134962198302931  -0.267762077539707   0.124248811239538 1
force W   0.135633411563580   0.262224165214264   0.017595123826312 1
force W   0.204720705901933  -0.206033646456623   0.226993616857205 1
force W   0.327330834889574   0.011175061436456  -0.422121454202087 1
force W  -0.511831796552090  -1.166014675888363  -0.473188670332263 1
force W   0.155475586577469   0.243701162232852   0.030714101253516 1
force W   0.001110856049630  -0.653001697015563   0.249941167249764 1
force W  -0.179996937968266  -0.320446859199187   0.401199720551636 1
force W  -0.041694501532749  -0.019762117825474   0.254533954522936 1
force W  -0.521470076137461   0.490236645796137  -0.003273957896248 1
force W   0.798229696211951   0.333564617378318  -0.320079876870026 1
force W   0.035042402874317   0.192406550145864  -0.264646714139209 1
force W  -0.102503947159804  -0.084159157405666  -0.121375043095774 1
force W   0.326024148567150  -0.499563006618513  -0.256492338994617 1
force W   0.000427937742040  -0.550217640995018  -0.166314094529302 1
force W   0.384282087626557  -0.076282763296267   0.330357266105717 1
force W   0.388585235485819   0.066252781611646  -0.356063375555591 1
force W  -0.287030571776862  -0.007628110669844   0.482191844091397 1
force W   0.796515338619937   0.367967597230686  -0.323894390137053 1
force W   0.310607995204704   0.645976951197081   0.295002036714962 1
force W  -0.167478404678327  -0.039396865755753   0.175902079094519 1
force W  -0.124822614927348   0.000218576049032   0.275536012647804 1
force W   0.581876970629390  -0.072521814615050  -0.255138361343925 1
force W   0.102365285778669   0.690794085143262   0.301755275842128 1
force W   0.229033003251970  -0.071618979688967  -0.233208517466579 1
force W   0.153871404959364   0.209529761480036  -0.082884602127332 1
force W  -0.081540389515567  -0.570897247663885   0.228653820998658 1
force W  -0.642209120611948   0.510388376555729  -0.647523418540940 1
force W   0.223106331693240   0.203699261215428   0.105757738708130 1
force W   0.229787047781580   0.053677370194289   0.145195899988173 1
force W   0.064699472508459   0.538525785185449  -0.132025973907683 1
force W  -0.227141328153426   0.002811388227444  -0.127355443847571 1
force W   0.469577028421198  -0.213792257870754   0.282665830267628 1
force W  -0.207046199954941   0.107741564531960   0.733616339698242 1
force W  -1.117925813506119   0.260838687719711  -0.387951956992234 1
force W  -0.113161378861412  -0.100043513806932   0.311519926702336 1
force W  -0.094243844382788   0.142787773928842   0.272536312215329 1
force W  -0.534402246852903   0.135496581906568   0.033314672070161 1
force W   0.644891313832909   0.293030522776089  -0.392936278587397 1
force W   0.251895036818182  -0.041731588047110   0.238659784537106 1
force W  -0.406939072167945  -0.238043582525056  -0.601382415196245 1
force W   0.218985353271977  -0.154116647519152  -0.211580692628695 1
force W  -0.510642850877738  -0.553658571252233  -0.302985416534281 1
force W  -0.448162909199892   0.217863277592654  -0.143032624804733 1
force W   0.500066226642450  -0.299281048431899   0.124865655039319 1
force W  -0.017621499727625  -0.049309192836794  -0.005118778934586 1
force W  -0.015418349678995   0.227526849874694  -0.272560335696214 1
force O   0.457606704402861  -0.271604933117828   0.632467801898299 1

# Energy components:
   Eewald =    -3253.3679676891397321
       EH =      424.4977131254145775
     Eloc =     -851.5331983851324367
      Enl =     -795.9237829544579199
      Exc =    -1112.8916829534136923
 Exc_core =      579.0139202274242507
       KE =     1279.4069195730078263
-------------------------------------
     Etot =    -3730.7980790562969560
       TS =        0.2637602096653565
-------------------------------------
        F =    -3731.0618392659621350

IonicMinimize: Iter:   4  F: -3731.061839265962135  |grad|_K:  2.092e-02  alpha:  2.531e-01  linmin: -9.656e-01  t[s]:  27527.80

#--- Lowdin population analysis ---
# oxidation-state W -0.036 +0.075 -0.008 +0.059 -0.002 +0.022 -0.003 +0.005 -0.000 +0.005 +0.010 +0.002 -0.006 +0.013 +0.022 +0.002 +0.004 +0.022 -0.007 +0.013 +0.054 -0.004 +0.013 +0.009 +0.002 +0.001 +0.057 -0.007 +0.019 -0.003 +0.001 +0.001 +0.018 +0.002 +0.013 +0.008 +0.013 +0.024 +0.004 +0.011 +0.018 +0.006 +0.018 -0.001 +0.011 +0.013 +0.019 +0.011 +0.023 +0.013 +0.010 +0.014 +0.017 +0.025
# oxidation-state O -0.085


-------- Electronic minimization -----------
Will mix electronic density at each iteration.
	FillingsUpdate:  mu: +0.846894444  nElectrons: 762.000000
	FillingsUpdate:  mu: +0.850144878  nElectrons: 762.000000
SCF: Cycle:  0   F: -3686.180319205264368   dF: +4.219e+01   |Residual|: 1.744e+00   |deigs|: 6.914e-03  t[s]:  28172.43
	FillingsUpdate:  mu: +0.843066932  nElectrons: 762.000000
SCF: Cycle:  1   F: -3703.500147132356233   dF: -1.732e+01   |Residual|: 1.430e+00   |deigs|: 1.935e-02  t[s]:  28646.39
	FillingsUpdate:  mu: +0.848998740  nElectrons: 762.000000
SCF: Cycle:  2   F: -3730.616309676980563   dF: -2.712e+01   |Residual|: 3.150e-01   |deigs|: 3.333e-02  t[s]:  29120.59
	FillingsUpdate:  mu: +0.847693606  nElectrons: 762.000000
SCF: Cycle:  3   F: -3731.033195043660271   dF: -4.169e-01   |Residual|: 1.235e-01   |deigs|: 3.088e-03  t[s]:  29594.48
	FillingsUpdate:  mu: +0.847510232  nElectrons: 762.000000
SCF: Cycle:  4   F: -3731.131431364320633   dF: -9.824e-02   |Residual|: 4.863e-02   |deigs|: 1.261e-03  t[s]:  30031.07
	FillingsUpdate:  mu: +0.847338772  nElectrons: 762.000000
SCF: Cycle:  5   F: -3731.137181826890355   dF: -5.750e-03   |Residual|: 1.908e-02   |deigs|: 4.911e-04  t[s]:  30311.19
	FillingsUpdate:  mu: +0.847305534  nElectrons: 762.000000
SCF: Cycle:  6   F: -3731.137547326734875   dF: -3.655e-04   |Residual|: 6.740e-03   |deigs|: 1.685e-04  t[s]:  30591.46
	FillingsUpdate:  mu: +0.847298013  nElectrons: 762.000000
SCF: Cycle:  7   F: -3731.137646632212636   dF: -9.931e-05   |Residual|: 2.615e-03   |deigs|: 2.227e-05  t[s]:  30871.73
	FillingsUpdate:  mu: +0.847301919  nElectrons: 762.000000
SCF: Cycle:  8   F: -3731.137670198145315   dF: -2.357e-05   |Residual|: 8.667e-04   |deigs|: 1.569e-05  t[s]:  31151.72
	FillingsUpdate:  mu: +0.847307182  nElectrons: 762.000000
SCF: Cycle:  9   F: -3731.137670934985636   dF: -7.368e-07   |Residual|: 3.400e-04   |deigs|: 9.927e-06  t[s]:  31431.58
	FillingsUpdate:  mu: +0.847307447  nElectrons: 762.000000
SCF: Cycle: 10   F: -3731.137671435192715   dF: -5.002e-07   |Residual|: 1.521e-04   |deigs|: 2.091e-06  t[s]:  31711.67
	FillingsUpdate:  mu: +0.847306812  nElectrons: 762.000000
SCF: Cycle: 11   F: -3731.137671507080995   dF: -7.189e-08   |Residual|: 5.507e-05   |deigs|: 1.396e-06  t[s]:  31991.51
	FillingsUpdate:  mu: +0.847306789  nElectrons: 762.000000
SCF: Cycle: 12   F: -3731.137671527417297   dF: -2.034e-08   |Residual|: 3.587e-05   |deigs|: 3.649e-07  t[s]:  32271.75
	FillingsUpdate:  mu: +0.847306751  nElectrons: 762.000000
SCF: Cycle: 13   F: -3731.137671539114308   dF: -1.170e-08   |Residual|: 2.731e-05   |deigs|: 2.486e-07  t[s]:  32551.86
	FillingsUpdate:  mu: +0.847306778  nElectrons: 762.000000
SCF: Cycle: 14   F: -3731.137671544154273   dF: -5.040e-09   |Residual|: 1.405e-05   |deigs|: 1.852e-07  t[s]:  32832.09
	FillingsUpdate:  mu: +0.847306810  nElectrons: 762.000000
SCF: Cycle: 15   F: -3731.137671546430283   dF: -2.276e-09   |Residual|: 3.788e-06   |deigs|: 1.752e-07  t[s]:  33112.03
SCF: Converged (|Delta E|<1.000000e-08 for 2 iters).

Setting wave functions to eigenvectors of Hamiltonian

# Ionic positions in lattice coordinates:
ion W   0.000000000000000   0.000000000000000   0.000000000000000 0
ion W   0.159756733719699   0.164332877542853   0.144630786698586 1
ion W   0.002162457317530  -0.002219172382900   0.328945579192975 1
ion W   0.161629139278518   0.178145005880325   0.502792717208439 1
ion W   0.002912099449803   0.003437399758001   0.663365299840954 1
ion W   0.168107764281139   0.160803423619978   0.829833232579187 1
ion W   0.002519039640642   0.337378530170153  -0.001785882904173 1
ion W   0.167561794401158   0.504934041061161   0.164572482892633 1
ion W  -0.007319640582731   0.336183271903925   0.331198336370883 1
ion W   0.161904098660186   0.505489613830073   0.497069029851473 1
ion W  -0.003161154214146   0.338419424965682   0.676848343999053 1
ion W   0.174366942012421   0.513725418633042   0.838921053113928 1
ion W  -0.002635506362863   0.668041304302998   0.003568062008245 1
ion W   0.169605582255149   0.841691577929860   0.163295884266918 1
ion W   0.002987513886346   0.672307705497977   0.328472921753063 1
ion W   0.167737742804464   0.834644338266577   0.497799058492408 1
ion W   0.006305383016409   0.663980282812329   0.665949549088057 1
ion W   0.156736958741590   0.830509823231714   0.835721598106165 1
ion W   0.334748524843989  -0.004631287821356   0.001181552227731 1
ion W   0.508178713569378   0.169246039853561   0.165784577436634 1
ion W   0.338342353185461  -0.007477926150574   0.337470818666011 1
ion W   0.503762399433347   0.180954824986617   0.503353566922088 1
ion W   0.328752911448164   0.001713395184017   0.660232243278680 1
ion W   0.496061236968213   0.164346725542657   0.834483853576312 1
ion W   0.337349738190586   0.331766934733641  -0.006908707460093 1
ion W   0.496506828708766   0.499961519771174   0.169034212185447 1
ion W   0.339704852208270   0.352823882962254   0.329806501811255 1
ion W   0.505939987317026   0.507840168286541   0.500079351578441 1
ion W   0.332344914675178   0.338372146349881   0.661630442123885 1
ion W   0.498007509711706   0.500913608511106   0.838667844064664 1
ion W   0.333549959590775   0.663429485012438   0.001703793009717 1
ion W   0.500591396130672   0.833830055279429   0.172422483657908 1
ion W   0.334052085770641   0.668881825853890   0.336870998639275 1
ion W   0.504787146596834   0.842115650390085   0.500197350046906 1
ion W   0.344300774208814   0.664513784552696   0.672932476811834 1
ion W   0.496836773733183   0.833358378525858   0.832093931106898 1
ion W   0.663415391649534  -0.000819640497720  -0.003849924455911 1
ion W   0.833448968814697   0.161117060653613   0.165626612418128 1
ion W   0.669817566092498   0.003815388814502   0.334284328206522 1
[...]
	FillingsUpdate:  mu: +0.847727006  nElectrons: 762.000000
SCF: Cycle:  4   F: -3731.228556308370116   dF: -3.150e-07   |Residual|: 1.226e-04   |deigs|: 1.453e-06  t[s]:  93511.47
	FillingsUpdate:  mu: +0.847727036  nElectrons: 762.000000
SCF: Cycle:  5   F: -3731.228556328439481   dF: -2.007e-08   |Residual|: 3.029e-05   |deigs|: 4.159e-07  t[s]:  93789.74
	FillingsUpdate:  mu: +0.847727035  nElectrons: 762.000000
SCF: Cycle:  6   F: -3731.228556331450818   dF: -3.011e-09   |Residual|: 1.492e-05   |deigs|: 1.326e-07  t[s]:  94068.57
	FillingsUpdate:  mu: +0.847727034  nElectrons: 762.000000
SCF: Cycle:  7   F: -3731.228556331695927   dF: -2.451e-10   |Residual|: 4.547e-06   |deigs|: 5.269e-08  t[s]:  94347.64
SCF: Converged (|Delta E|<1.000000e-08 for 2 iters).

Setting wave functions to eigenvectors of Hamiltonian

# Ionic positions in lattice coordinates:
ion W   0.000000000000000   0.000000000000000   0.000000000000000 0
ion W   0.162379962881809   0.168441149688691   0.152227910571582 1
ion W  -0.001438545955517   0.000007797478669   0.336371336733111 1
ion W   0.162085659636173   0.168717944224683   0.520722219022241 1
ion W  -0.000444057304074   0.000094222277769   0.672404376687858 1
ion W   0.168892935037418   0.168640465631721   0.836371127780700 1
ion W  -0.000314182883201   0.337056196276990   0.000522328919287 1
ion W   0.168202394485678   0.502219146226312   0.168667313102554 1
ion W  -0.001463980661966   0.337326252710464   0.336511631227393 1
ion W   0.168118779601260   0.502352574850246   0.504429777201826 1
ion W  -0.000459032579653   0.337245287677360   0.672570138458816 1
ion W   0.169218165455217   0.502106905049735   0.836532326750071 1
ion W   0.002159604523663   0.668524190030426   0.002938480525021 1
ion W   0.168228450917611   0.834907196637413   0.168530536331477 1
ion W   0.002848239501901   0.668658755445181   0.336567502193359 1
ion W   0.168132463575766   0.835038886594480   0.504381648588396 1
ion W   0.002067544088003   0.668664051164764   0.670148056074130 1
ion W   0.169332817916715   0.835010775143242   0.836415774253461 1
ion W   0.336807183524539   0.000773507441049   0.002827636424224 1
ion W   0.506794477558026   0.168556168024227   0.167757052832844 1
ion W   0.343034156689310  -0.018010292372373   0.336273716776506 1
ion W   0.506733640991166   0.168614896566708   0.505125749033231 1
ion W   0.336691184069824   0.000865122559012   0.669923949759197 1
ion W   0.502006505767271   0.168543368749493   0.836467300587566 1
ion W   0.336716815616233   0.336283658347505   0.002958474134625 1
ion W   0.505602872970654   0.504771699619096   0.167761202739714 1
ion W   0.343037853659292   0.355288513000641   0.336563295984891 1
ion W   0.505541719909771   0.504905929073539   0.505338813274689 1
ion W   0.336630157556945   0.336354689651635   0.670014289978672 1
ion W   0.502792798322699   0.502031141235076   0.836558520554640 1
ion W   0.335735793460094   0.668552750286073   0.002788728269800 1
ion W   0.505668097221956   0.832295814925306   0.167618556833098 1
ion W   0.336104164892419   0.668610119802791   0.336549196306735 1
ion W   0.505565477585260   0.832411183971220   0.505269458506429 1
ion W   0.335642792529684   0.668638385155769   0.670236744204523 1
ion W   0.502836923458051   0.835089489089015   0.836468516814920 1
ion W   0.669128983689385   0.001818903533949   0.002714628556296 1
ion W   0.835689495796405   0.168551028611007   0.169712748902005 1
ion W   0.669468010969547   0.001744607622478   0.336450883664715 1
ion W   0.835507397253502   0.168681599628203   0.503241017158759 1
ion W   0.669023960918514   0.001888551118432   0.670251017790512 1
ion W   0.834142466478864   0.168604175423595   0.836496583323404 1
ion W   0.669053100761359   0.335264215977322   0.002803183808098 1
ion W   0.836039425315537   0.502256703480793   0.169759352330337 1
ion W   0.669440853936602   0.335455366393631   0.336517217232883 1
ion W   0.835968846690351   0.502384581132336   0.503419175756777 1
ion W   0.668984661042557   0.335322607209230   0.670278228377038 1
ion W   0.834776150115618   0.502964944109027   0.836559265331383 1
ion W   0.670434734172504   0.668524537761556   0.001986279768530 1
ion W   0.836117893871990   0.834925800842521   0.169620448671571 1
ion W   0.671012633595849   0.668626144535048   0.336568596371414 1
ion W   0.835964994695535   0.834975795929147   0.503358852057800 1
ion W   0.670382288422940   0.668643846872705   0.671132773748855 1
ion W   0.834776561944382   0.834166317290635   0.836496515408554 1
ion O   0.256331439225705   0.168641820611650   0.336558986686243 1

# Forces in Lattice coordinates:
force W  -0.015922116555927   0.002607612708709   0.025014554932885 0
force W  -0.006100266707309   0.003255495542093  -0.011274394038390 1
force W  -0.000437079840178   0.000393517530882   0.001816952069573 1
force W  -0.001699300066110  -0.002539105160513   0.010907380540067 1
force W   0.004259176428799   0.000593989251375   0.001127941720937 1
force W  -0.000321789793399  -0.001440220965845   0.001819705566924 1
force W   0.001013496677778   0.000581336716105   0.001559878840163 1
force W   0.000355078437980   0.000916211214381  -0.001556062009459 1
force W   0.000365059765450  -0.005339745724051   0.001083832660187 1
force W   0.001536969889919  -0.001886466613751   0.002693743628419 1
force W   0.003513002675784  -0.004185823920226  -0.001815246505185 1
force W   0.000953921302509   0.002443965537188   0.000886346880740 1
force W   0.002437482205991   0.001461146576755  -0.000175790691592 1
force W   0.000365133256538  -0.001863635756974   0.001333594669509 1
force W   0.000252631223458  -0.000582112630224  -0.001378788068414 1
force W   0.002139879338200  -0.002511360948233   0.000268188530794 1
force W   0.004674108879683  -0.002090506952287   0.000714503289957 1
force W  -0.002286759161704  -0.001452829932712   0.000975231301989 1
force W  -0.001028932207119   0.003216652454173   0.003359069186157 1
force W   0.001488627271235  -0.000233450340819  -0.000335512845782 1
force W  -0.000573847020408   0.000028152493745   0.005674991957329 1
force W   0.001184389960196  -0.000642201575183   0.005191950294357 1
force W   0.000347960323445   0.002231113489203   0.000897832285387 1
force W  -0.000411403225992   0.001798257236871   0.000594108321801 1
force W  -0.000101975172415  -0.001100717068505   0.001946660595280 1
force W   0.002144730987572   0.005519326298247  -0.001470057715393 1
force W  -0.002132899917350  -0.002579228325576  -0.001234595898819 1
force W   0.003434090852821   0.000888692477582   0.003765602964930 1
force W   0.002898755509291  -0.000665966408458   0.000756336417643 1
force W   0.000417876940723   0.001364938224636  -0.001212316622846 1
force W  -0.000677677950640  -0.001250994670892   0.003288100588172 1
force W   0.000057589465165  -0.001650438122645   0.003298921845593 1
force W   0.001628950742878   0.001420200082155  -0.000866783899014 1
force W   0.001208149348058  -0.002568896995567   0.001815027200854 1
force W   0.002295588972192  -0.002504314797903  -0.001153924286958 1
force W   0.000051147585653  -0.001519369416026   0.000872347110059 1
force W   0.000895238680523   0.001363067100255   0.003034123576915 1
force W  -0.001832020144878  -0.000419358043616   0.001089346500705 1
force W   0.002504242659422   0.002757894547677   0.001621900934155 1
force W   0.001010718812012  -0.002530585607530  -0.000410324696662 1
force W  -0.000837355810376   0.000453520075222  -0.001288100480140 1
force W   0.001444992543624  -0.000935822916971   0.000695820041987 1
force W   0.000545831263867   0.000025507597295   0.001012663009521 1
force W  -0.003000140602308   0.002203290529665  -0.002057668665192 1
force W   0.002543279709794  -0.003141770715540   0.001249899461189 1
force W  -0.003135754011519  -0.001768664392209  -0.000423740509446 1
force W  -0.000375737116613   0.000443131956085  -0.000166572002578 1
force W  -0.000153398979766  -0.002428524706923   0.002213093282135 1
force W  -0.001835607139051   0.000855328686381   0.005460662494573 1
force W  -0.003234350838062  -0.001497031339055   0.000059794372118 1
force W  -0.000530739144323  -0.000656698873767  -0.001631364612060 1
force W  -0.001490908755439  -0.002300244381113  -0.000442726378458 1
force W  -0.003975557236412  -0.002902879484586  -0.005324501554792 1
force W   0.002660546060246   0.003634235542751   0.001484984230824 1
force O  -0.012158924660366   0.000766906708063   0.001442618598970 1

# Energy components:
   Eewald =    -3260.0758357837698895
       EH =      418.0836150432167528
     Eloc =     -837.9976793600112615
      Enl =     -795.8523324298270154
      Exc =    -1112.6574063150992515
 Exc_core =      579.0136116572941773
       KE =     1278.5122910325358134
-------------------------------------
     Etot =    -3730.9737361556603901
       TS =        0.2548201760354887
-------------------------------------
        F =    -3731.2285563316959269

IonicMinimize: Iter:  20  F: -3731.228556331695927  |grad|_K:  1.479e-04  alpha:  1.000e+00  linmin: -5.120e-02  t[s]:  94444.49

#--- Lowdin population analysis ---
# oxidation-state W -0.007 +0.072 +0.005 +0.072 -0.007 +0.028 -0.007 +0.003 +0.005 +0.003 -0.007 +0.008 +0.011 +0.003 +0.010 +0.003 +0.011 +0.008 +0.003 +0.009 +0.069 +0.009 +0.003 +0.011 +0.003 -0.007 +0.069 -0.007 +0.003 +0.011 +0.008 -0.007 +0.030 -0.007 +0.008 +0.011 +0.012 +0.016 +0.015 +0.016 +0.012 +0.006 +0.012 +0.012 +0.015 +0.012 +0.012 +0.013 +0.014 +0.012 +0.007 +0.012 +0.013 +0.013
# oxidation-state O -0.134


-------- Electronic minimization -----------
Will mix electronic density at each iteration.
	FillingsUpdate:  mu: +0.847727034  nElectrons: 762.000000
	FillingsUpdate:  mu: +0.847724882  nElectrons: 762.000000
SCF: Cycle:  0   F: -3731.228516460946139   dF: +1.754e-05   |Residual|: 2.341e-03   |deigs|: 3.739e-07  t[s]:  94908.62
	FillingsUpdate:  mu: +0.847723450  nElectrons: 762.000000
SCF: Cycle:  1   F: -3731.228550431001167   dF: -3.397e-05   |Residual|: 1.843e-03   |deigs|: 3.227e-05  t[s]:  95187.23
	FillingsUpdate:  mu: +0.847724530  nElectrons: 762.000000
SCF: Cycle:  2   F: -3731.228570727756050   dF: -2.030e-05   |Residual|: 4.158e-04   |deigs|: 1.401e-05  t[s]:  95465.49
	FillingsUpdate:  mu: +0.847724408  nElectrons: 762.000000
SCF: Cycle:  3   F: -3731.228571248729168   dF: -5.210e-07   |Residual|: 1.752e-04   |deigs|: 1.664e-06  t[s]:  95744.30
	FillingsUpdate:  mu: +0.847724499  nElectrons: 762.000000
SCF: Cycle:  4   F: -3731.228571342113355   dF: -9.338e-08   |Residual|: 7.535e-05   |deigs|: 1.174e-06  t[s]:  96023.08
	FillingsUpdate:  mu: +0.847724499  nElectrons: 762.000000
SCF: Cycle:  5   F: -3731.228571347535308   dF: -5.422e-09   |Residual|: 2.865e-05   |deigs|: 2.885e-07  t[s]:  96301.84
	FillingsUpdate:  mu: +0.847724491  nElectrons: 762.000000
SCF: Cycle:  6   F: -3731.228571349387948   dF: -1.853e-09   |Residual|: 8.785e-06   |deigs|: 1.645e-07  t[s]:  96580.61
SCF: Converged (|Delta E|<1.000000e-08 for 2 iters).

Setting wave functions to eigenvectors of Hamiltonian

# Ionic positions in lattice coordinates:
ion W   0.000000000000000   0.000000000000000   0.000000000000000 0
ion W   0.162158033349258   0.168527661996955   0.151968477835122 1
ion W  -0.001450703221503  -0.000075381211188   0.336426843469649 1
ion W   0.162243042634135   0.168579811707933   0.520952557910453 1
ion W  -0.000355188657622   0.000050161073097   0.672436986156248 1
ion W   0.168908815002135   0.168641933503959   0.836418651544688 1
ion W  -0.000337067017414   0.337122506174624   0.000483150863563 1
ion W   0.168186833616609   0.502260624958113   0.168652805325910 1
ion W  -0.001472848536800   0.337226012354390   0.336548742281782 1
ion W   0.168166860513352   0.502275645246279   0.504433559173433 1
ion W  -0.000371503273895   0.337124177772423   0.672528446073561 1
ion W   0.169258254117169   0.502168706083053   0.836515713081158 1
ion W   0.002151636676313   0.668560139421635   0.002914764774722 1
ion W   0.168212811799918   0.834933620264140   0.168570065960895 1
ion W   0.002849874355179   0.668596241020446   0.336550260292363 1
ion W   0.168172048760835   0.834925404040237   0.504412818805191 1
ion W   0.002119715362554   0.668567093632901   0.670131393485993 1
ion W   0.169325883046554   0.834968648523179   0.836455924000868 1
ion W   0.336783232966336   0.000840232655478   0.002956016117884 1
ion W   0.506754251360984   0.168608437376815   0.167831324137306 1
ion W   0.342927516058113  -0.017891254314238   0.336426170946298 1
ion W   0.506718835479842   0.168578865507936   0.505225364395019 1
ion W   0.336702200431333   0.000821823930070   0.670034797644240 1
ion W   0.502024390268502   0.168576192350601   0.836545557989926 1
ion W   0.336714715074919   0.336353758486131   0.002976072093116 1
ion W   0.505613963816275   0.504834714068769   0.167769688216718 1
ion W   0.343055646790672   0.355197608148557   0.336537279303513 1
ion W   0.505591345140019   0.504858220997477   0.505361715742301 1
ion W   0.336685607789999   0.336330007197816   0.670032631766755 1
ion W   0.502806303093633   0.502094726849125   0.836547168993829 1
ion W   0.335719612825728   0.668573831457427   0.002847336989688 1
ion W   0.505647004513447   0.832347809861631   0.167712523490259 1
ion W   0.336104110465918   0.668603974099552   0.336554417669005 1
ion W   0.505583061015751   0.832378494563761   0.505285314997044 1
ion W   0.335712992700661   0.668591507256271   0.670240576198240 1
ion W   0.502846979314120   0.835092756768278   0.836526433783002 1
ion W   0.669132383583824   0.001862980969710   0.002780126350062 1
ion W   0.835650766217415   0.168527984622717   0.169718464245675 1
ion W   0.669450523125625   0.001747869482304   0.336517943741115 1
ion W   0.835559333976565   0.168573489817695   0.503269533200805 1
ion W   0.669011786865092   0.001851057291198   0.670263606932011 1
ion W   0.834179909681020   0.168586294381382   0.836503774035401 1
ion W   0.669057772773822   0.335324815914200   0.002815861782726 1
ion W   0.836015745192280   0.502264964535569   0.169724922455194 1
ion W   0.669482503398278   0.335382227762038   0.336551533393972 1
ion W   0.835968431344154   0.502285132533445   0.503386057216750 1
ion W   0.669010112984091   0.335305306199925   0.670277872078957 1
ion W   0.834790156946612   0.502965970781295   0.836542732469436 1
ion W   0.670413190041401   0.668585150444579   0.002042519816733 1
ion W   0.836107978384008   0.834926480179034   0.169643771689803 1
ion W   0.671021069826925   0.668594727347919   0.336571900644896 1
ion W   0.835974521635542   0.834901600769945   0.503356263193309 1
ion W   0.670374567773116   0.668594870449565   0.671068518096789 1
ion W   0.834790225054516   0.834173163156939   0.836491858217734 1
ion O   0.255885343631272   0.168696582847721   0.336420489005476 1

# Forces in Lattice coordinates:
force W  -0.018784736841452   0.000342821533696   0.024181247669543 0
force W   0.002850299343542   0.001059898387128   0.000639630104195 1
force W   0.000299642773675   0.002175047740152   0.000514635541167 1
force W  -0.000398445749599  -0.000042512865352  -0.000013884124591 1
force W  -0.000454710329530  -0.001891474780338   0.001737627694040 1
force W   0.000695276415801  -0.000984111641200   0.000886215118671 1
force W  -0.000703905748296   0.000980195434834   0.000467712880588 1
force W   0.000272019610944  -0.001545728526826   0.000258145371490 1
force W   0.000741707612449  -0.002091292496508  -0.000599068426450 1
force W   0.000710063397472  -0.001662248305586   0.001158184980606 1
force W   0.000045943349315   0.000763174096097   0.001651791415981 1
force W   0.000057803937741  -0.001759586810431   0.001442225988117 1
force W   0.002037977526653   0.000208029918610   0.001391319104232 1
force W   0.000577997863397  -0.001655324607683   0.001721781263279 1
force W   0.000565246159967  -0.000428300767327  -0.000200432250017 1
force W   0.001309240428805  -0.000176739462495   0.000225662510005 1
force W   0.002060046262474   0.000187707194159   0.000650508458109 1
force W  -0.000018042636660   0.000246232291164   0.000464768978385 1
force W   0.000908509348967  -0.000151056339438  -0.000726945572115 1
force W   0.001529406516722  -0.001364077488668  -0.000401478995603 1
force W   0.001814273440555   0.002275228984402   0.002783214079665 1
force W   0.000817839288879  -0.000269576358159   0.001583387659231 1
force W   0.002072809233241   0.000775813423655   0.000805163570819 1
force W  -0.000285222406624   0.000725028963984  -0.000163562666987 1
force W   0.000947437488519  -0.001357154387672   0.000932044021191 1
force W   0.001017779363535   0.001683320814123   0.000258192713843 1
force W  -0.001808734985349  -0.004649045664148   0.000053491158410 1
force W   0.000627395463723   0.000251125133904   0.000666310408911 1
force W   0.002568546925634   0.000732828757261   0.002318425923848 1
force W   0.001157130114785  -0.001243348525375   0.001064165562775 1
force W   0.000648070535977   0.000213859555177   0.001682719223672 1
force W  -0.001385188358393  -0.000308496654780   0.002728507518975 1
force W   0.002087211679353   0.000795738499146   0.000168841566151 1
force W  -0.000716624896185  -0.001173118379543   0.001606388080381 1
force W   0.000394545673170  -0.000630943266265  -0.000422606734703 1
force W  -0.000220248213190  -0.000828663832825   0.001103587174138 1
force W   0.000115659430108  -0.000180764993168   0.001293635267693 1
force W  -0.001040691587791   0.000415709327582   0.001833735969620 1
force W   0.002188595060205   0.001838678392625   0.000096122790712 1
force W   0.000212226767941  -0.000343441647463  -0.000223836363508 1
force W   0.001297614580093   0.000445048079151   0.001113442691014 1
force W  -0.000725136916798  -0.000346333296206   0.000213826957969 1
force W   0.000273703403916  -0.001852141042564   0.000681986182352 1
force W  -0.001100739874950   0.000782012384910   0.000732354385432 1
force W   0.000395463007955  -0.001066444166051   0.000240053143931 1
force W  -0.000297973347462  -0.000414016213957   0.000624672388698 1
force W   0.000759296171194  -0.000466929896745   0.001777942111678 1
force W  -0.000730404340232  -0.002436914892929   0.001036530830145 1
force W  -0.000800513358834  -0.000296847745619   0.001784817602277 1
force W  -0.002844694106102  -0.001166842780280   0.000401274323713 1
force W  -0.000812456508111  -0.000035712087660  -0.001271960132786 1
force W  -0.000090229736093  -0.001244232519254   0.000823441530285 1
force W  -0.001161287064784  -0.000776246129042  -0.000223996799679 1
force W   0.001062080106456   0.002148517103031   0.001051956114498 1
force O  -0.014213623227441   0.000052034517543   0.002483918459544 1

# Energy components:
   Eewald =    -3260.0799616520525888
       EH =      418.0810637971034112
     Eloc =     -837.9909571107808688
      Enl =     -795.8526710761343566
      Exc =    -1112.6574123369896370
 Exc_core =      579.0136108949077425
       KE =     1278.5125829465609968
-------------------------------------
     Etot =    -3730.9737445373853006
       TS =        0.2548268120027870
-------------------------------------
        F =    -3731.2285713493879484

IonicMinimize: Iter:  21  F: -3731.228571349387948  |grad|_K:  9.302e-05  alpha:  1.000e+00  linmin: -2.201e-01  t[s]:  96677.41
IonicMinimize: Converged (|grad|_K<1.000000e-04).

#--- Lowdin population analysis ---
# oxidation-state W -0.007 +0.072 +0.005 +0.072 -0.007 +0.028 -0.007 +0.003 +0.005 +0.003 -0.007 +0.008 +0.011 +0.003 +0.011 +0.003 +0.011 +0.008 +0.003 +0.009 +0.070 +0.009 +0.003 +0.011 +0.003 -0.007 +0.070 -0.007 +0.003 +0.011 +0.008 -0.007 +0.030 -0.007 +0.008 +0.011 +0.012 +0.016 +0.015 +0.016 +0.012 +0.007 +0.012 +0.012 +0.015 +0.012 +0.012 +0.013 +0.013 +0.012 +0.007 +0.012 +0.013 +0.013
# oxidation-state O -0.135


Dumping 'W_tet.Ecomponents' ... done
End date and time: Wed Jul 17 11:22:37 2024  (Duration: 1-2:52:06.02)
Done!
