--------------------------------------------------------------------------
[[25797,1],0]: A high-performance Open MPI point-to-point messaging module
was unable to find any relevant network interfaces:

Module: OpenFabrics (openib)
  Host: node3211

Another transport will be used instead, although this may result in
lower performance.
--------------------------------------------------------------------------

*************** JDFTx 1.7.0 (git hash 3664913) ***************

Start date and time: Wed Jul  3 14:56:09 2024
Executable jdftx with command-line: -i WO3_ion.in
Running on hosts (process indices):  node3211.physics.cornell.edu (0-15)
Divided in process groups (process indices):  0 (0)  1 (1)  2 (2)  3 (3)  4 (4)  5 (5)  6 (6)  7 (7)  8 (8)  9 (9)  10 (10)  11 (11)  12 (12)  13 (13)  14 (14)  15 (15)
Resource initialization completed at t[s]:      0.00
Run totals: 16 processes, 32 threads, 0 GPUs


Input parsed successfully to the following command list (including defaults):

basis kpoint-dependent
coords-type Lattice
core-overlap-check vector
coulomb-interaction Periodic
davidson-band-ratio 1.1
dump End Ecomponents
dump-name /data/rc652/WO3/ion/WO3_ion.$VAR
elec-cutoff 20 100
elec-eigen-algo Davidson
elec-ex-corr gga-PBEsol
elec-smearing Fermi 0.01
electronic-minimize  \
	dirUpdateScheme      FletcherReeves \
	linminMethod         DirUpdateRecommended \
	nIterations          100 \
	history              15 \
	knormThreshold       0 \
	maxThreshold         no \
	energyDiffThreshold  1e-08 \
	nEnergyDiff          2 \
	alphaTstart          1 \
	alphaTmin            1e-10 \
	updateTestStepSize   yes \
	alphaTreduceFactor   0.1 \
	alphaTincreaseFactor 3 \
	nAlphaAdjustMax      3 \
	wolfeEnergy          0.0001 \
	wolfeGradient        0.9 \
	fdTest               no
electronic-scf  \
	nIterations	50 \
	energyDiffThreshold	1e-08 \
	residualThreshold	1e-07 \
	mixFraction	0.5 \
	qMetric	0.8 \
	history	10 \
	nEigSteps	2 \
	eigDiffThreshold	1e-08 \
	mixedVariable	Density \
	qKerker	0.8 \
	qKappa	-1 \
	verbose	no \
	mixFractionMag	1.5
exchange-regularization WignerSeitzTruncated
fluid None
fluid-ex-corr lda-TF lda-PZ
fluid-gummel-loop 10 1.000000e-05
fluid-minimize  \
	dirUpdateScheme      PolakRibiere \
	linminMethod         DirUpdateRecommended \
	nIterations          100 \
	history              15 \
	knormThreshold       0 \
	maxThreshold         no \
	energyDiffThreshold  0 \
	nEnergyDiff          2 \
	alphaTstart          1 \
	alphaTmin            1e-10 \
	updateTestStepSize   yes \
	alphaTreduceFactor   0.1 \
	alphaTincreaseFactor 3 \
	nAlphaAdjustMax      3 \
	wolfeEnergy          0.0001 \
	wolfeGradient        0.9 \
	fdTest               no
fluid-solvent H2O 55.338 ScalarEOS \
	epsBulk 78.4 \
	pMol 0.92466 \
	epsInf 1.77 \
	Pvap 1.06736e-10 \
	sigmaBulk 4.62e-05 \
	Rvdw 2.61727 \
	Res 1.42 \
	tauNuc 343133 \
	poleEl 15 7 1
forces-output-coords Positions
ion W   0.129872597263319   0.125219008495089   0.220606665955085 1
ion W   0.116087063035027   0.125119780534631   0.720409149649320 1
ion W   0.380799837343000   0.370928814544214   0.283256111454628 1
ion W   0.366952117272540   0.370865180263859   0.783201865605638 1
ion W   0.130899118414597   0.624446518409673   0.220264171204053 1
ion W   0.116749567711207   0.624092508618671   0.720330409117314 1
ion W   0.380063574289278   0.871906835001541   0.283245487669833 1
ion W   0.365937369199325   0.871537419669288   0.783460107713817 1
ion W   0.630989180802637   0.124456979535341   0.220436183515405 1
ion W   0.616870632314591   0.124035974270449   0.720303391591566 1
ion W   0.880097568610391   0.371982431999135   0.283318711872903 1
ion W   0.865916043993734   0.371572878442979   0.783282913096114 1
ion W   0.629840402794091   0.625150653273623   0.220613172506066 1
ion W   0.616068737140895   0.625063129012609   0.720503545487839 1
ion W   0.880828114450840   0.870815462065974   0.283502368674092 1
ion W   0.866966564900799   0.870852563253073   0.783339925827347 1
ion O   0.015857701350690   0.268468459406711   0.721290138448545 1
ion O   0.230957586395512   0.268203226820301   0.220170895733629 1
ion O   0.016911486858970   0.481511805955604   0.283943652464262 1
ion O   0.230186885133732   0.481077789095485   0.782790821494812 1
ion O   0.091942217700249   0.123514891894475   0.994514460912811 1
ion O   0.154244658733114   0.124671296557017   0.494416527695500 1
ion O   0.480014912859892   0.014496429158579   0.719850400868880 1
ion O   0.266405299587213   0.014674038081882   0.221079044957083 1
ion O   0.481214017780352   0.227677551412559   0.282834898279514 1
ion O   0.265891943646406   0.227837533660899   0.783584162532579 1
ion O   0.405042402082864   0.372502101432760   0.009174228698784 1
ion O   0.342559034001161   0.371625314733022   0.509336215620958 1
ion O   0.016325020950256   0.767873258522632   0.721147461605529 1
ion O   0.230839912724972   0.768101428922514   0.220058360608527 1
ion O   0.016724261100285   0.981527443696540   0.283718035367929 1
ion O   0.229727365922377   0.981717164862154   0.782739311286890 1
ion O   0.092329472472639   0.622888850647430   0.994338288327936 1
ion O   0.155257909696586   0.623771991490221   0.494455359065937 1
ion O   0.479832045108343   0.514694383485064   0.720244475454292 1
ion O   0.267186651062844   0.514411886348170   0.220608836681926 1
ion O   0.480721660866723   0.728239163504660   0.282623448292538 1
ion O   0.265997487452203   0.727873773787082   0.783955828325204 1
ion O   0.404238736569543   0.873428553818348   0.009374847072376 1
ion O   0.341855111557792   0.872031238115040   0.509330792477131 1
ion O   0.516403727126579   0.267736556364301   0.721171953480527 1
ion O   0.730959251217452   0.268051628196275   0.220099959537294 1
ion O   0.516783182584841   0.481565481509365   0.283823763914564 1
ion O   0.729535531808940   0.481619870549494   0.782779783124267 1
ion O   0.592468858236001   0.122655064313727   0.994534913930022 1
ion O   0.655270438483035   0.123706163490528   0.494362899849154 1
ion O   0.979957722142797   0.014614856163987   0.720325950309313 1
ion O   0.767080950967133   0.014100803625779   0.220789779377790 1
ion O   0.980574481355622   0.228151638484339   0.282626914863695 1
ion O   0.766012685740985   0.227836587626988   0.783943894901401 1
ion O   0.904145578710418   0.373495812611351   0.009252447365479 1
ion O   0.841916389465261   0.372017624677844   0.509372293788121 1
ion O   0.515692360219264   0.768382698102761   0.721357397979604 1
ion O   0.730987277737818   0.768129864507047   0.220266016589690 1
ion O   0.516646057326076   0.981657127979626   0.284038616619678 1
ion O   0.730353322918388   0.981313565244100   0.782999048134960 1
ion O   0.591798959127081   0.623466483522130   0.994510074479609 1
ion O   0.654343600314652   0.624521868660028   0.494602822953174 1
ion O   0.979855477090011   0.514633740772202   0.719628605074904 1
ion O   0.766502313417735   0.514700102455023   0.221256723113098 1
ion O   0.981135525167802   0.727497475625923   0.283255334734598 1
ion O   0.765934099666607   0.727825376891420   0.783905499326728 1
ion O   0.905201073859290   0.872309589639272   0.009346755187007 1
ion O   0.842738864165225   0.871584306187190   0.509523878150730 1
ion-species GBRV/$ID_pbesol.uspp
ion-width 0
ionic-minimize  \
	dirUpdateScheme      L-BFGS \
	linminMethod         DirUpdateRecommended \
	nIterations          30 \
	history              15 \
	knormThreshold       0.0001 \
	maxThreshold         no \
	energyDiffThreshold  1e-06 \
	nEnergyDiff          2 \
	alphaTstart          1 \
	alphaTmin            1e-10 \
	updateTestStepSize   yes \
	alphaTreduceFactor   0.1 \
	alphaTincreaseFactor 3 \
	nAlphaAdjustMax      3 \
	wolfeEnergy          0.0001 \
	wolfeGradient        0.9 \
	fdTest               no
kpoint   0.500000000000   0.500000000000   0.500000000000  1.00000000000000
kpoint-folding 3 3 4 
latt-move-scale 1 1 1
latt-scale 1 1 1 
lattice  \
	  19.703017305184275   -0.000000000000000   -0.000000000000000  \
	  -0.000000000000000   20.023361400003964    0.347085846033132  \
	  -0.000000000000000    0.002592113879843   14.495517318726208 
lattice-minimize  \
	dirUpdateScheme      L-BFGS \
	linminMethod         DirUpdateRecommended \
	nIterations          0 \
	history              15 \
	knormThreshold       0 \
	maxThreshold         no \
	energyDiffThreshold  1e-06 \
	nEnergyDiff          2 \
	alphaTstart          1 \
	alphaTmin            1e-10 \
	updateTestStepSize   yes \
	alphaTreduceFactor   0.1 \
	alphaTincreaseFactor 3 \
	nAlphaAdjustMax      3 \
	wolfeEnergy          0.0001 \
	wolfeGradient        0.9 \
	fdTest               no
lcao-params -1 1e-06 0.01
pcm-variant GLSSA13
perturb-minimize  \
	nIterations            0 \
	algorithm              MINRES \
	residualTol            0.0001 \
	residualDiffThreshold  0.0001 \
	CGBypass               no \
	recomputeResidual      no
spintype no-spin
subspace-rotation-factor 1 yes
symmetries automatic
symmetry-threshold 0.0001



---------- Setting up symmetries ----------

Found 4 point-group symmetries of the bravais lattice
Found 1 space-group symmetries with basis
Applied RMS atom displacement 0 bohrs to make symmetries exact.

---------- Initializing the Grid ----------
R = 
[       19.703            0            0  ]
[            0      20.0234     0.347086  ]
[            0   0.00259211      14.4955  ]
unit cell volume = 5718.76
G =
[   0.318895          0          0  ]
[          0   0.313794 -0.00751359  ]
[          0 -5.61131e-05   0.433458  ]
Minimum fftbox size, Smin = [  92  92  68  ]
Chosen fftbox size, S = [  96  96  70  ]

---------- Initializing tighter grid for wavefunction operations ----------
R = 
[       19.703            0            0  ]
[            0      20.0234     0.347086  ]
[            0   0.00259211      14.4955  ]
unit cell volume = 5718.76
G =
[   0.318895          0          0  ]
[          0   0.313794 -0.00751359  ]
[          0 -5.61131e-05   0.433458  ]
Minimum fftbox size, Smin = [  80  84  60  ]
Chosen fftbox size, S = [  80  84  60  ]

---------- Exchange Correlation functional ----------
Initalized PBEsol GGA exchange.
Initalized PBEsol GGA correlation.

---------- Setting up pseudopotentials ----------
Width of ionic core gaussian charges (only for fluid interactions / plotting) set to 0

Reading pseudopotential file '/home/rc652/build/pseudopotentials/GBRV/w_pbesol.uspp':
  Title: W.  Created by USPP 7.3.6 on 3-2-2014
  Reference state energy: -79.054523.  14 valence electrons in orbitals:
    |500>  occupation: 2  eigenvalue: -2.940304
    |510>  occupation: 6  eigenvalue: -1.621550
    |520>  occupation: 3.9  eigenvalue: -0.195776
    |600>  occupation: 2  eigenvalue: -0.236158
    |610>  occupation: 0  eigenvalue: -0.068449
  lMax: 3  lLocal: 3  QijEcut: 5
  8 projectors sampled on a log grid with 667 points:
    l: 0  eig: -2.940304  rCut: 1.45
    l: 0  eig: -0.236158  rCut: 1.45
    l: 0  eig: 0.500000  rCut: 1.45
    l: 1  eig: -1.621550  rCut: 1.5
    l: 1  eig: -0.068449  rCut: 1.5
    l: 2  eig: -0.195776  rCut: 1.7
    l: 2  eig: 0.150000  rCut: 1.7
    l: 3  eig: 0.500000  rCut: 2.3
  Partial core density with radius 1.2
  Transforming core density to a uniform radial grid of dG=0.02 with 1331 points.
  Transforming local potential to a uniform radial grid of dG=0.02 with 1331 points.
  Transforming nonlocal projectors to a uniform radial grid of dG=0.02 with 432 points.
  Transforming density augmentations to a uniform radial grid of dG=0.02 with 1331 points.
  Transforming atomic orbitals to a uniform radial grid of dG=0.02 with 432 points.
  Core radius for overlap checks: 2.30 bohrs.

Reading pseudopotential file '/home/rc652/build/pseudopotentials/GBRV/o_pbesol.uspp':
  Title: O.  Created by USPP 7.3.6 on 3-2-2014
  Reference state energy: -15.849885.  6 valence electrons in orbitals:
    |200>  occupation: 2  eigenvalue: -0.873214
    |210>  occupation: 4  eigenvalue: -0.330058
  lMax: 2  lLocal: 2  QijEcut: 6
  5 projectors sampled on a log grid with 511 points:
    l: 0  eig: -0.873214  rCut: 1.25
    l: 0  eig: 0.000000  rCut: 1.25
    l: 1  eig: -0.330058  rCut: 1.25
    l: 1  eig: 0.000000  rCut: 1.25
    l: 2  eig: 1.000000  rCut: 1.25
  Partial core density with radius 0.7
  Transforming core density to a uniform radial grid of dG=0.02 with 1331 points.
  Transforming local potential to a uniform radial grid of dG=0.02 with 1331 points.
  Transforming nonlocal projectors to a uniform radial grid of dG=0.02 with 432 points.
  Transforming density augmentations to a uniform radial grid of dG=0.02 with 1331 points.
  Transforming atomic orbitals to a uniform radial grid of dG=0.02 with 432 points.
  Core radius for overlap checks: 1.25 bohrs.

Initialized 2 species with 64 total atoms.

Folded 1 k-points by 3x3x4 to 36 k-points.

---------- Setting up k-points, bands, fillings ----------
Adding inversion symmetry to k-mesh for non-inversion-symmetric unit cell.
Reduced to 18 k-points under symmetry. 
Computing the number of bands and number of electrons
Calculating initial fillings.
nElectrons: 512.000000   nBands: 400   nStates: 18

----- Setting up reduced wavefunction bases (one per k-point) -----
average nbasis = 24427.222 , ideal nbasis = 24430.991

---------- Setting up ewald sum ----------
Optimum gaussian width for ewald sums = 3.567090 bohr.
Real space sum over 441 unit cells with max indices [  3  3  4  ]
Reciprocal space sum over 7497 terms with max indices [  10  10  8  ]

---------- Allocating electronic variables ----------
Initializing wave functions:  linear combination of atomic orbitals
W pseudo-atom occupations:   s ( 2 2 )  p ( 6 0 )  d ( 4 )
O pseudo-atom occupations:   s ( 2 )  p ( 4 )
	FillingsUpdate:  mu: +0.432180938  nElectrons: 512.000000
LCAOMinimize: Iter:   0  F: -1861.0739319624494783  |grad|_K:  4.019e-03  alpha:  1.000e+00
	FillingsUpdate:  mu: +0.313517299  nElectrons: 512.000000
LCAOMinimize: Iter:   1  F: -1869.4648282909988666  |grad|_K:  1.708e-03  alpha:  2.126e-01  linmin: -5.307e-01  cgtest:  7.770e-01  t[s]:    140.09
LCAOMinimize: Encountered beta<0, resetting CG.
	FillingsUpdate:  mu: +0.264970420  nElectrons: 512.000000
LCAOMinimize: Iter:   2  F: -1870.5922858126166375  |grad|_K:  3.190e-04  alpha:  2.870e-01  linmin:  5.228e-01  cgtest: -8.865e-01  t[s]:    185.49
LCAOMinimize: 	Bad step direction: g.d > 0.
LCAOMinimize: 	Undoing step.
LCAOMinimize: 	Step failed: resetting search direction.
	FillingsUpdate:  mu: +0.264970420  nElectrons: 512.000000
LCAOMinimize: Iter:   3  F: -1870.5922858126166375  |grad|_K:  3.190e-04  alpha:  0.000e+00
	FillingsUpdate:  mu: +0.267840458  nElectrons: 512.000000
LCAOMinimize: Iter:   4  F: -1870.6254182831023627  |grad|_K:  2.216e-05  alpha:  2.263e-01  linmin: -4.175e-02  cgtest:  6.078e-02  t[s]:    266.38
	FillingsUpdate:  mu: +0.268108702  nElectrons: 512.000000
LCAOMinimize: Iter:   5  F: -1870.6256465879623647  |grad|_K:  1.518e-05  alpha:  3.211e-01  linmin:  3.747e-04  cgtest: -1.897e-03  t[s]:    311.72
	FillingsUpdate:  mu: +0.268282578  nElectrons: 512.000000
LCAOMinimize: Iter:   6  F: -1870.6257886369273820  |grad|_K:  8.324e-06  alpha:  4.263e-01  linmin:  7.295e-04  cgtest: -3.690e-04  t[s]:    357.26
	FillingsUpdate:  mu: +0.268272844  nElectrons: 512.000000
LCAOMinimize: Iter:   7  F: -1870.6258036928184083  |grad|_K:  1.798e-06  alpha:  1.500e-01  linmin: -3.211e-03  cgtest:  1.832e-02  t[s]:    401.23
	FillingsUpdate:  mu: +0.268259989  nElectrons: 512.000000
LCAOMinimize: Iter:   8  F: -1870.6258048372351368  |grad|_K:  1.073e-06  alpha:  2.442e-01  linmin:  2.078e-04  cgtest: -3.861e-03  t[s]:    446.56
	FillingsUpdate:  mu: +0.268252444  nElectrons: 512.000000
LCAOMinimize: Iter:   9  F: -1870.6258056108831624  |grad|_K:  5.454e-07  alpha:  4.647e-01  linmin:  3.068e-05  cgtest:  3.502e-03  t[s]:    493.55
	FillingsUpdate:  mu: +0.268255334  nElectrons: 512.000000
LCAOMinimize: Iter:  10  F: -1870.6258057045972691  |grad|_K:  1.655e-07  alpha:  2.177e-01  linmin:  3.249e-05  cgtest:  4.112e-05  t[s]:    537.99
LCAOMinimize: Converged (|Delta F|<1.000000e-06 for 2 iters).


---- Citations for features of the code used in this run ----

   Software package:
      R. Sundararaman, K. Letchworth-Weaver, K.A. Schwarz, D. Gunceler, Y. Ozhabes and T.A. Arias, 'JDFTx: software for joint density-functional theory', SoftwareX 6, 278 (2017)

   gga-PBEsol exchange-correlation functional:
      J.P. Perdew et al., Phys. Rev. Lett. 100, 136406 (2008)

   Pseudopotentials:
      KF Garrity, JW Bennett, KM Rabe and D Vanderbilt, Comput. Mater. Sci. 81, 446 (2014)

This list may not be complete. Please suggest additional citations or
report any other bugs at https://github.com/shankar1729/jdftx/issues

Initialization completed successfully at t[s]:    564.72


-------- Electronic minimization -----------
Will mix electronic density at each iteration.
	FillingsUpdate:  mu: +0.268255334  nElectrons: 512.000000
	FillingsUpdate:  mu: +0.260134869  nElectrons: 512.000000
SCF: Cycle:  0   F: -1872.411478922189190   dF: -1.786e+00   |Residual|: 6.002e-01   |deigs|: 3.478e-02  t[s]:    776.89
	FillingsUpdate:  mu: +0.260413440  nElectrons: 512.000000
SCF: Cycle:  1   F: -1872.671861278628057   dF: -2.604e-01   |Residual|: 3.431e-01   |deigs|: 1.774e-02  t[s]:    959.19
	FillingsUpdate:  mu: +0.265231656  nElectrons: 512.000000
SCF: Cycle:  2   F: -1872.791769666265509   dF: -1.199e-01   |Residual|: 1.495e-01   |deigs|: 7.404e-03  t[s]:   1138.77
	FillingsUpdate:  mu: +0.268931803  nElectrons: 512.000000
SCF: Cycle:  3   F: -1872.800318300990057   dF: -8.549e-03   |Residual|: 3.427e-02   |deigs|: 4.647e-03  t[s]:   1312.83
	FillingsUpdate:  mu: +0.269335169  nElectrons: 512.000000
SCF: Cycle:  4   F: -1872.800687473273683   dF: -3.692e-04   |Residual|: 1.751e-02   |deigs|: 6.922e-04  t[s]:   1417.94
	FillingsUpdate:  mu: +0.269724005  nElectrons: 512.000000
SCF: Cycle:  5   F: -1872.800965583616971   dF: -2.781e-04   |Residual|: 6.109e-03   |deigs|: 5.047e-04  t[s]:   1521.81
	FillingsUpdate:  mu: +0.270239825  nElectrons: 512.000000
SCF: Cycle:  6   F: -1872.801009375473541   dF: -4.379e-05   |Residual|: 2.787e-03   |deigs|: 6.113e-04  t[s]:   1627.89
	FillingsUpdate:  mu: +0.270284823  nElectrons: 512.000000
SCF: Cycle:  7   F: -1872.801021737089741   dF: -1.236e-05   |Residual|: 8.839e-04   |deigs|: 1.198e-04  t[s]:   1736.52
	FillingsUpdate:  mu: +0.270293556  nElectrons: 512.000000
SCF: Cycle:  8   F: -1872.801023819144575   dF: -2.082e-06   |Residual|: 4.503e-04   |deigs|: 5.028e-05  t[s]:   1857.82
	FillingsUpdate:  mu: +0.270302412  nElectrons: 512.000000
SCF: Cycle:  9   F: -1872.801024797258833   dF: -9.781e-07   |Residual|: 1.822e-04   |deigs|: 4.925e-05  t[s]:   1961.94
	FillingsUpdate:  mu: +0.270305319  nElectrons: 512.000000
SCF: Cycle: 10   F: -1872.801025192178486   dF: -3.949e-07   |Residual|: 1.404e-04   |deigs|: 5.535e-05  t[s]:   2066.13
	FillingsUpdate:  mu: +0.270304193  nElectrons: 512.000000
SCF: Cycle: 11   F: -1872.801025436757527   dF: -2.446e-07   |Residual|: 8.025e-05   |deigs|: 5.135e-05  t[s]:   2169.92
	FillingsUpdate:  mu: +0.270304252  nElectrons: 512.000000
SCF: Cycle: 12   F: -1872.801025580046598   dF: -1.433e-07   |Residual|: 5.376e-05   |deigs|: 4.875e-05  t[s]:   2275.59
	FillingsUpdate:  mu: +0.270303765  nElectrons: 512.000000
SCF: Cycle: 13   F: -1872.801025667671183   dF: -8.762e-08   |Residual|: 2.428e-05   |deigs|: 5.380e-05  t[s]:   2381.42
	FillingsUpdate:  mu: +0.270303801  nElectrons: 512.000000
SCF: Cycle: 14   F: -1872.801025725369300   dF: -5.770e-08   |Residual|: 5.661e-05   |deigs|: 4.587e-05  t[s]:   2483.92
	FillingsUpdate:  mu: +0.270303805  nElectrons: 512.000000
SCF: Cycle: 15   F: -1872.801025757974912   dF: -3.261e-08   |Residual|: 8.483e-05   |deigs|: 3.387e-05  t[s]:   2588.59
	FillingsUpdate:  mu: +0.270303900  nElectrons: 512.000000
SCF: Cycle: 16   F: -1872.801025776442657   dF: -1.847e-08   |Residual|: 1.080e-04   |deigs|: 3.223e-05  t[s]:   2691.98
	FillingsUpdate:  mu: +0.270303919  nElectrons: 512.000000
SCF: Cycle: 17   F: -1872.801025787603294   dF: -1.116e-08   |Residual|: 1.215e-04   |deigs|: 3.081e-05  t[s]:   2798.14
	FillingsUpdate:  mu: +0.270303896  nElectrons: 512.000000
SCF: Cycle: 18   F: -1872.801025793631197   dF: -6.028e-09   |Residual|: 1.406e-04   |deigs|: 2.058e-05  t[s]:   2901.78
	FillingsUpdate:  mu: +0.270303868  nElectrons: 512.000000
SCF: Cycle: 19   F: -1872.801025797203238   dF: -3.572e-09   |Residual|: 1.471e-04   |deigs|: 1.597e-05  t[s]:   3004.85
SCF: Converged (|Delta E|<1.000000e-08 for 2 iters).

Setting wave functions to eigenvectors of Hamiltonian

# Ionic positions in lattice coordinates:
ion W   0.129872597263319   0.125219008495089   0.220606665955085 1
ion W   0.116087063035027   0.125119780534631   0.720409149649320 1
ion W   0.380799837343000   0.370928814544214   0.283256111454628 1
ion W   0.366952117272540   0.370865180263859   0.783201865605638 1
ion W   0.130899118414597   0.624446518409673   0.220264171204053 1
ion W   0.116749567711207   0.624092508618671   0.720330409117314 1
ion W   0.380063574289278   0.871906835001541   0.283245487669833 1
ion W   0.365937369199325   0.871537419669288   0.783460107713817 1
ion W   0.630989180802637   0.124456979535341   0.220436183515405 1
ion W   0.616870632314591   0.124035974270449   0.720303391591566 1
ion W   0.880097568610391   0.371982431999135   0.283318711872903 1
ion W   0.865916043993734   0.371572878442979   0.783282913096114 1
ion W   0.629840402794091   0.625150653273623   0.220613172506066 1
ion W   0.616068737140895   0.625063129012609   0.720503545487839 1
ion W   0.880828114450840   0.870815462065974   0.283502368674092 1
ion W   0.866966564900799   0.870852563253073   0.783339925827347 1
ion O   0.015857701350690   0.268468459406711   0.721290138448545 1
ion O   0.230957586395512   0.268203226820301   0.220170895733629 1
ion O   0.016911486858970   0.481511805955604   0.283943652464262 1
ion O   0.230186885133732   0.481077789095485   0.782790821494812 1
ion O   0.091942217700249   0.123514891894475   0.994514460912811 1
ion O   0.154244658733114   0.124671296557017   0.494416527695500 1
ion O   0.480014912859892   0.014496429158579   0.719850400868880 1
ion O   0.266405299587213   0.014674038081882   0.221079044957083 1
ion O   0.481214017780352   0.227677551412559   0.282834898279514 1
ion O   0.265891943646406   0.227837533660899   0.783584162532579 1
ion O   0.405042402082864   0.372502101432760   0.009174228698784 1
ion O   0.342559034001161   0.371625314733022   0.509336215620958 1
ion O   0.016325020950256   0.767873258522632   0.721147461605529 1
ion O   0.230839912724972   0.768101428922514   0.220058360608527 1
ion O   0.016724261100285   0.981527443696540   0.283718035367929 1
ion O   0.229727365922377   0.981717164862154   0.782739311286890 1
ion O   0.092329472472639   0.622888850647430   0.994338288327936 1
ion O   0.155257909696586   0.623771991490221   0.494455359065937 1
ion O   0.479832045108343   0.514694383485064   0.720244475454292 1
ion O   0.267186651062844   0.514411886348170   0.220608836681926 1
ion O   0.480721660866723   0.728239163504660   0.282623448292538 1
ion O   0.265997487452203   0.727873773787082   0.783955828325204 1
ion O   0.404238736569543   0.873428553818348   0.009374847072376 1
ion O   0.341855111557792   0.872031238115040   0.509330792477131 1
ion O   0.516403727126579   0.267736556364301   0.721171953480527 1
ion O   0.730959251217452   0.268051628196275   0.220099959537294 1
ion O   0.516783182584841   0.481565481509365   0.283823763914564 1
ion O   0.729535531808940   0.481619870549494   0.782779783124267 1
ion O   0.592468858236001   0.122655064313727   0.994534913930022 1
ion O   0.655270438483035   0.123706163490528   0.494362899849154 1
ion O   0.979957722142797   0.014614856163987   0.720325950309313 1
ion O   0.767080950967133   0.014100803625779   0.220789779377790 1
ion O   0.980574481355622   0.228151638484339   0.282626914863695 1
ion O   0.766012685740985   0.227836587626988   0.783943894901401 1
ion O   0.904145578710418   0.373495812611351   0.009252447365479 1
ion O   0.841916389465261   0.372017624677844   0.509372293788121 1
ion O   0.515692360219264   0.768382698102761   0.721357397979604 1
ion O   0.730987277737818   0.768129864507047   0.220266016589690 1
ion O   0.516646057326076   0.981657127979626   0.284038616619678 1
ion O   0.730353322918388   0.981313565244100   0.782999048134960 1
ion O   0.591798959127081   0.623466483522130   0.994510074479609 1
ion O   0.654343600314652   0.624521868660028   0.494602822953174 1
ion O   0.979855477090011   0.514633740772202   0.719628605074904 1
ion O   0.766502313417735   0.514700102455023   0.221256723113098 1
ion O   0.981135525167802   0.727497475625923   0.283255334734598 1
ion O   0.765934099666607   0.727825376891420   0.783905499326728 1
ion O   0.905201073859290   0.872309589639272   0.009346755187007 1
ion O   0.842738864165225   0.871584306187190   0.509523878150730 1

# Forces in Lattice coordinates:
force W  -0.001164789644435  -0.009965835483606  -0.007608811354259 1
force W  -0.001307014383513  -0.006015461871357   0.007908633635978 1
force W  -0.004578051421276   0.001352923609108   0.005280021801581 1
force W  -0.003203727392568   0.001390553736042  -0.003845107559079 1
force W  -0.003368212074196   0.006759952247155  -0.003507427617607 1
force W   0.001578897430391   0.003611422012973   0.006936321014272 1
force W  -0.004917663094949   0.007235087696995   0.007104855964479 1
force W   0.001523726157603  -0.000386784256492  -0.005157219627563 1
force W  -0.005252359683370  -0.006852253114652  -0.008846657375328 1
force W  -0.007860878665581   0.000974166573215   0.010452368392313 1
force W  -0.000058001149272  -0.004368071878015  -0.002448007147000 1
force W   0.001830604243776  -0.003571589593652   0.003546763715901 1
force W   0.002038195359068   0.000941853137402  -0.008463767649943 1
force W  -0.002430985365776   0.001670063762547   0.009003065844201 1
force W   0.000354087368908   0.008567913555749  -0.004754087244183 1
force W   0.000702070456246   0.001772347402829   0.006874309753823 1
force O  -0.005748252351136   0.004990328459342  -0.000696471319121 1
force O   0.003104666408941   0.001781416156862   0.000006026665321 1
force O   0.000969472238947  -0.001507555268316  -0.000381056706473 1
force O  -0.002981316914160   0.005652420237332  -0.000907626246163 1
force O   0.002740866377976   0.002592699427530   0.002283031999747 1
force O   0.002381900326759  -0.004238166905543  -0.004908226708349 1
force O   0.002383050491362   0.002226276447320  -0.001051061465217 1
force O  -0.001133416898358   0.004221348465821   0.002279016308105 1
force O  -0.002926824774663   0.002989102634249  -0.000236651236425 1
force O   0.005289322573111   0.000190645912560   0.000043928832406 1
force O   0.000458245643600  -0.001263421227308   0.006675112066422 1
force O   0.001180473293855   0.000395520994891  -0.005448358783117 1
force O  -0.000805204132123  -0.000868867082015  -0.002166188601093 1
force O   0.000380084236520  -0.003370548989920  -0.000183274111195 1
force O   0.004479382722874   0.000237545490325  -0.000407423597009 1
force O  -0.002601655647479   0.000887245413662  -0.000240028277038 1
force O   0.001640684378106   0.000571066852796   0.006184551621223 1
force O  -0.000954113837460   0.000992522901026  -0.004348695169221 1
force O  -0.000335552357577  -0.002594671966764  -0.002125462796378 1
force O   0.000290024671007  -0.002739288074188   0.000104678422756 1
force O  -0.001058561908012  -0.002379890281309  -0.001278332348101 1
force O  -0.003304756987118  -0.001660807869875  -0.002632949514234 1
force O   0.003544475344921  -0.003327153141754   0.002957333264385 1
force O   0.001849688871987  -0.000075770203206  -0.001586338167860 1
force O  -0.008763885579489   0.008478878330900  -0.000635380508951 1
force O   0.001985909953168  -0.000217092730790   0.000009985242531 1
force O   0.004159545476261   0.000263787771033  -0.001307813031451 1
force O   0.002830627673371  -0.001970469727336  -0.000457724553370 1
force O   0.002079627797429   0.005184916112968   0.002043197216120 1
force O  -0.000815081756222   0.001609668523426  -0.001530018936129 1
force O   0.001285383906806   0.002956715241889  -0.001842359155983 1
force O  -0.003621127663281   0.006071789796435   0.000385203120187 1
force O  -0.000642281316012   0.003808771811907  -0.002445920219408 1
force O   0.002825193839834   0.005277621784073  -0.003430225524744 1
force O   0.004310318090688  -0.002800793584102   0.001417538396544 1
force O  -0.000096485181107   0.001901945386150   0.000405399441651 1
force O   0.004888906214269  -0.000675495373478  -0.002707760648517 1
force O  -0.000506116624785  -0.005135370295638  -0.000082153814248 1
force O   0.005734345032454   0.000387411804350  -0.000751007397305 1
force O   0.001991822175015  -0.005423095022672  -0.001624817468776 1
force O   0.006502393179934   0.001268220272934   0.008372631112363 1
force O   0.001705003087946  -0.000891494869411  -0.009429905339479 1
force O  -0.000924282383319  -0.000785895038562   0.001080568974458 1
force O  -0.000402936097342   0.002545741679589   0.000442745747702 1
force O   0.002183423228104  -0.002662025611090  -0.003278351084164 1
force O  -0.002763571599775  -0.001309501704020  -0.003220080363065 1
force O  -0.003646544618283   0.000327128640521  -0.000110813196636 1
force O  -0.006427881825555   0.001172006293167   0.002039602140613 1

# Energy components:
   Eewald =    -1201.7034755921283704
       EH =      550.6058659014551040
     Eloc =    -1495.9746804145331680
      Enl =     -125.6128780022243348
      Exc =     -499.2813122411845370
 Exc_core =      174.5590290165549732
       KE =      724.6303164404282597
-------------------------------------
     Etot =    -1872.7771348916319312
       TS =        0.0238909055713111
-------------------------------------
        F =    -1872.8010257972032377

IonicMinimize: Iter:   0  F: -1872.801025797203238  |grad|_K:  2.203e-04  t[s]:   3037.66

#--- Lowdin population analysis ---
# oxidation-state W +1.002 +1.002 +1.002 +1.002 +1.002 +1.002 +1.002 +1.002 +1.002 +1.002 +1.003 +1.002 +1.002 +1.002 +1.002 +1.002
# oxidation-state O -0.316 -0.317 -0.311 -0.312 -0.283 -0.283 -0.311 -0.312 -0.316 -0.316 -0.283 -0.284 -0.317 -0.317 -0.311 -0.311 -0.284 -0.283 -0.311 -0.310 -0.318 -0.317 -0.283 -0.283 -0.318 -0.317 -0.311 -0.311 -0.283 -0.283 -0.311 -0.311 -0.318 -0.317 -0.283 -0.283 -0.316 -0.317 -0.311 -0.312 -0.283 -0.283 -0.311 -0.312 -0.316 -0.317 -0.283 -0.283


-------- Electronic minimization -----------
Will mix electronic density at each iteration.
	FillingsUpdate:  mu: +0.270303868  nElectrons: 512.000000
	FillingsUpdate:  mu: +0.270301639  nElectrons: 512.000000
SCF: Cycle:  0   F: -1872.801014649083072   dF: +1.394e-05   |Residual|: 2.194e-03   |deigs|: 1.558e-05  t[s]:   3218.47
	FillingsUpdate:  mu: +0.270301510  nElectrons: 512.000000
SCF: Cycle:  1   F: -1872.801026853504027   dF: -1.220e-05   |Residual|: 1.898e-03   |deigs|: 1.732e-05  t[s]:   3325.39
	FillingsUpdate:  mu: +0.270301450  nElectrons: 512.000000
SCF: Cycle:  2   F: -1872.801031402197395   dF: -4.549e-06   |Residual|: 2.714e-04   |deigs|: 1.262e-05  t[s]:   3427.45
	FillingsUpdate:  mu: +0.270301399  nElectrons: 512.000000
SCF: Cycle:  3   F: -1872.801031715373028   dF: -3.132e-07   |Residual|: 1.145e-04   |deigs|: 9.341e-06  t[s]:   3548.88
	FillingsUpdate:  mu: +0.270301401  nElectrons: 512.000000
SCF: Cycle:  4   F: -1872.801031786973681   dF: -7.160e-08   |Residual|: 7.243e-05   |deigs|: 7.655e-06  t[s]:   3654.15
	FillingsUpdate:  mu: +0.270301399  nElectrons: 512.000000
SCF: Cycle:  5   F: -1872.801031812995916   dF: -2.602e-08   |Residual|: 3.048e-05   |deigs|: 7.003e-06  t[s]:   3758.67
	FillingsUpdate:  mu: +0.270301394  nElectrons: 512.000000
SCF: Cycle:  6   F: -1872.801031819522905   dF: -6.527e-09   |Residual|: 2.033e-05   |deigs|: 6.324e-06  t[s]:   3863.86
	FillingsUpdate:  mu: +0.270301401  nElectrons: 512.000000
SCF: Cycle:  7   F: -1872.801031820426033   dF: -9.031e-10   |Residual|: 1.067e-05   |deigs|: 5.666e-06  t[s]:   3968.48
SCF: Converged (|Delta E|<1.000000e-08 for 2 iters).

Setting wave functions to eigenvectors of Hamiltonian

# Ionic positions in lattice coordinates:
ion W   0.129869733654326   0.125193731118291   0.220572225234561 1
ion W   0.116083833064669   0.125103074715893   0.720448232121322 1
ion W   0.380788181401176   0.370930715404711   0.283282072647656 1
ion W   0.366944001497005   0.370867931895244   0.783184395231338 1
ion W   0.130890578937582   0.624462641986274   0.220247862569905 1
ion W   0.116753771655634   0.624099908444889   0.720364065667864 1
ion W   0.380051043530618   0.871923264124676   0.283279645758627 1
ion W   0.365941431026263   0.871535844578525   0.783436540133754 1
ion W   0.630975787888070   0.124439575132402   0.220395593372246 1
ion W   0.616850520030522   0.124036500891996   0.720354000505518 1
ion W   0.880097556014141   0.371970696437251   0.283308368233375 1
ion W   0.865920896317987   0.371562633373521   0.783301033793645 1
ion W   0.629845789859099   0.625152668203890   0.220573758154915 1
ion W   0.616062611896862   0.625065512534548   0.720547199140955 1
ion W   0.880829163366904   0.870836201019527   0.283479976962879 1
ion W   0.866968510197898   0.870855378599873   0.783373439790369 1
ion O   0.015843031049955   0.268479933535469   0.721287354534754 1
ion O   0.230965720618235   0.268206634471434   0.220171721313336 1
ion O   0.016914120965081   0.481507037704883   0.283942908626590 1
ion O   0.230179342272635   0.481090933064338   0.782786977733959 1
ion O   0.091949414798554   0.123520135336176   0.994526055959060 1
ion O   0.154250931159008   0.124660089244605   0.494394464569204 1
ion O   0.480021188248533   0.014501034687348   0.719846158641833 1
ion O   0.266402516792304   0.014683346338156   0.221090485807657 1
ion O   0.481206615287342   0.227683993112874   0.282834468734607 1
ion O   0.265905705396513   0.227836968217731   0.783585300439200 1
ion O   0.405043719303640   0.372497357190783   0.009207046431403 1
ion O   0.342562211631802   0.371625716123029   0.509311197560948 1
ion O   0.016323083609364   0.767870232255146   0.721138168968245 1
ion O   0.230841028607219   0.768091994951536   0.220058712581871 1
ion O   0.016735936499798   0.981527032732953   0.283717021301645 1
ion O   0.229720801043174   0.981718361415475   0.782739040003106 1
ion O   0.092333835576089   0.622888725270306   0.994368619221335 1
ion O   0.155255588774306   0.623773791558542   0.494435525023930 1
ion O   0.479831317558843   0.514687046894560   0.720235519782322 1
ion O   0.267187534957706   0.514404003878120   0.220610506724763 1
ion O   0.480719070893236   0.728232292663549   0.282618506481397 1
ion O   0.265989111431226   0.727868809854321   0.783944379958212 1
ion O   0.404248003710513   0.873418967657050   0.009390142269912 1
ion O   0.341860013042764   0.872030143018066   0.509324193690927 1
ion O   0.516381288757418   0.267756731504564   0.721169170962128 1
ion O   0.730964503598770   0.268050048009664   0.220100969717938 1
ion O   0.516794034105112   0.481565210716919   0.283818462525404 1
ion O   0.729542960126307   0.481613953401373   0.782778712803139 1
ion O   0.592474352028184   0.122666796823602   0.994545152546340 1
ion O   0.655268475698047   0.123709269929017   0.494356429303830 1
ion O   0.979961170016123   0.014621350219174   0.720317881542594 1
ion O   0.767071759996566   0.014114886949299   0.220792053685414 1
ion O   0.980572963692949   0.228160309005793   0.282615902948872 1
ion O   0.766020100061162   0.227849005473636   0.783928076636675 1
ion O   0.904156818610806   0.373487667755388   0.009260370691702 1
ion O   0.841916277736733   0.372021299998613   0.509375010071469 1
ion O   0.515705090523754   0.768380199335986   0.721345511846161 1
ion O   0.730986110826234   0.768116017833805   0.220266996194797 1
ion O   0.516660965424115   0.981657119522390   0.284035954934178 1
ion O   0.730358590529192   0.981299128472919   0.782992709737727 1
ion O   0.591815845665504   0.623467916487097   0.994550761088613 1
ion O   0.654348129098773   0.624519388392736   0.494558962608081 1
ion O   0.979853233011551   0.514630652276999   0.719634757570816 1
ion O   0.766501412292252   0.514705381346095   0.221259563737480 1
ion O   0.981141286330036   0.727490066570008   0.283240897806672 1
ion O   0.765927117702798   0.727821338381781   0.783891227540008 1
ion O   0.905191817416356   0.872309377639175   0.009347145322938 1
ion O   0.842722443184662   0.871586024316000   0.509534432497877 1

# Forces in Lattice coordinates:
force W   0.000371129279706  -0.002358955433950  -0.001366456247273 1
force W  -0.000144891822038  -0.001750904883179   0.001081704603312 1
force W  -0.001982656923552   0.002905739076053   0.000170647133457 1
force W  -0.002106842219294   0.002330438224692   0.001532471226490 1
force W  -0.001365115887840   0.002251801133241   0.001455028507928 1
force W   0.000101758347930   0.000663203430723   0.001060785722823 1
force W  -0.001055129769377   0.002125730121416   0.002031367351839 1
force W   0.001867635115980  -0.001316164419722  -0.000651886345356 1
force W  -0.004664873169474  -0.000708950612955  -0.001382882921516 1
force W  -0.003612107673617   0.004010596866984   0.003153375643307 1
force W  -0.000657401892613  -0.001995714088011  -0.000451333039986 1
force W   0.002411197517284  -0.001377235945840   0.001909450039075 1
force W   0.002541918520210  -0.001265916906790   0.000340216678617 1
force W   0.001841603667477  -0.001809320311140  -0.000226097461275 1
force W  -0.002075157935597   0.004359551004779  -0.000441123067546 1
force W  -0.000649382854462  -0.000637195030814   0.001955547450771 1
force O  -0.002784755443573   0.001551609343214  -0.000520967390095 1
force O   0.000558519641671  -0.001629263162189  -0.000322861944948 1
force O   0.000800695884231  -0.001279083378514  -0.000751028861110 1
force O  -0.002219893147329   0.004715189193152  -0.000700238936963 1
force O   0.001312431757589   0.001756904585189  -0.002016794565175 1
force O   0.000693372996266  -0.004101088896245   0.000242747834842 1
force O   0.000331135060957   0.000744752671999  -0.000613808961755 1
force O   0.000927138740689   0.002131433940090   0.001773630272031 1
force O  -0.001326158654264   0.000976335385464  -0.000516192475287 1
force O   0.003661424419426  -0.000870339778123  -0.000086277976627 1
force O  -0.000985454212828  -0.001283429994610   0.001425731693552 1
force O  -0.000407941709725   0.000617004276723  -0.000274358266290 1
force O  -0.001749027942636   0.000851022599432  -0.001371658619756 1
force O   0.002165447408873  -0.000349191491054  -0.000101044352473 1
force O   0.004213704186479  -0.000090133856359  -0.000700522372168 1
force O  -0.001322873417591  -0.000382150884532   0.000005803321960 1
force O   0.000362770089094   0.000838686042063   0.001519698950968 1
force O  -0.002057960163862   0.001448677367942   0.000029237077299 1
force O  -0.000078796095346  -0.001484909717994  -0.001630973738255 1
force O  -0.001075599121534  -0.001167974584433  -0.000008166621154 1
force O  -0.003492486346884   0.001364164712603  -0.001123621182418 1
force O  -0.001246587368254   0.000772695548046  -0.002191128829091 1
force O   0.002129405293904  -0.002972089665731  -0.000922928252914 1
force O   0.000598635120642   0.000567042307175   0.002051270304170 1
force O  -0.006461644278796   0.005562145527434  -0.000576318043056 1
force O   0.000226727431994  -0.002408736226009  -0.000482556486039 1
force O   0.002913160946735  -0.000371445443406  -0.001387703525358 1
force O   0.001714387098586  -0.000851368775732  -0.000105601130617 1
force O   0.000317636965025   0.004387396204043  -0.003083109514447 1
force O  -0.002705878416426   0.001582333162269   0.003717723436618 1
force O   0.000088352023474   0.001730122524854  -0.001163374452928 1
force O  -0.001150470532526   0.003752489702644  -0.000126980423297 1
force O   0.001213727522359   0.001161973959709  -0.002800393531570 1
force O   0.000447322490652   0.002307195185733  -0.003011405975795 1
force O   0.004382138818594  -0.002781065864107   0.001903013520540 1
force O   0.000339293236830   0.001656397861051  -0.000506977886280 1
force O   0.002581761316094   0.001603039605481  -0.002030344241278 1
force O   0.002114321144183  -0.001450328581345  -0.000328365009535 1
force O   0.004317159942048  -0.000350047762960  -0.000703121545485 1
force O   0.000873577145330  -0.003879245139589  -0.001080991843311 1
force O   0.003995178781728   0.001140013292638   0.000267355487035 1
force O  -0.000727372552177  -0.000339634800639  -0.001195349288507 1
force O   0.000464127328314   0.000656694930651   0.001517085876828 1
force O   0.000373195184244   0.001847654515181  -0.000154515501542 1
force O  -0.000100860391201   0.000772441361415  -0.003236878885028 1
force O  -0.001367151830310   0.000239974077837  -0.002404024937851 1
force O  -0.002342893597203   0.000789790813564   0.002612922487424 1
force O  -0.004703705332983   0.001426350212017  -0.001334797815287 1

# Energy components:
   Eewald =    -1201.7036863482505851
       EH =      550.6057529922496769
     Eloc =    -1495.9742212765236218
      Enl =     -125.6125577864844871
      Exc =     -499.2812536068919371
 Exc_core =      174.5590289190629392
       KE =      724.6298013375323990
-------------------------------------
     Etot =    -1872.7771357693056871
       TS =        0.0238960511202832
-------------------------------------
        F =    -1872.8010318204260329

IonicMinimize: Iter:   1  F: -1872.801031820426033  |grad|_K:  1.062e-04  alpha:  1.000e+00  linmin: -6.024e-01  t[s]:   4001.33

#--- Lowdin population analysis ---
# oxidation-state W +1.002 +1.002 +1.002 +1.002 +1.002 +1.002 +1.002 +1.002 +1.002 +1.002 +1.002 +1.002 +1.003 +1.002 +1.002 +1.002
# oxidation-state O -0.316 -0.317 -0.311 -0.312 -0.283 -0.284 -0.311 -0.312 -0.316 -0.316 -0.283 -0.283 -0.318 -0.317 -0.311 -0.311 -0.283 -0.283 -0.311 -0.311 -0.318 -0.317 -0.283 -0.283 -0.318 -0.317 -0.311 -0.311 -0.283 -0.283 -0.311 -0.311 -0.318 -0.317 -0.283 -0.283 -0.316 -0.317 -0.311 -0.312 -0.283 -0.283 -0.311 -0.312 -0.316 -0.317 -0.283 -0.283


-------- Electronic minimization -----------
Will mix electronic density at each iteration.
	FillingsUpdate:  mu: +0.270301401  nElectrons: 512.000000
	FillingsUpdate:  mu: +0.270298205  nElectrons: 512.000000
SCF: Cycle:  0   F: -1872.801030419396739   dF: +2.816e-06   |Residual|: 1.216e-03   |deigs|: 5.175e-06  t[s]:   4177.57
	FillingsUpdate:  mu: +0.270297947  nElectrons: 512.000000
SCF: Cycle:  1   F: -1872.801033726505921   dF: -3.307e-06   |Residual|: 1.021e-03   |deigs|: 7.692e-06  t[s]:   4281.71
	FillingsUpdate:  mu: +0.270297841  nElectrons: 512.000000
SCF: Cycle:  2   F: -1872.801035007061500   dF: -1.281e-06   |Residual|: 1.613e-04   |deigs|: 6.066e-06  t[s]:   4388.64
	FillingsUpdate:  mu: +0.270297717  nElectrons: 512.000000
SCF: Cycle:  3   F: -1872.801035090815276   dF: -8.375e-08   |Residual|: 6.567e-05   |deigs|: 4.680e-06  t[s]:   4491.88
	FillingsUpdate:  mu: +0.270297727  nElectrons: 512.000000
SCF: Cycle:  4   F: -1872.801035103670756   dF: -1.286e-08   |Residual|: 3.813e-05   |deigs|: 3.939e-06  t[s]:   4596.69
	FillingsUpdate:  mu: +0.270297733  nElectrons: 512.000000
SCF: Cycle:  5   F: -1872.801035110087696   dF: -6.417e-09   |Residual|: 1.643e-05   |deigs|: 3.904e-06  t[s]:   4700.37
	FillingsUpdate:  mu: +0.270297729  nElectrons: 512.000000
SCF: Cycle:  6   F: -1872.801035111537885   dF: -1.450e-09   |Residual|: 9.991e-06   |deigs|: 3.948e-06  t[s]:   4802.32
SCF: Converged (|Delta E|<1.000000e-08 for 2 iters).

Setting wave functions to eigenvectors of Hamiltonian

# Ionic positions in lattice coordinates:
ion W   0.129870616593679   0.125176070060949   0.220554243937569 1
ion W   0.116082556317985   0.125089859787131   0.720468892971132 1
ion W   0.380777208820845   0.370940834445069   0.283291734417412 1
ion W   0.366933530379421   0.370875894292170   0.783191934442303 1
ion W   0.130882944674242   0.624474074284703   0.220255168609098 1
ion W   0.116755570228101   0.624102802141047   0.720382735537815 1
ion W   0.380043521334376   0.871934221678281   0.283305415867741 1
ion W   0.365950227397811   0.871528789338568   0.783426746962789 1
ion W   0.630953636612662   0.124430503026132   0.220375548595773 1
ion W   0.616830673293226   0.124050116431373   0.720392420667789 1
ion W   0.880095142233166   0.371958131889096   0.283303860955762 1
ion W   0.865932081514816   0.371552573431355   0.783321841908096 1
ion W   0.629857646542078   0.625146690092427   0.220566803620755 1
ion W   0.616068437323889   0.625057612662369   0.720559524223914 1
ion W   0.880821397969538   0.870857314057433   0.283471338326826 1
ion W   0.866966679434366   0.870851846084058   0.783398824875124 1
ion O   0.015828013347731   0.268487607236041   0.721284007014227 1
ion O   0.230970445780953   0.268199730494912   0.220171256619354 1
ion O   0.016918263274096   0.481499239634556   0.283938804519802 1
ion O   0.230168581846570   0.481111314892238   0.782781605896794 1
ion O   0.091956880876015   0.123527040017732   0.994515714774398 1
ion O   0.154255669760662   0.124639455083072   0.494392039746256 1
ion O   0.480024484005936   0.014503671687739   0.719841820586313 1
ion O   0.266405638420376   0.014692354789352   0.221107963498305 1
ion O   0.481199456295128   0.227688028566846   0.282831892844783 1
ion O   0.265924380898267   0.227831845972052   0.783586568318083 1
ion O   0.405040372372390   0.372489269757156   0.009228417253955 1
ion O   0.342561689963758   0.371626633029574   0.509303527950147 1
ion O   0.016315777488358   0.767871228831188   0.721126815479680 1
ion O   0.230850182742660   0.768086390758206   0.220059583648300 1
ion O   0.016756225867385   0.981525045302711   0.283713060461645 1
ion O   0.229713890894315   0.981715608258341   0.782740526640534 1
ion O   0.092336719191637   0.622890119641720   0.994389709702955 1
ion O   0.155246943461243   0.623778274405916   0.494431443240149 1
ion O   0.479831008550610   0.514677844142464   0.720222651462239 1
ion O   0.267183706797628   0.514395662977660   0.220612537734020 1
ion O   0.480704632634183   0.728234156668692   0.282610138096437 1
ion O   0.265981995561826   0.727869063791432   0.783926395710983 1
ion O   0.404259308411248   0.873403298628322   0.009389503921241 1
ion O   0.341863988214558   0.872030147378123   0.509338839166276 1
ion O   0.516349430671164   0.267782346632637   0.721164901605531 1
ion O   0.730967095315578   0.268038750994072   0.220099481116825 1
ion O   0.516808908349014   0.481562264729054   0.283808271123066 1
ion O   0.729552093250959   0.481607400623925   0.782779214448012 1
ion O   0.592477374005817   0.122685821510727   0.994526240342924 1
ion O   0.655257348944019   0.123714163195572   0.494383251310613 1
ion O   0.979962702358799   0.014628393964345   0.720308293380923 1
ion O   0.767064797823912   0.014131742446275   0.220792748467154 1
ion O   0.980577583581121   0.228165981679989   0.282593505340841 1
ion O   0.766024179434267   0.227860181828701   0.783902625531721 1
ion O   0.904177656691560   0.373472779319865   0.009278441464428 1
ion O   0.841917808324737   0.372027181500666   0.509373300169384 1
ion O   0.515719172786198   0.768384332576630   0.721328481749766 1
ion O   0.730994418698172   0.768104949152850   0.220266511368638 1
ion O   0.516682576966354   0.981654242139674   0.284031544579544 1
ion O   0.730363764514153   0.981278611815009   0.782984935045418 1
ion O   0.591836730811731   0.623471073648240   0.994565506085013 1
ion O   0.654346714646093   0.624515918680271   0.494539330906367 1
ion O   0.979854660958895   0.514630510300945   0.719649047045265 1
ion O   0.766502855815105   0.514712407425379   0.221260459602626 1
ion O   0.981142715663427   0.727489765532761   0.283214372193355 1
ion O   0.765919913694542   0.727819823172606   0.783870949356198 1
ion O   0.905180084483741   0.872310418546754   0.009367864935877 1
ion O   0.842699284882914   0.871590572934850   0.509528862623732 1

# Forces in Lattice coordinates:
force W   0.000462136192529   0.001681834793874   0.000726147603625 1
force W   0.000797675734035   0.000156840164795  -0.001646428117710 1
force W  -0.001290583605268   0.003313877129822  -0.001312636072130 1
force W  -0.001992579219686   0.002234344855687   0.002926599764723 1
force W  -0.001418309413901   0.000355843771332   0.002975150558845 1
force W  -0.000825924753779  -0.000005360141195  -0.001170437836133 1
force W   0.000617652214209  -0.000913183541159   0.000049590742284 1
force W   0.001583645733759  -0.001353284625074   0.000882867794232 1
force W  -0.004437844036350   0.002542146716838   0.001215095473793 1
force W  -0.002350265989287   0.005140816231167   0.000477485900081 1
force W  -0.000091942967078  -0.000885427498867   0.000306415405032 1
force W   0.003300131918463  -0.000189909416188   0.001211429239203 1
force W   0.001429762110792  -0.001255425995217   0.002881876412033 1
force W   0.002219977604092  -0.002857595385495  -0.002999658761306 1
force W  -0.002097931354659   0.001849635668739   0.000780057426866 1
force W  -0.000826179764279  -0.001159070151985   0.000210349432309 1
force O  -0.000676498984863  -0.000350808001106  -0.000492923516847 1
force O  -0.000263872438130  -0.002728652918814  -0.000335545916752 1
force O   0.000473457237536  -0.001139293653032  -0.000861133643747 1
force O  -0.001240322209068   0.003421463973109  -0.000351465410180 1
force O   0.000917291301961   0.001287682298476  -0.002932291966255 1
force O  -0.000012618487778  -0.003570534865648   0.002039827687318 1
force O  -0.000714342204335   0.000288690590143  -0.000195896556838 1
force O   0.002554623531111   0.000658457107426   0.001313473685781 1
force O  -0.000517024080402   0.000045735491513  -0.000704433236735 1
force O   0.002298699639585  -0.000969035988726  -0.000156028233278 1
force O  -0.001537849035640  -0.000920065259572  -0.000455314958582 1
force O  -0.001093988177741   0.000912638003677   0.001377772871723 1
force O  -0.002085357188574   0.001669012674103  -0.000828180971364 1
force O   0.002797475230873   0.001084863823144   0.000076518879539 1
force O   0.003302187461392  -0.000622184493131  -0.000777084014872 1
force O  -0.000147535436313  -0.001164418758605   0.000173595656832 1
force O   0.000042998374493   0.001068267566656  -0.000250390063010 1
force O  -0.002295872113728   0.001561603567712   0.001411063052197 1
force O   0.000252941267168  -0.000417775908023  -0.001222750174585 1
force O  -0.001358406245748  -0.000483104476049   0.000042388378517 1
force O  -0.003627929925058   0.002494236308428  -0.001005129114689 1
force O  -0.000192477381512   0.001756711707638  -0.001810414873241 1
force O   0.001460968626915  -0.002450320347108  -0.001855087287961 1
force O   0.000180847732307   0.001012678355023   0.002646157075849 1
force O  -0.004105111272119   0.003062201023958  -0.000563185931660 1
force O  -0.000539698630271  -0.002920885040661  -0.000577815848149 1
force O   0.001811371311455  -0.000858490483673  -0.001305719558552 1
force O   0.001003121949345  -0.000142901533726   0.000112740685930 1
force O  -0.000371058501984   0.003945875497471  -0.003978382932079 1
force O  -0.003349745719452   0.001723287070332   0.004472854327769 1
force O  -0.000906611199812   0.000639392271093  -0.000649712201496 1
force O   0.000167079279288   0.002508958526746  -0.000312727476024 1
force O   0.001976957619423  -0.000241352839143  -0.002672365951234 1
force O  -0.000844908379324   0.000755544884346  -0.002437493970803 1
force O   0.003929350802775  -0.002647297052814   0.001544600277274 1
force O   0.000507564615378   0.001508594375966  -0.000765034206421 1
force O   0.001609766664095   0.001770039554529  -0.001605746074960 1
force O   0.002881811643454   0.000228124984733  -0.000295914850960 1
force O   0.003026429686261  -0.000836209042285  -0.000668373875771 1
force O  -0.000366653375199  -0.001954814794368  -0.000783001729029 1
force O   0.002924535267974   0.000994561285968  -0.002554046662226 1
force O  -0.001440295827579  -0.000228066426872   0.001525454907199 1
force O   0.000627030302931   0.000977365625997   0.001718486504379 1
force O   0.001298056059800   0.000885528395795  -0.000453127550765 1
force O  -0.001312904134339   0.002830408852860  -0.002894066933511 1
force O  -0.000384981947316   0.000669581273576  -0.001863449824372 1
force O  -0.001791893531678   0.000979774274661   0.002722515677823 1
force O  -0.003601405702961   0.001579446715519  -0.002227686089921 1

# Energy components:
   Eewald =    -1201.7032658985483522
       EH =      550.6060877230002006
     Eloc =    -1495.9747967394046100
      Enl =     -125.6124221369954057
      Exc =     -499.2811533819404985
 Exc_core =      174.5590288653585276
       KE =      724.6293906695775604
-------------------------------------
     Etot =    -1872.7771308989529189
       TS =        0.0239042125850640
-------------------------------------
        F =    -1872.8010351115378853

IonicMinimize: Iter:   2  F: -1872.801035111537885  |grad|_K:  1.003e-04  alpha:  1.000e+00  linmin: -6.232e-01  t[s]:   4834.63

#--- Lowdin population analysis ---
# oxidation-state W +1.002 +1.002 +1.002 +1.002 +1.002 +1.002 +1.002 +1.002 +1.002 +1.002 +1.002 +1.002 +1.003 +1.002 +1.002 +1.002
# oxidation-state O -0.316 -0.317 -0.311 -0.312 -0.283 -0.284 -0.311 -0.312 -0.316 -0.317 -0.283 -0.283 -0.318 -0.317 -0.311 -0.311 -0.283 -0.283 -0.311 -0.311 -0.318 -0.317 -0.283 -0.283 -0.318 -0.317 -0.311 -0.311 -0.283 -0.283 -0.311 -0.310 -0.318 -0.317 -0.283 -0.283 -0.316 -0.317 -0.311 -0.312 -0.283 -0.283 -0.311 -0.312 -0.316 -0.317 -0.283 -0.283


-------- Electronic minimization -----------
Will mix electronic density at each iteration.
	FillingsUpdate:  mu: +0.270297729  nElectrons: 512.000000
	FillingsUpdate:  mu: +0.270289183  nElectrons: 512.000000
SCF: Cycle:  0   F: -1872.801022544251055   dF: +6.332e-06   |Residual|: 2.525e-03   |deigs|: 3.383e-06  t[s]:   5018.39
	FillingsUpdate:  mu: +0.270288310  nElectrons: 512.000000
SCF: Cycle:  1   F: -1872.801035388278251   dF: -1.284e-05   |Residual|: 2.062e-03   |deigs|: 1.000e-05  t[s]:   5123.48
	FillingsUpdate:  mu: +0.270288134  nElectrons: 512.000000
SCF: Cycle:  2   F: -1872.801040562118715   dF: -5.174e-06   |Residual|: 3.554e-04   |deigs|: 6.961e-06  t[s]:   5226.81
	FillingsUpdate:  mu: +0.270287919  nElectrons: 512.000000
SCF: Cycle:  3   F: -1872.801040918943499   dF: -3.568e-07   |Residual|: 1.377e-04   |deigs|: 4.118e-06  t[s]:   5333.20
	FillingsUpdate:  mu: +0.270287909  nElectrons: 512.000000
SCF: Cycle:  4   F: -1872.801040962892330   dF: -4.395e-08   |Residual|: 7.938e-05   |deigs|: 3.426e-06  t[s]:   5437.08
	FillingsUpdate:  mu: +0.270287916  nElectrons: 512.000000
SCF: Cycle:  5   F: -1872.801040989087596   dF: -2.620e-08   |Residual|: 3.336e-05   |deigs|: 3.583e-06  t[s]:   5538.97
	FillingsUpdate:  mu: +0.270287913  nElectrons: 512.000000
SCF: Cycle:  6   F: -1872.801040994567074   dF: -5.479e-09   |Residual|: 1.978e-05   |deigs|: 3.711e-06  t[s]:   5642.06
	FillingsUpdate:  mu: +0.270287902  nElectrons: 512.000000
SCF: Cycle:  7   F: -1872.801040996053644   dF: -1.487e-09   |Residual|: 1.095e-05   |deigs|: 3.647e-06  t[s]:   5746.96
SCF: Converged (|Delta E|<1.000000e-08 for 2 iters).

Setting wave functions to eigenvectors of Hamiltonian

# Ionic positions in lattice coordinates:
ion W   0.129872357505334   0.125152886214360   0.220522124358904 1
ion W   0.116088090035888   0.125062516972861   0.720495379577741 1
ion W   0.380744902115568   0.370977629727217   0.283305067945340 1
ion W   0.366898147612256   0.370899770263792   0.783233384495376 1
ion W   0.130853610841127   0.624496339364378   0.220300328400256 1
ion W   0.116752572463316   0.624109603300559   0.720411731037001 1
ion W   0.380032857154178   0.871943086420823   0.283362410480653 1
ion W   0.365975772378870   0.871505705524295   0.783415631023268 1
ion W   0.630881244830487   0.124428813848373   0.220344691183221 1
ion W   0.616773011468579   0.124105353155930   0.720481281690974 1
ion W   0.880094976985561   0.371925407524476   0.283299790764635 1
ion W   0.865979674029245   0.371529830635602   0.783380109644328 1
ion W   0.629883041220816   0.625129535066110   0.220575588988621 1
ion W   0.616086022613474   0.625024532007407   0.720564712439183 1
ion W   0.880798907739812   0.870904388024728   0.283458349484611 1
ion W   0.866960528857352   0.870837874061552   0.783458589340670 1
ion O   0.015798949813519   0.268495919440380   0.721273419194194 1
ion O   0.230980226354656   0.268168634568951   0.220170553722316 1
ion O   0.016928461776941   0.481474424803371   0.283923492180859 1
ion O   0.230143376171328   0.481165601187516   0.782771295354347 1
ion O   0.091979360941979   0.123546037952990   0.994472712625107 1
ion O   0.154265587622698   0.124575883824940   0.494409565561631 1
ion O   0.480025959140432   0.014509193719454   0.719835526311773 1
ion O   0.266432938155975   0.014708375294715   0.221158029831448 1
ion O   0.481182932590577   0.227693603588719   0.282819985434090 1
ion O   0.265972899798187   0.227815115435623   0.783589533790815 1
ion O   0.405024666944820   0.372466974202782   0.009272354046485 1
ion O   0.342554048058849   0.371632503599827   0.509300199672680 1
ion O   0.016288662360058   0.767881535796310   0.721098460338023 1
ion O   0.230885928204498   0.768080023389995   0.220065815270141 1
ion O   0.016813575890619   0.981512564161370   0.283699006012792 1
ion O   0.229703200355899   0.981698934341656   0.782748791507445 1
ion O   0.092344515523537   0.622897595825151   0.994433606737210 1
ion O   0.155216793147405   0.623793647985406   0.494436397355299 1
ion O   0.479833700444058   0.514657855315151   0.720186880740837 1
ion O   0.267169575246391   0.514373432210442   0.220620565093526 1
ion O   0.480658378332641   0.728248164971420   0.282583978312652 1
ion O   0.265967911237452   0.727877822955972   0.783873087627101 1
ion O   0.404291290811720   0.873356577679271   0.009377136993407 1
ion O   0.341874201427651   0.872034445167911   0.509390782701441 1
ion O   0.516267945809530   0.267842957248755   0.721151480512113 1
ion O   0.730969178323606   0.267998084970241   0.220093770075342 1
ion O   0.516847282883847   0.481547515480912   0.283776262024515 1
ion O   0.729575798105240   0.481592089870316   0.782784545699808 1
ion O   0.592481859370048   0.122745705183402   0.994457312134777 1
ion O   0.655215115519370   0.123732268865410   0.494475132249441 1
ion O   0.979957548579956   0.014640740330839   0.720286124193920 1
ion O   0.767053820760381   0.014177057418956   0.220792649397898 1
ion O   0.980599617154440   0.228172255096645   0.282522640240891 1
ion O   0.766025762039191   0.227883507419726   0.783829445876938 1
ion O   0.904241954062659   0.373424560573725   0.009329422343852 1
ion O   0.841924385969819   0.372045588720365   0.509364316438493 1
ion O   0.515758137597126   0.768396616616163   0.721279007079238 1
ion O   0.731027686287026   0.768082193786175   0.220265784628227 1
ion O   0.516741501983439   0.981639913071628   0.284017486211488 1
ion O   0.730367694345832   0.981230252599161   0.782963293854815 1
ion O   0.591897620434289   0.623480843614675   0.994574302059853 1
ion O   0.654337063115220   0.624504114357631   0.494511386176011 1
ion O   0.979859343161767   0.514631617463593   0.719700179621212 1
ion O   0.766517900585452   0.514725683182931   0.221258689962222 1
ion O   0.981136245872686   0.727507921197436   0.283132326182094 1
ion O   0.765905682007983   0.727817342435146   0.783812668361376 1
ion O   0.905145508398649   0.872315570940919   0.009431902826340 1
ion O   0.842632489428694   0.871607460023464   0.509499524578738 1

# Forces in Lattice coordinates:
force W   0.000838400568011   0.004446149903177   0.002410039147410 1
force W   0.001072887160511   0.000925665257449  -0.004131517109408 1
force W   0.000511461142798   0.003112361930390  -0.002331193957844 1
force W  -0.000995911277388   0.001487213935045   0.003134558728004 1
force W  -0.001507162109162  -0.001522259389059   0.003086016564591 1
force W  -0.002972361271003   0.001379771270149  -0.002989875328995 1
force W   0.002504347410149  -0.003158181362426  -0.002505199142632 1
force W   0.001869242787172  -0.000160920395318   0.002415484405697 1
force W  -0.001875695233446   0.005011173701602   0.004719848374326 1
force W   0.001115904437630   0.003854452303006  -0.003972769561212 1
force W  -0.000713318436028   0.001700802752689   0.001545481614913 1
force W   0.001986149820071   0.001185346414125  -0.000923725239962 1
force W   0.000233149279720  -0.000207547873316   0.004287641738794 1
force W   0.002167105014188  -0.002412110404392  -0.004967230274099 1
force W  -0.003113072635069   0.000621213752725   0.002381657208229 1
force W  -0.003160760104482   0.000150329343725  -0.002866109048040 1
force O   0.003006501505669  -0.002751931343810  -0.000778770406472 1
force O  -0.000350766212378  -0.002276341948250   0.000075868384949 1
force O   0.000392061376490  -0.000299516066673  -0.000725573584925 1
force O   0.000564769777565   0.000539170355651   0.000474942669063 1
force O   0.000698410207876   0.000671674680952  -0.002484805628011 1
force O  -0.000780936845659  -0.001679809341993   0.002759399386231 1
force O  -0.002342459055865  -0.000071640663097   0.000693140384901 1
force O   0.004026890378893  -0.000691694094910   0.000336063558445 1
force O  -0.000259334614183  -0.000108300076440  -0.000745857694777 1
force O  -0.000637758750091  -0.000282014998174  -0.000390109174577 1
force O  -0.002130771803882   0.000407683725858  -0.002282181229110 1
force O  -0.001988111430970   0.001634678647847   0.002632822383181 1
force O  -0.001415340758514   0.001452095076314  -0.000090358067194 1
force O   0.001896220158642   0.001105245595903   0.000467571964883 1
force O   0.001186407881854  -0.001288644237390  -0.000648623315751 1
force O   0.001560678640744  -0.001783750155764   0.000408553423678 1
force O  -0.000028528132990   0.001367465588071  -0.001846421329102 1
force O  -0.002435515361572   0.001242263129565   0.002025192606118 1
force O   0.000057573636933   0.000859670894242  -0.000281026358336 1
force O  -0.001619982525451   0.000791092506649   0.000365825134018 1
force O  -0.000681704950827   0.000919171157873  -0.000787757124363 1
force O   0.000411307032413   0.001588236342829  -0.001073542980760 1
force O   0.000530437840820  -0.001457756620193  -0.001913570725051 1
force O   0.000009419025401   0.001497951867952   0.001765608482697 1
force O  -0.000069228400078  -0.000280338603424  -0.000573798883617 1
force O  -0.000386571887878  -0.001313506170163  -0.000064510101009 1
force O  -0.000438362870150  -0.001617901642810  -0.000942387437626 1
force O   0.000810399905149   0.000459292984288   0.000386415630780 1
force O  -0.001378983454467   0.003224709702270  -0.002869765027575 1
force O  -0.003906103798090   0.002300893139392   0.003009301821693 1
force O  -0.001693715430673  -0.000513567266976   0.000153420415415 1
force O   0.001284380968409   0.001021976656162  -0.000179225229306 1
force O   0.002525368861228  -0.002263851183381  -0.001517145460262 1
force O  -0.001611024575407  -0.000113969455578  -0.001106727556764 1
force O   0.002731603609852  -0.001995456176390   0.000643370200006 1
force O   0.001004094353425   0.001120900990744  -0.000988628706919 1
force O   0.000493502181172   0.000419897116375  -0.000794774576253 1
force O   0.002015517168810   0.001265502652397  -0.000012917469415 1
force O   0.000224948480856  -0.001977090217462  -0.000517242242087 1
force O  -0.002362032589506   0.001968518853821  -0.000465240350325 1
force O   0.001280620778807   0.000595452209703  -0.004705355152387 1
force O  -0.001728335976309  -0.000444127227602   0.003475012974826 1
force O   0.000290221145346   0.001108211654032   0.001693607914877 1
force O   0.002697665576633  -0.001039744477454  -0.000698860801794 1
force O  -0.001701538623888   0.003788818598289  -0.001749039168769 1
force O   0.001364119462659   0.000470997325611  -0.000986297661847 1
force O  -0.000829726861287   0.000940798265202   0.001486782968871 1
force O  -0.001324482386704   0.001564004297776  -0.002591527107978 1

# Energy components:
   Eewald =    -1201.6999246789628160
       EH =      550.6091945058352621
     Eloc =    -1495.9809877420866542
      Enl =     -125.6122936840674527
      Exc =     -499.2810202297499700
 Exc_core =      174.5590288252655569
       KE =      724.6288883804785428
-------------------------------------
     Etot =    -1872.7771146232876163
       TS =        0.0239263727660323
-------------------------------------
        F =    -1872.8010409960536435

IonicMinimize: Iter:   3  F: -1872.801040996053644  |grad|_K:  1.097e-04  alpha:  1.000e+00  linmin: -2.342e-01  t[s]:   5778.91

#--- Lowdin population analysis ---
# oxidation-state W +1.003 +1.002 +1.002 +1.002 +1.002 +1.002 +1.002 +1.002 +1.002 +1.002 +1.002 +1.002 +1.002 +1.002 +1.002 +1.002
# oxidation-state O -0.316 -0.317 -0.311 -0.312 -0.283 -0.284 -0.311 -0.312 -0.316 -0.317 -0.283 -0.283 -0.318 -0.317 -0.311 -0.311 -0.283 -0.283 -0.311 -0.311 -0.318 -0.317 -0.283 -0.283 -0.318 -0.317 -0.311 -0.311 -0.283 -0.283 -0.311 -0.311 -0.318 -0.317 -0.283 -0.283 -0.316 -0.317 -0.311 -0.312 -0.283 -0.283 -0.311 -0.312 -0.316 -0.317 -0.283 -0.283


-------- Electronic minimization -----------
Will mix electronic density at each iteration.
	FillingsUpdate:  mu: +0.270287902  nElectrons: 512.000000
	FillingsUpdate:  mu: +0.270279735  nElectrons: 512.000000
SCF: Cycle:  0   F: -1872.801039847569427   dF: -5.803e-06   |Residual|: 1.500e-03   |deigs|: 3.080e-06  t[s]:   5954.15
	FillingsUpdate:  mu: +0.270279397  nElectrons: 512.000000
SCF: Cycle:  1   F: -1872.801044093470182   dF: -4.246e-06   |Residual|: 9.796e-04   |deigs|: 6.645e-06  t[s]:   6057.03
	FillingsUpdate:  mu: +0.270279266  nElectrons: 512.000000
SCF: Cycle:  2   F: -1872.801045101138925   dF: -1.008e-06   |Residual|: 2.821e-04   |deigs|: 4.403e-06  t[s]:   6160.81
	FillingsUpdate:  mu: +0.270279212  nElectrons: 512.000000
SCF: Cycle:  3   F: -1872.801045317185753   dF: -2.160e-07   |Residual|: 9.195e-05   |deigs|: 3.610e-06  t[s]:   6262.81
	FillingsUpdate:  mu: +0.270279179  nElectrons: 512.000000
SCF: Cycle:  4   F: -1872.801045337198502   dF: -2.001e-08   |Residual|: 5.699e-05   |deigs|: 3.198e-06  t[s]:   6365.02
	FillingsUpdate:  mu: +0.270279187  nElectrons: 512.000000
SCF: Cycle:  5   F: -1872.801045348091293   dF: -1.089e-08   |Residual|: 1.961e-05   |deigs|: 3.623e-06  t[s]:   6469.05
	FillingsUpdate:  mu: +0.270279193  nElectrons: 512.000000
SCF: Cycle:  6   F: -1872.801045351319090   dF: -3.228e-09   |Residual|: 1.178e-05   |deigs|: 3.787e-06  t[s]:   6572.00
	FillingsUpdate:  mu: +0.270279182  nElectrons: 512.000000
SCF: Cycle:  7   F: -1872.801045352323854   dF: -1.005e-09   |Residual|: 6.779e-06   |deigs|: 3.888e-06  t[s]:   6675.32
SCF: Converged (|Delta E|<1.000000e-08 for 2 iters).

Setting wave functions to eigenvectors of Hamiltonian

# Ionic positions in lattice coordinates:
ion W   0.129880458560752   0.125137277154726   0.220498999317705 1
ion W   0.116094711944273   0.125020710999886   0.720490160451486 1
ion W   0.380723047844191   0.371027191754074   0.283314108055565 1
ion W   0.366861004387193   0.370923087432621   0.783282363434583 1
ion W   0.130805793108433   0.624511107660670   0.220350734263357 1
ion W   0.116714110145614   0.624151889006410   0.720425509028101 1
ion W   0.380038678214186   0.871938854541116   0.283391287869610 1
ion W   0.366021937861763   0.871492265542561   0.783428126634778 1
ion W   0.630816376862895   0.124445743982311   0.220379702010048 1
ion W   0.616738941451226   0.124159718958258   0.720504189432820 1
ion W   0.880079379222100   0.371913467069641   0.283324495485586 1
ion W   0.866021586682521   0.371512317184069   0.783405086714529 1
ion W   0.629906283901411   0.625123356221215   0.220597404574649 1
ion W   0.616106868254896   0.624990887407056   0.720547415920125 1
ion W   0.880746473061304   0.870971996670284   0.283475296485651 1
ion W   0.866908628362737   0.870846467378892   0.783468847039141 1
ion O   0.015808135721183   0.268478905130821   0.721247916047217 1
ion O   0.231000339528815   0.268137759331256   0.220184116032730 1
ion O   0.016944662969631   0.481450478188252   0.283906264691158 1
ion O   0.230131677752738   0.481204547235881   0.782781649927198 1
ion O   0.092013033019626   0.123566831267866   0.994438617563079 1
ion O   0.154271740849638   0.124509316514015   0.494433489871282 1
ion O   0.480005302525003   0.014514337282696   0.719851787169997 1
ion O   0.266490653043393   0.014719287785671   0.221207781761346 1
ion O   0.481155923470252   0.227706371875360   0.282802994526754 1
ion O   0.266001667926018   0.227803294310401   0.783586753575564 1
ion O   0.404993577302253   0.372455292525443   0.009304214550394 1
ion O   0.342530623603028   0.371652393776399   0.509313188165780 1
ion O   0.016262217604124   0.767886834920028   0.721073830375221 1
ion O   0.230918424164689   0.768059475362529   0.220087489233100 1
ion O   0.016867688592822   0.981484580993738   0.283683737723170 1
ion O   0.229710396599231   0.981667498094666   0.782767912792601 1
ion O   0.092357809437505   0.622913421082898   0.994472099571766 1
ion O   0.155169796177310   0.623810405023277   0.494444461430858 1
ion O   0.479831602637070   0.514642566321864   0.720159082003288 1
ion O   0.267145355020022   0.514357106538134   0.220643443965098 1
ion O   0.480645140076763   0.728231317203388   0.282551324631012 1
ion O   0.265949322023187   0.727880123533657   0.783812433213538 1
ion O   0.404327898809721   0.873299107609615   0.009371460088344 1
ion O   0.341889951858809   0.872047424263236   0.509428807774720 1
ion O   0.516201941542169   0.267892456607560   0.721132011874227 1
ion O   0.730981167261864   0.267969150147973   0.220103821404256 1
ion O   0.516871506106531   0.481514120559560   0.283739493511421 1
ion O   0.729613751803053   0.481574261297223   0.782799395489760 1
ion O   0.592475050399173   0.122826836013959   0.994407188567270 1
ion O   0.655144785203910   0.123770924465991   0.494550356623625 1
ion O   0.979941785611533   0.014645829983320   0.720273890275049 1
ion O   0.767047752846302   0.014228557586197   0.220800899236384 1
ion O   0.980637563792189   0.228154543549164   0.282454086461978 1
ion O   0.766023409147520   0.227914302878583   0.783756460923361 1
ion O   0.904320907807199   0.373361925554913   0.009380093968305 1
ion O   0.841942336989837   0.372067884692484   0.509347327559050 1
ion O   0.515804492721775   0.768387942551554   0.721226594176990 1
ion O   0.731055650643394   0.768053186152892   0.220274546036252 1
ion O   0.516788231068271   0.981600341511230   0.284001570473663 1
ion O   0.730344597836004   0.981214494986310   0.782935267507327 1
ion O   0.591968472720177   0.623490060100867   0.994556264127801 1
ion O   0.654322694085007   0.624480465485699   0.494495011155142 1
ion O   0.979858079646460   0.514632868099996   0.719775351860194 1
ion O   0.766560780143666   0.514717357355834   0.221252930656522 1
ion O   0.981128071745167   0.727537645788845   0.283042206817053 1
ion O   0.765909411791781   0.727805805137394   0.783746803288173 1
ion O   0.905105950268045   0.872322080985546   0.009483270059618 1
ion O   0.842564388240650   0.871631943372020   0.509456574543627 1

# Forces in Lattice coordinates:
force W   0.001347373000891   0.006074193634695   0.002798700312869 1
force W   0.002784248300828   0.002092954770050  -0.002872862181318 1
force W  -0.002462506169313   0.002267994856067  -0.000964423176647 1
force W  -0.002996306856505   0.001015415390585   0.001177800798815 1
force W  -0.001216809671023  -0.000921431633725   0.002537744622531 1
force W   0.000330282501612   0.000086646381184  -0.002850659657103 1
force W  -0.000090435724527  -0.004438783643453  -0.002090351431771 1
force W  -0.000456300222588  -0.001072112359298   0.000794854847153 1
force W  -0.003328362723988   0.006757546180151  -0.000069108635840 1
force W  -0.002610057562824   0.004903080197081   0.000362327852693 1
force W   0.003484101783233   0.000481134147410  -0.002434302251970 1
force W   0.004453437852429   0.002246333640004   0.002129085358543 1
force W  -0.000940553593860  -0.000774741763624   0.002024670988434 1
force W  -0.000685873827838  -0.003414156622209  -0.003480293367301 1
force W   0.002219493747444  -0.002007337532397  -0.002196280948094 1
force W  -0.000596997278544   0.001279617629286   0.000447031324578 1
force O   0.002852702129958  -0.002808838361223  -0.001008295309653 1
force O  -0.000727396085077  -0.002529369301620   0.000399183642415 1
force O  -0.000908895962757  -0.000509448104092  -0.000072086535091 1
force O   0.000924896965006  -0.000362637191937   0.000652007644391 1
force O   0.000589062259781  -0.000635025329484  -0.001750664500273 1
force O  -0.000482542315370  -0.001026793375550   0.000990451396264 1
force O  -0.000602030978465   0.001060156768664   0.000946092594149 1
force O   0.004065126560445  -0.001684441268659  -0.000382623095998 1
force O   0.001686010713940  -0.002215275388577  -0.000500383217028 1
force O  -0.002401110672495  -0.000520297910310  -0.000764592597391 1
force O  -0.001280586394557   0.001241995663318  -0.001761934531957 1
force O  -0.001380577774152   0.001875823436041   0.001609076218473 1
force O  -0.003692954276359   0.004273751559060   0.000249794139935 1
force O   0.001905106978776   0.001683901639977   0.000942950344647 1
force O  -0.001357362958080  -0.001937362130400  -0.000217900235160 1
force O   0.002183651737609  -0.001818297476766   0.000569626657855 1
force O  -0.000507729682433   0.001630516233914  -0.003255413750798 1
force O  -0.002694451231458   0.000986945146839   0.002081958011700 1
force O   0.001935116621764   0.002717043000316   0.000322823560094 1
force O  -0.001069718672750   0.001308053553430   0.000722482313621 1
force O   0.001735144913886  -0.000301426409369  -0.000417930358410 1
force O   0.002262747194656   0.003044117724037  -0.000524054881670 1
force O   0.000966856597708  -0.000768701993300  -0.000556843426003 1
force O   0.001083823699939   0.001177159502773  -0.000159807477103 1
force O   0.004458086450198  -0.004271814907934  -0.000916468823746 1
force O  -0.000848891797688  -0.000845375637907   0.000799349594172 1
force O   0.001427911838933   0.000543335881761  -0.000644581861651 1
force O  -0.000181957017855   0.001279751942713   0.000275549835529 1
force O  -0.000114430980248   0.002113459660684   0.002187287090040 1
force O  -0.001880591444467   0.001654594496836  -0.002872600214103 1
force O  -0.003481716086753  -0.002643991056813   0.000441501863870 1
force O   0.001857069696526  -0.000434046838704   0.000416929774000 1
force O   0.000291963107277  -0.001068553747273   0.000058186660265 1
force O  -0.002940682581999  -0.002634792042301  -0.000721452365553 1
force O   0.000054262180701  -0.001791840781092  -0.003399961017140 1
force O   0.000089546278151   0.000532711420345   0.002323084154750 1
force O  -0.000499123294831   0.000654428989998  -0.000204688934884 1
force O   0.000996910528120   0.002416122014560   0.000328639657774 1
force O   0.001284954335792  -0.000819710769477  -0.000312611055949 1
force O  -0.003824249178979   0.003758642483894  -0.000318040886087 1
force O   0.001133338530670   0.000339535950802  -0.003152325367346 1
force O  -0.000438124598795  -0.000857612033355   0.002027069961726 1
force O  -0.000709754278668   0.000622091527139   0.001159636557690 1
force O   0.001221115039559  -0.000446728034347  -0.000529367780292 1
force O  -0.003992150134566   0.006066474682892  -0.000262320274001 1
force O   0.002411699102514   0.000912994116951  -0.000633955996350 1
force O  -0.002441559839114   0.001111025639318  -0.003774007174638 1
force O  -0.001502003915996   0.001874893203276   0.001706486630635 1

# Energy components:
   Eewald =    -1201.6910873791134691
       EH =      550.6177890409762767
     Eloc =    -1495.9988185388363036
      Enl =     -125.6122226407718756
      Exc =     -499.2812439501539075
 Exc_core =      174.5590286379172085
       KE =      724.6294548492937793
-------------------------------------
     Etot =    -1872.7770999806884902
       TS =        0.0239453716353942
-------------------------------------
        F =    -1872.8010453523238539

IonicMinimize: Iter:   4  F: -1872.801045352323854  |grad|_K:  1.103e-04  alpha:  1.000e+00  linmin: -1.471e-01  t[s]:   6708.23

#--- Lowdin population analysis ---
# oxidation-state W +1.003 +1.002 +1.002 +1.002 +1.002 +1.002 +1.002 +1.002 +1.002 +1.002 +1.002 +1.002 +1.003 +1.002 +1.002 +1.002
# oxidation-state O -0.317 -0.317 -0.311 -0.312 -0.283 -0.283 -0.311 -0.312 -0.317 -0.317 -0.283 -0.283 -0.318 -0.317 -0.311 -0.311 -0.283 -0.283 -0.311 -0.311 -0.318 -0.317 -0.283 -0.283 -0.318 -0.317 -0.311 -0.311 -0.283 -0.283 -0.311 -0.311 -0.318 -0.317 -0.284 -0.283 -0.316 -0.316 -0.311 -0.312 -0.283 -0.283 -0.311 -0.312 -0.317 -0.316 -0.283 -0.283


-------- Electronic minimization -----------
Will mix electronic density at each iteration.
	FillingsUpdate:  mu: +0.270279182  nElectrons: 512.000000
	FillingsUpdate:  mu: +0.270267656  nElectrons: 512.000000
SCF: Cycle:  0   F: -1872.801033463160138   dF: -6.114e-06   |Residual|: 2.444e-03   |deigs|: 3.317e-06  t[s]:   6882.08
	FillingsUpdate:  mu: +0.270266963  nElectrons: 512.000000
SCF: Cycle:  1   F: -1872.801045350167442   dF: -1.189e-05   |Residual|: 1.757e-03   |deigs|: 8.997e-06  t[s]:   6984.12
	FillingsUpdate:  mu: +0.270266819  nElectrons: 512.000000
SCF: Cycle:  2   F: -1872.801049010460019   dF: -3.660e-06   |Residual|: 4.130e-04   |deigs|: 4.932e-06  t[s]:   7091.16
	FillingsUpdate:  mu: +0.270266673  nElectrons: 512.000000
SCF: Cycle:  3   F: -1872.801049534548156   dF: -5.241e-07   |Residual|: 1.413e-04   |deigs|: 3.992e-06  t[s]:   7194.46
	FillingsUpdate:  mu: +0.270266688  nElectrons: 512.000000
SCF: Cycle:  4   F: -1872.801049603236834   dF: -6.869e-08   |Residual|: 9.061e-05   |deigs|: 2.849e-06  t[s]:   7298.22
	FillingsUpdate:  mu: +0.270266716  nElectrons: 512.000000
SCF: Cycle:  5   F: -1872.801049634226274   dF: -3.099e-08   |Residual|: 3.253e-05   |deigs|: 3.168e-06  t[s]:   7400.17
	FillingsUpdate:  mu: +0.270266727  nElectrons: 512.000000
SCF: Cycle:  6   F: -1872.801049643976739   dF: -9.750e-09   |Residual|: 2.038e-05   |deigs|: 3.288e-06  t[s]:   7504.42
	FillingsUpdate:  mu: +0.270266712  nElectrons: 512.000000
SCF: Cycle:  7   F: -1872.801049646245474   dF: -2.269e-09   |Residual|: 1.096e-05   |deigs|: 3.283e-06  t[s]:   7608.13
SCF: Converged (|Delta E|<1.000000e-08 for 2 iters).

Setting wave functions to eigenvectors of Hamiltonian

# Ionic positions in lattice coordinates:
ion W   0.129900605029182   0.125141823758275   0.220492119413693 1
ion W   0.116121064538327   0.124972009150742   0.720470391902558 1
ion W   0.380673134791467   0.371100370870727   0.283329971720204 1
ion W   0.366790684231281   0.370956054622057   0.783346606552296 1
ion W   0.130735903605468   0.624528087850493   0.220436402941451 1
ion W   0.116672816003275   0.624207611533829   0.720425481828092 1
ion W   0.380037261795282   0.871910344858588   0.283418410357817 1
ion W   0.366077260828747   0.871465481730241   0.783443254819331 1
ion W   0.630709751449378   0.124500805569951   0.220399157562908 1
ion W   0.616670260778483   0.124254290929645   0.720564257194048 1
ion W   0.880085832242334   0.371895414651058   0.283315488339996 1
ion W   0.866104767606711   0.371498689009382   0.783475143989241 1
ion W   0.629931709029082   0.625108301913122   0.220629218812944 1
ion W   0.616123392603450   0.624926367718542   0.720508231840656 1
ion W   0.880700384227467   0.871050152409894   0.283454376968332 1
ion W   0.866839807044156   0.870867828784818   0.783506543482798 1
ion O   0.015834308102074   0.268441407769241   0.721204021803050 1
ion O   0.231024944738490   0.268083226601609   0.220211314993863 1
ion O   0.016959370003269   0.481413278276181   0.283888408472095 1
ion O   0.230121426843199   0.481250893747003   0.782805160573037 1
ion O   0.092062441088347   0.123586788016663   0.994386126441858 1
ion O   0.154279485262392   0.124414278998434   0.494462039004279 1
ion O   0.479979875407483   0.014528043841982   0.719885943629472 1
ion O   0.266588083054286   0.014723075466688   0.221270308990695 1
ion O   0.481131946977762   0.227706856508278   0.282779669829555 1
ion O   0.266023558827676   0.227782950796420   0.783575543243295 1
ion O   0.404947925219143   0.372446590719250   0.009339198163483 1
ion O   0.342494170772743   0.371687391267659   0.509338273591476 1
ion O   0.016202603095102   0.767918772147309   0.721044671360799 1
ion O   0.230970103242197   0.768035771915002   0.220130224554447 1
ion O   0.016927206594914   0.981433510030427   0.283666096747373 1
ion O   0.229732502393827   0.981614522861304   0.782802184716496 1
ion O   0.092372775692599   0.622942092038971   0.994491879209155 1
ion O   0.155091782913266   0.623834422785269   0.494472933933455 1
ion O   0.479843177934063   0.514637039802497   0.720129102105348 1
ion O   0.267108947926707   0.514340508861186   0.220685499934649 1
ion O   0.480646914741041   0.728197003707791   0.282507068242242 1
ion O   0.265939325782141   0.727897881804250   0.783729067228076 1
ion O   0.404384685101476   0.873216597360645   0.009371181848372 1
ion O   0.341921049957676   0.872067715433587   0.509466652856970 1
ion O   0.516147038759163   0.267927864766116   0.721097878559199 1
ion O   0.730994122301404   0.267927525727278   0.220133176231360 1
ion O   0.516917483852544   0.481475631381246   0.283686951938700 1
ion O   0.729663480683306   0.481555485192310   0.782822960878039 1
ion O   0.592469442008334   0.122941897104180   0.994393867609964 1
ion O   0.655046222124659   0.123829330261320   0.494590369520741 1
ion O   0.979899180908248   0.014632869121304   0.720264907059410 1
ion O   0.767049028912911   0.014291432153056   0.220822501126210 1
ion O   0.980683426391367   0.228127072465022   0.282373568615564 1
ion O   0.766003823515948   0.227936796421425   0.783655068014061 1
ion O   0.904421037755926   0.373267565811884   0.009397542003382 1
ion O   0.841965094792278   0.372096347559505   0.509366263098366 1
ion O   0.515863393553146   0.768376182962545   0.721158196743482 1
ion O   0.731093351495500   0.768023993588392   0.220293367017756 1
ion O   0.516861611940825   0.981543338765344   0.283980203404999 1
ion O   0.730290359380325   0.981214458485162   0.782895408578313 1
ion O   0.592071113929113   0.623501627870281   0.994519119947237 1
ion O   0.654306069697832   0.624440190061871   0.494479367193769 1
ion O   0.979849446856141   0.514633610044159   0.719886825828052 1
ion O   0.766620737953894   0.514703565079385   0.221243739721725 1
ion O   0.981092670547952   0.727608519912914   0.282926671457286 1
ion O   0.765929807295413   0.727792682247412   0.783654266436413 1
ion O   0.905035058522669   0.872335508717266   0.009488692800895 1
ion O   0.842463749345143   0.871672248181610   0.509441457015171 1

# Forces in Lattice coordinates:
force W   0.001525343481447  -0.000654790351287  -0.000218642666626 1
force W  -0.000592473353510  -0.001982059189992   0.001129131770158 1
force W  -0.000281215360862  -0.000005185855719   0.000269538945783 1
force W  -0.002312115347641  -0.000441386203012  -0.001590075089092 1
force W  -0.002029651805137   0.002142816242075  -0.002592274108929 1
force W  -0.000807663352297   0.004404260316750   0.002116412380765 1
force W   0.001863126481747  -0.001045382917439  -0.001801350841072 1
force W   0.000789757784174   0.000286845527703  -0.000291600809802 1
force W   0.000890499650159   0.001395610275508   0.001716570071644 1
force W   0.000755996893919  -0.000252604258002  -0.003169397400905 1
force W  -0.000114359155644  -0.001184493680354   0.001466910461171 1
force W  -0.000245258640242  -0.000232869546778  -0.003473074318613 1
force W  -0.000658020030940   0.001246547184909  -0.002845270070155 1
force W   0.000316255081027   0.000698667435235   0.000902543749896 1
force W  -0.000829755935524   0.002136950914947   0.000922458393180 1
force W  -0.003314125669213   0.003653673160075  -0.003523417719915 1
force O   0.002559131726100  -0.001382213852597  -0.000961359223054 1
force O   0.000749795581294   0.001082479019619   0.000759513044822 1
force O   0.001246001358508   0.001598152621523   0.000159222573989 1
force O   0.000315640419338  -0.001022067422389   0.000823101735869 1
force O   0.001680814440373  -0.001410232438548   0.001915746805525 1
force O   0.000880463151299   0.000205685108961  -0.002860736090027 1
force O  -0.000919780462206   0.001400126355421   0.001792783912241 1
force O   0.000349787577275   0.000203315834338  -0.001358496441223 1
force O  -0.001863137596074   0.001177499627931   0.000056136526526 1
force O  -0.002599326886014   0.000990943252436  -0.000880053019492 1
force O  -0.000974074938419   0.002068331725439  -0.001012266094755 1
force O  -0.001052804243711   0.002071320685612   0.000114864862384 1
force O   0.000007218596507   0.000781881257854   0.000148378092622 1
force O  -0.001319327906594  -0.001257329280516   0.001080834162634 1
force O  -0.000148717655828   0.000550442354593  -0.000486453757384 1
force O   0.000765964438121   0.000093057068146   0.000584109245417 1
force O   0.000578293233204   0.001649247182831  -0.000366288533731 1
force O  -0.001537910203909  -0.000011699658661  -0.001643021866600 1
force O  -0.001065265294306   0.000018973952703   0.001221396874194 1
force O  -0.000522305482153   0.001514112694607   0.001111116282582 1
force O   0.003086139792935  -0.002202453787398   0.000128965067706 1
force O   0.000988167408362   0.000235890706529  -0.000198098822659 1
force O   0.000398962689112  -0.000379250388934   0.000413284488892 1
force O   0.001457999919392   0.000131404379473  -0.001836122519222 1
force O   0.002180802633447  -0.000588536620626  -0.000057080737180 1
force O   0.001536944443560   0.003606945697938   0.001215227948538 1
force O  -0.000674515473650  -0.000412806558469  -0.000144298107304 1
force O   0.000438415103248   0.000636216352598   0.000648918453387 1
force O  -0.001337147245073   0.001146722672412   0.001626667752654 1
force O  -0.001924375169465   0.001559317107216  -0.002939798661139 1
force O   0.000647652918764   0.000130472487231   0.000734313041000 1
force O   0.000378749293668  -0.000206576939265   0.000392223387192 1
force O  -0.000797060340201   0.000012971525264   0.001466495985166 1
force O  -0.000446670966976  -0.000654492750156   0.000805552265525 1
force O   0.000078865798889  -0.000948446717241  -0.000533244382148 1
force O   0.002246896942959  -0.000305194332438  -0.001096036725034 1
force O  -0.001967928869429  -0.000209839333047   0.000549476231289 1
force O  -0.001625540442441   0.000997668498667   0.000252710022073 1
force O  -0.001030818880984  -0.001552523723387  -0.000610925169539 1
force O  -0.003983696043848   0.004628334317065   0.000656125521788 1
force O   0.000589641532126  -0.000446408875657   0.000207436750340 1
force O   0.001226810277468  -0.001976734953283  -0.001372820079570 1
force O   0.000680677513644   0.000981367765700   0.000457589923589 1
force O   0.000782981191954  -0.001079125238199  -0.000517338110872 1
force O   0.000134117836633   0.000610140256025   0.000523632999908 1
force O   0.001614657813572  -0.000636835716517  -0.000155678494420 1
force O  -0.001256210468491   0.001420613923184  -0.002079358931410 1
force O   0.001361138963251   0.001437349625830  -0.000585525936885 1

# Energy components:
   Eewald =    -1201.6775254172939640
       EH =      550.6309082721434152
     Eloc =    -1496.0260395914581295
      Enl =     -125.6121033209918920
      Exc =     -499.2815474772363586
 Exc_core =      174.5590283331140142
       KE =      724.6302029387614994
-------------------------------------
     Etot =    -1872.7770762629616002
       TS =        0.0239733832837754
-------------------------------------
        F =    -1872.8010496462454739

IonicMinimize: Iter:   5  F: -1872.801049646245474  |grad|_K:  8.055e-05  alpha:  1.000e+00  linmin: -4.060e-02  t[s]:   7639.88
IonicMinimize: Converged (|grad|_K<1.000000e-04).

#--- Lowdin population analysis ---
# oxidation-state W +1.003 +1.002 +1.002 +1.002 +1.002 +1.002 +1.002 +1.002 +1.002 +1.002 +1.002 +1.002 +1.002 +1.002 +1.002 +1.002
# oxidation-state O -0.317 -0.316 -0.311 -0.312 -0.283 -0.283 -0.311 -0.312 -0.317 -0.317 -0.283 -0.283 -0.318 -0.317 -0.311 -0.311 -0.283 -0.283 -0.311 -0.311 -0.318 -0.317 -0.283 -0.283 -0.317 -0.317 -0.311 -0.311 -0.283 -0.283 -0.311 -0.311 -0.318 -0.317 -0.283 -0.283 -0.317 -0.316 -0.311 -0.312 -0.283 -0.283 -0.311 -0.312 -0.317 -0.316 -0.283 -0.283


Dumping '/data/rc652/WO3/ion/WO3_ion.Ecomponents' ... done
End date and time: Wed Jul  3 17:03:49 2024  (Duration: 0-2:07:39.42)
Done!
