--------------------------------------------------------------------------
[[16346,1],6]: A high-performance Open MPI point-to-point messaging module
was unable to find any relevant network interfaces:

Module: OpenFabrics (openib)
  Host: node3212

Another transport will be used instead, although this may result in
lower performance.
--------------------------------------------------------------------------

*************** JDFTx 1.7.0 (git hash 3664913) ***************

Start date and time: Wed Jul  3 14:57:19 2024
Executable jdftx with command-line: -i WO3_vac.in
Running on hosts (process indices):  node3212.physics.cornell.edu (0-15)
Divided in process groups (process indices):  0 (0)  1 (1)  2 (2)  3 (3)  4 (4)  5 (5)  6 (6)  7 (7)  8 (8)  9 (9)  10 (10)  11 (11)  12 (12)  13 (13)  14 (14)  15 (15)
Resource initialization completed at t[s]:      0.00
Run totals: 16 processes, 32 threads, 0 GPUs


Input parsed successfully to the following command list (including defaults):

basis kpoint-dependent
coords-type Lattice
core-overlap-check vector
coulomb-interaction Periodic
davidson-band-ratio 1.1
dump End Ecomponents
dump-name /data/rc652/WO3/vac/WO3_vac.$VAR
elec-cutoff 20 100
elec-eigen-algo Davidson
elec-ex-corr gga-PBEsol
elec-smearing Fermi 0.01
electronic-minimize  \
	dirUpdateScheme      FletcherReeves \
	linminMethod         DirUpdateRecommended \
	nIterations          100 \
	history              15 \
	knormThreshold       0 \
	maxThreshold         no \
	energyDiffThreshold  1e-08 \
	nEnergyDiff          2 \
	alphaTstart          1 \
	alphaTmin            1e-10 \
	updateTestStepSize   yes \
	alphaTreduceFactor   0.1 \
	alphaTincreaseFactor 3 \
	nAlphaAdjustMax      3 \
	wolfeEnergy          0.0001 \
	wolfeGradient        0.9 \
	fdTest               no
electronic-scf  \
	nIterations	50 \
	energyDiffThreshold	1e-08 \
	residualThreshold	1e-07 \
	mixFraction	0.5 \
	qMetric	0.8 \
	history	10 \
	nEigSteps	2 \
	eigDiffThreshold	1e-08 \
	mixedVariable	Density \
	qKerker	0.8 \
	qKappa	-1 \
	verbose	no \
	mixFractionMag	1.5
exchange-regularization WignerSeitzTruncated
fluid None
fluid-ex-corr lda-TF lda-PZ
fluid-gummel-loop 10 1.000000e-05
fluid-minimize  \
	dirUpdateScheme      PolakRibiere \
	linminMethod         DirUpdateRecommended \
	nIterations          100 \
	history              15 \
	knormThreshold       0 \
	maxThreshold         no \
	energyDiffThreshold  0 \
	nEnergyDiff          2 \
	alphaTstart          1 \
	alphaTmin            1e-10 \
	updateTestStepSize   yes \
	alphaTreduceFactor   0.1 \
	alphaTincreaseFactor 3 \
	nAlphaAdjustMax      3 \
	wolfeEnergy          0.0001 \
	wolfeGradient        0.9 \
	fdTest               no
fluid-solvent H2O 55.338 ScalarEOS \
	epsBulk 78.4 \
	pMol 0.92466 \
	epsInf 1.77 \
	Pvap 1.06736e-10 \
	sigmaBulk 4.62e-05 \
	Rvdw 2.61727 \
	Res 1.42 \
	tauNuc 343133 \
	poleEl 15 7 1
forces-output-coords Positions
ion W   0.125683985042825   0.126287443652256   0.221420616740003 1
ion W   0.135616857331457   0.130607979039316   0.725828105661346 1
ion W   0.375955673670851   0.374586099700123   0.276711222351667 1
ion W   0.373012477241154   0.372282870468328   0.775733129016196 1
ion W   0.126117652201486   0.626552821686884   0.220449193899830 1
ion W   0.122429472685288   0.624142916222263   0.722195712185575 1
ion W   0.377060679283076   0.874897584922986   0.276871412251917 1
ion W   0.375664022794969   0.873149858399955   0.775978039858737 1
ion W   0.626865950217734   0.126609761826797   0.219718413054526 1
ion W   0.621672894093309   0.126084033070907   0.720814638000689 1
ion W   0.876382593761728   0.375316616000216   0.279578491492513 1
ion W   0.876885961103772   0.371924778554581   0.776832223862232 1
ion W   0.626738663859158   0.626669326967887   0.218977463728920 1
ion W   0.608825084889237   0.614280547956902   0.716985516286266 1
ion W   0.875051507113432   0.873926187867873   0.278815673793088 1
ion W   0.885445816556973   0.895741239501531   0.766526614593029 1
ion O   0.022628828707556   0.270863801273054   0.731254050922892 1
ion O   0.233732171079715   0.267713274601138   0.211547010368163 1
ion O   0.018123866251175   0.483294620924806   0.280261682876120 1
ion O   0.230988812131663   0.481049296488183   0.769378856770702 1
ion O   0.095110778101631   0.117879937923464   0.992026719482973 1
ion O   0.156582369529217   0.133085184846672   0.495371600877012 1
ion O   0.477584354807048   0.021047422821049   0.721414814683359 1
ion O   0.266670961493956   0.016131625255299   0.228781204549843 1
ion O   0.482772826709018   0.232481506601755   0.268693981217123 1
ion O   0.275824706317774   0.226662303472954   0.793338774705200 1
ion O   0.407284448998482   0.385545255994377   0.001480697553945 1
ion O   0.343502655473408   0.364580343625064   0.505440300373316 1
ion O   0.003335512393602   0.764970667833668   0.727422006973562 1
ion O   0.232420120128776   0.768326727662999   0.220335628986475 1
ion O   0.016113962002880   0.982256289286198   0.284481211873533 1
ion O   0.228769078657163   0.980263831200716   0.770450326293257 1
ion O   0.097513188725326   0.622472373506187   0.990453547378265 1
ion O   0.149455063032793   0.631510325887168   0.492788451006876 1
ion O   0.468757709220127   0.523481346455162   0.690551223394796 1
ion O   0.267350043910620   0.516621790803616   0.226919952931765 1
ion O   0.482347649003556   0.730269065552237   0.268687274412465 1
ion O   0.266658566981845   0.731904971712361   0.775431499370963 1
ion O   0.400088055627611   0.878132248071845   0.005703405976796 1
ion O   0.353348154211047   0.869417217480670   0.508082300224687 1
ion O   0.520768448229276   0.274198071218499   0.722119664568538 1
ion O   0.733176065959330   0.268904774484550   0.220574385383931 1
ion O   0.518214246022018   0.484633359459016   0.280134488999154 1
ion O   0.733395031085451   0.493538464101617   0.772794699177778 1
ion O   0.600110770145913   0.122668801764986   0.989410996425265 1
ion O   0.650256708435484   0.127889238924623   0.491784579576103 1
ion O   0.977730642990668   0.030328657207793   0.711211461693537 1
ion O   0.768470312835173   0.016872829039496   0.228006403858516 1
ion O   0.982997517548723   0.231675421043422   0.274729964214115 1
ion O   0.768204374914503   0.230973867776938   0.777108254687135 1
ion O   0.900017764902637   0.378671376498297   0.006658723168821 1
ion O   0.846452654357227   0.371906249356551   0.508904467777714 1
ion O   0.529395866560575   0.772590381367864   0.735077438884440 1
ion O   0.731548020072201   0.769619042742069   0.217621828378857 1
ion O   0.518291619381512   0.983026392675293   0.275255654062977 1
ion O   0.725845331489479   0.973987105497433   0.767263529022418 1
ion O   0.604742215020807   0.625091921473786   0.984206469586957 1
ion O   0.657163447941826   0.635146677836260   0.495254136715387 1
ion O   0.982245266089315   0.514992908676896   0.717556665876367 1
ion O   0.767882613048220   0.517725758320355   0.226594105933977 1
ion O   0.980641147770601   0.731727236951872   0.269731090572896 1
ion O   0.896739648913390   0.879114962078129  -0.001100269521109 1
ion O   0.841647110943231   0.863645006384806   0.511538270975605 1
ion-species GBRV/$ID_pbesol.uspp
ion-width 0
ionic-minimize  \
	dirUpdateScheme      L-BFGS \
	linminMethod         DirUpdateRecommended \
	nIterations          30 \
	history              15 \
	knormThreshold       0.0001 \
	maxThreshold         no \
	energyDiffThreshold  1e-06 \
	nEnergyDiff          2 \
	alphaTstart          1 \
	alphaTmin            1e-10 \
	updateTestStepSize   yes \
	alphaTreduceFactor   0.1 \
	alphaTincreaseFactor 3 \
	nAlphaAdjustMax      3 \
	wolfeEnergy          0.0001 \
	wolfeGradient        0.9 \
	fdTest               no
kpoint   0.500000000000   0.500000000000   0.500000000000  1.00000000000000
kpoint-folding 3 3 4 
latt-move-scale 1 1 1
latt-scale 1 1 1 
lattice  \
	  19.703017305184275   -0.000000000000000   -0.000000000000000  \
	  -0.000000000000000   20.023361400003964    0.347085846033132  \
	  -0.000000000000000    0.002592113879843   14.495517318726208 
lattice-minimize  \
	dirUpdateScheme      L-BFGS \
	linminMethod         DirUpdateRecommended \
	nIterations          0 \
	history              15 \
	knormThreshold       0 \
	maxThreshold         no \
	energyDiffThreshold  1e-06 \
	nEnergyDiff          2 \
	alphaTstart          1 \
	alphaTmin            1e-10 \
	updateTestStepSize   yes \
	alphaTreduceFactor   0.1 \
	alphaTincreaseFactor 3 \
	nAlphaAdjustMax      3 \
	wolfeEnergy          0.0001 \
	wolfeGradient        0.9 \
	fdTest               no
lcao-params -1 1e-06 0.01
pcm-variant GLSSA13
perturb-minimize  \
	nIterations            0 \
	algorithm              MINRES \
	residualTol            0.0001 \
	residualDiffThreshold  0.0001 \
	CGBypass               no \
	recomputeResidual      no
spintype no-spin
subspace-rotation-factor 1 yes
symmetries automatic
symmetry-threshold 0.0001



---------- Setting up symmetries ----------

Found 4 point-group symmetries of the bravais lattice
Found 1 space-group symmetries with basis
Applied RMS atom displacement 0 bohrs to make symmetries exact.

---------- Initializing the Grid ----------
R = 
[       19.703            0            0  ]
[            0      20.0234     0.347086  ]
[            0   0.00259211      14.4955  ]
unit cell volume = 5718.76
G =
[   0.318895          0          0  ]
[          0   0.313794 -0.00751359  ]
[          0 -5.61131e-05   0.433458  ]
Minimum fftbox size, Smin = [  92  92  68  ]
Chosen fftbox size, S = [  96  96  70  ]

---------- Initializing tighter grid for wavefunction operations ----------
R = 
[       19.703            0            0  ]
[            0      20.0234     0.347086  ]
[            0   0.00259211      14.4955  ]
unit cell volume = 5718.76
G =
[   0.318895          0          0  ]
[          0   0.313794 -0.00751359  ]
[          0 -5.61131e-05   0.433458  ]
Minimum fftbox size, Smin = [  80  84  60  ]
Chosen fftbox size, S = [  80  84  60  ]

---------- Exchange Correlation functional ----------
Initalized PBEsol GGA exchange.
Initalized PBEsol GGA correlation.

---------- Setting up pseudopotentials ----------
Width of ionic core gaussian charges (only for fluid interactions / plotting) set to 0

Reading pseudopotential file '/home/rc652/build/pseudopotentials/GBRV/w_pbesol.uspp':
  Title: W.  Created by USPP 7.3.6 on 3-2-2014
  Reference state energy: -79.054523.  14 valence electrons in orbitals:
    |500>  occupation: 2  eigenvalue: -2.940304
    |510>  occupation: 6  eigenvalue: -1.621550
    |520>  occupation: 3.9  eigenvalue: -0.195776
    |600>  occupation: 2  eigenvalue: -0.236158
    |610>  occupation: 0  eigenvalue: -0.068449
  lMax: 3  lLocal: 3  QijEcut: 5
  8 projectors sampled on a log grid with 667 points:
    l: 0  eig: -2.940304  rCut: 1.45
    l: 0  eig: -0.236158  rCut: 1.45
    l: 0  eig: 0.500000  rCut: 1.45
    l: 1  eig: -1.621550  rCut: 1.5
    l: 1  eig: -0.068449  rCut: 1.5
    l: 2  eig: -0.195776  rCut: 1.7
    l: 2  eig: 0.150000  rCut: 1.7
    l: 3  eig: 0.500000  rCut: 2.3
  Partial core density with radius 1.2
  Transforming core density to a uniform radial grid of dG=0.02 with 1331 points.
  Transforming local potential to a uniform radial grid of dG=0.02 with 1331 points.
  Transforming nonlocal projectors to a uniform radial grid of dG=0.02 with 432 points.
  Transforming density augmentations to a uniform radial grid of dG=0.02 with 1331 points.
  Transforming atomic orbitals to a uniform radial grid of dG=0.02 with 432 points.
  Core radius for overlap checks: 2.30 bohrs.

Reading pseudopotential file '/home/rc652/build/pseudopotentials/GBRV/o_pbesol.uspp':
  Title: O.  Created by USPP 7.3.6 on 3-2-2014
  Reference state energy: -15.849885.  6 valence electrons in orbitals:
    |200>  occupation: 2  eigenvalue: -0.873214
    |210>  occupation: 4  eigenvalue: -0.330058
  lMax: 2  lLocal: 2  QijEcut: 6
  5 projectors sampled on a log grid with 511 points:
    l: 0  eig: -0.873214  rCut: 1.25
    l: 0  eig: 0.000000  rCut: 1.25
    l: 1  eig: -0.330058  rCut: 1.25
    l: 1  eig: 0.000000  rCut: 1.25
    l: 2  eig: 1.000000  rCut: 1.25
  Partial core density with radius 0.7
  Transforming core density to a uniform radial grid of dG=0.02 with 1331 points.
  Transforming local potential to a uniform radial grid of dG=0.02 with 1331 points.
  Transforming nonlocal projectors to a uniform radial grid of dG=0.02 with 432 points.
  Transforming density augmentations to a uniform radial grid of dG=0.02 with 1331 points.
  Transforming atomic orbitals to a uniform radial grid of dG=0.02 with 432 points.
  Core radius for overlap checks: 1.25 bohrs.

Initialized 2 species with 63 total atoms.

Folded 1 k-points by 3x3x4 to 36 k-points.

---------- Setting up k-points, bands, fillings ----------
Adding inversion symmetry to k-mesh for non-inversion-symmetric unit cell.
Reduced to 18 k-points under symmetry. 
Computing the number of bands and number of electrons
Calculating initial fillings.
nElectrons: 506.000000   nBands: 396   nStates: 18

----- Setting up reduced wavefunction bases (one per k-point) -----
average nbasis = 24427.222 , ideal nbasis = 24430.991

---------- Setting up ewald sum ----------
Optimum gaussian width for ewald sums = 3.576465 bohr.
Real space sum over 441 unit cells with max indices [  3  3  4  ]
Reciprocal space sum over 7497 terms with max indices [  10  10  8  ]

---------- Allocating electronic variables ----------
Initializing wave functions:  linear combination of atomic orbitals
W pseudo-atom occupations:   s ( 2 2 )  p ( 6 0 )  d ( 4 )
O pseudo-atom occupations:   s ( 2 )  p ( 4 )
	FillingsUpdate:  mu: +0.430328521  nElectrons: 506.000000
LCAOMinimize: Iter:   0  F: -1845.4252086605054046  |grad|_K:  3.981e-03  alpha:  1.000e+00
	FillingsUpdate:  mu: +0.332986840  nElectrons: 506.000000
LCAOMinimize: Iter:   1  F: -1852.6381412126443138  |grad|_K:  2.163e-03  alpha:  1.823e-01  linmin: -4.182e-01  cgtest:  8.116e-01  t[s]:    146.77
LCAOMinimize: Encountered beta<0, resetting CG.
	FillingsUpdate:  mu: +0.293087238  nElectrons: 506.000000
LCAOMinimize: Iter:   2  F: -1854.3883754619087085  |grad|_K:  8.503e-04  alpha:  3.284e-01  linmin:  4.138e-01  cgtest: -7.900e-01  t[s]:    194.35
LCAOMinimize: 	Bad step direction: g.d > 0.
LCAOMinimize: 	Undoing step.
LCAOMinimize: 	Step failed: resetting search direction.
	FillingsUpdate:  mu: +0.293087238  nElectrons: 506.000000
LCAOMinimize: Iter:   3  F: -1854.3883754619087085  |grad|_K:  8.503e-04  alpha:  0.000e+00
	FillingsUpdate:  mu: +0.276882426  nElectrons: 506.000000
LCAOMinimize: Iter:   4  F: -1854.5935634253467015  |grad|_K:  1.320e-04  alpha:  2.114e-01  linmin:  8.771e-03  cgtest: -7.615e-02  t[s]:    277.42
	FillingsUpdate:  mu: +0.277057831  nElectrons: 506.000000
LCAOMinimize: Iter:   5  F: -1854.5973695329239490  |grad|_K:  2.804e-05  alpha:  1.554e-01  linmin: -2.222e-03  cgtest:  6.787e-02  t[s]:    324.49
	FillingsUpdate:  mu: +0.277022016  nElectrons: 506.000000
LCAOMinimize: Iter:   6  F: -1854.5976256301130434  |grad|_K:  1.298e-05  alpha:  2.298e-01  linmin:  2.909e-03  cgtest: -1.311e-02  t[s]:    370.99
	FillingsUpdate:  mu: +0.277262044  nElectrons: 506.000000
LCAOMinimize: Iter:   7  F: -1854.5977334993165186  |grad|_K:  9.656e-06  alpha:  4.545e-01  linmin:  1.979e-03  cgtest:  8.602e-03  t[s]:    416.92
	FillingsUpdate:  mu: +0.277263422  nElectrons: 506.000000
LCAOMinimize: Iter:   8  F: -1854.5977640260655335  |grad|_K:  3.117e-06  alpha:  2.320e-01  linmin: -1.951e-04  cgtest:  1.918e-02  t[s]:    463.40
	FillingsUpdate:  mu: +0.277282226  nElectrons: 506.000000
LCAOMinimize: Iter:   9  F: -1854.5977668279581394  |grad|_K:  9.926e-07  alpha:  2.032e-01  linmin: -2.338e-06  cgtest: -2.558e-03  t[s]:    511.11
	FillingsUpdate:  mu: +0.277279954  nElectrons: 506.000000
LCAOMinimize: Iter:  10  F: -1854.5977672184578751  |grad|_K:  6.429e-07  alpha:  2.794e-01  linmin: -2.554e-05  cgtest:  5.402e-05  t[s]:    558.20
	FillingsUpdate:  mu: +0.277278607  nElectrons: 506.000000
LCAOMinimize: Iter:  11  F: -1854.5977674500802550  |grad|_K:  3.272e-07  alpha:  3.950e-01  linmin: -1.204e-05  cgtest: -4.781e-05  t[s]:    605.57
LCAOMinimize: Converged (|Delta F|<1.000000e-06 for 2 iters).


---- Citations for features of the code used in this run ----

   Software package:
      R. Sundararaman, K. Letchworth-Weaver, K.A. Schwarz, D. Gunceler, Y. Ozhabes and T.A. Arias, 'JDFTx: software for joint density-functional theory', SoftwareX 6, 278 (2017)

   gga-PBEsol exchange-correlation functional:
      J.P. Perdew et al., Phys. Rev. Lett. 100, 136406 (2008)

   Pseudopotentials:
      KF Garrity, JW Bennett, KM Rabe and D Vanderbilt, Comput. Mater. Sci. 81, 446 (2014)

This list may not be complete. Please suggest additional citations or
report any other bugs at https://github.com/shankar1729/jdftx/issues

Initialization completed successfully at t[s]:    631.64


-------- Electronic minimization -----------
Will mix electronic density at each iteration.
	FillingsUpdate:  mu: +0.277278607  nElectrons: 506.000000
	FillingsUpdate:  mu: +0.269123234  nElectrons: 506.000000
SCF: Cycle:  0   F: -1856.355372110535654   dF: -1.758e+00   |Residual|: 5.866e-01   |deigs|: 3.515e-02  t[s]:    874.74
	FillingsUpdate:  mu: +0.283236762  nElectrons: 506.000000
SCF: Cycle:  1   F: -1856.599819097988984   dF: -2.444e-01   |Residual|: 3.238e-01   |deigs|: 1.714e-02  t[s]:   1058.30
	FillingsUpdate:  mu: +0.281967672  nElectrons: 506.000000
SCF: Cycle:  2   F: -1856.703588591523840   dF: -1.038e-01   |Residual|: 1.465e-01   |deigs|: 7.090e-03  t[s]:   1242.11
	FillingsUpdate:  mu: +0.286942481  nElectrons: 506.000000
SCF: Cycle:  3   F: -1856.711873021580004   dF: -8.284e-03   |Residual|: 3.498e-02   |deigs|: 4.666e-03  t[s]:   1418.23
	FillingsUpdate:  mu: +0.287587323  nElectrons: 506.000000
SCF: Cycle:  4   F: -1856.712363332444284   dF: -4.903e-04   |Residual|: 1.932e-02   |deigs|: 6.410e-04  t[s]:   1524.86
	FillingsUpdate:  mu: +0.288149543  nElectrons: 506.000000
SCF: Cycle:  5   F: -1856.712678038965578   dF: -3.147e-04   |Residual|: 6.340e-03   |deigs|: 5.946e-04  t[s]:   1650.12
	FillingsUpdate:  mu: +0.288499911  nElectrons: 506.000000
SCF: Cycle:  6   F: -1856.712732967090460   dF: -5.493e-05   |Residual|: 3.436e-03   |deigs|: 4.665e-04  t[s]:   1756.60
	FillingsUpdate:  mu: +0.288697787  nElectrons: 506.000000
SCF: Cycle:  7   F: -1856.712753649754859   dF: -2.068e-05   |Residual|: 1.767e-03   |deigs|: 2.454e-04  t[s]:   1867.71
	FillingsUpdate:  mu: +0.288747554  nElectrons: 506.000000
SCF: Cycle:  8   F: -1856.712759689556833   dF: -6.040e-06   |Residual|: 5.175e-04   |deigs|: 7.855e-05  t[s]:   1975.21
	FillingsUpdate:  mu: +0.288755903  nElectrons: 506.000000
SCF: Cycle:  9   F: -1856.712760961032927   dF: -1.271e-06   |Residual|: 2.834e-04   |deigs|: 4.675e-05  t[s]:   2082.84
	FillingsUpdate:  mu: +0.288757528  nElectrons: 506.000000
SCF: Cycle: 10   F: -1856.712761492282880   dF: -5.312e-07   |Residual|: 1.559e-04   |deigs|: 3.487e-05  t[s]:   2192.15
	FillingsUpdate:  mu: +0.288757817  nElectrons: 506.000000
SCF: Cycle: 11   F: -1856.712761778264394   dF: -2.860e-07   |Residual|: 9.595e-05   |deigs|: 3.025e-05  t[s]:   2301.14
	FillingsUpdate:  mu: +0.288758211  nElectrons: 506.000000
SCF: Cycle: 12   F: -1856.712761939174015   dF: -1.609e-07   |Residual|: 4.570e-05   |deigs|: 2.641e-05  t[s]:   2406.79
	FillingsUpdate:  mu: +0.288758107  nElectrons: 506.000000
SCF: Cycle: 13   F: -1856.712762029367923   dF: -9.019e-08   |Residual|: 3.287e-05   |deigs|: 2.298e-05  t[s]:   2529.61
	FillingsUpdate:  mu: +0.288757881  nElectrons: 506.000000
SCF: Cycle: 14   F: -1856.712762082863946   dF: -5.350e-08   |Residual|: 2.427e-05   |deigs|: 1.936e-05  t[s]:   2637.59
	FillingsUpdate:  mu: +0.288757822  nElectrons: 506.000000
SCF: Cycle: 15   F: -1856.712762115806527   dF: -3.294e-08   |Residual|: 2.607e-05   |deigs|: 1.649e-05  t[s]:   2746.74
	FillingsUpdate:  mu: +0.288757863  nElectrons: 506.000000
SCF: Cycle: 16   F: -1856.712762136369975   dF: -2.056e-08   |Residual|: 4.035e-05   |deigs|: 1.407e-05  t[s]:   2856.07
	FillingsUpdate:  mu: +0.288757807  nElectrons: 506.000000
SCF: Cycle: 17   F: -1856.712762149406672   dF: -1.304e-08   |Residual|: 6.593e-05   |deigs|: 1.283e-05  t[s]:   2965.51
	FillingsUpdate:  mu: +0.288757779  nElectrons: 506.000000
SCF: Cycle: 18   F: -1856.712762157125326   dF: -7.719e-09   |Residual|: 8.127e-05   |deigs|: 1.150e-05  t[s]:   3073.85
	FillingsUpdate:  mu: +0.288757835  nElectrons: 506.000000
SCF: Cycle: 19   F: -1856.712762161758292   dF: -4.633e-09   |Residual|: 8.547e-05   |deigs|: 1.035e-05  t[s]:   3184.39
SCF: Converged (|Delta E|<1.000000e-08 for 2 iters).

Setting wave functions to eigenvectors of Hamiltonian

# Ionic positions in lattice coordinates:
ion W   0.125683985042825   0.126287443652256   0.221420616740003 1
ion W   0.135616857331457   0.130607979039316   0.725828105661346 1
ion W   0.375955673670851   0.374586099700123   0.276711222351667 1
ion W   0.373012477241154   0.372282870468328   0.775733129016196 1
ion W   0.126117652201486   0.626552821686884   0.220449193899830 1
ion W   0.122429472685288   0.624142916222263   0.722195712185575 1
ion W   0.377060679283076   0.874897584922986   0.276871412251917 1
ion W   0.375664022794969   0.873149858399955   0.775978039858737 1
ion W   0.626865950217734   0.126609761826797   0.219718413054526 1
ion W   0.621672894093309   0.126084033070907   0.720814638000689 1
ion W   0.876382593761728   0.375316616000216   0.279578491492513 1
ion W   0.876885961103772   0.371924778554581   0.776832223862232 1
ion W   0.626738663859158   0.626669326967887   0.218977463728920 1
ion W   0.608825084889237   0.614280547956902   0.716985516286266 1
ion W   0.875051507113432   0.873926187867873   0.278815673793088 1
ion W   0.885445816556973   0.895741239501531   0.766526614593029 1
ion O   0.022628828707556   0.270863801273054   0.731254050922892 1
ion O   0.233732171079715   0.267713274601138   0.211547010368163 1
ion O   0.018123866251175   0.483294620924806   0.280261682876120 1
ion O   0.230988812131663   0.481049296488183   0.769378856770702 1
ion O   0.095110778101631   0.117879937923464   0.992026719482973 1
ion O   0.156582369529217   0.133085184846672   0.495371600877012 1
ion O   0.477584354807048   0.021047422821049   0.721414814683359 1
ion O   0.266670961493956   0.016131625255299   0.228781204549843 1
ion O   0.482772826709018   0.232481506601755   0.268693981217123 1
ion O   0.275824706317774   0.226662303472954   0.793338774705200 1
ion O   0.407284448998482   0.385545255994377   0.001480697553945 1
ion O   0.343502655473408   0.364580343625064   0.505440300373316 1
ion O   0.003335512393602   0.764970667833668   0.727422006973562 1
ion O   0.232420120128776   0.768326727662999   0.220335628986475 1
ion O   0.016113962002880   0.982256289286198   0.284481211873533 1
ion O   0.228769078657163   0.980263831200716   0.770450326293257 1
ion O   0.097513188725326   0.622472373506187   0.990453547378265 1
ion O   0.149455063032793   0.631510325887168   0.492788451006876 1
ion O   0.468757709220127   0.523481346455162   0.690551223394796 1
ion O   0.267350043910620   0.516621790803616   0.226919952931765 1
ion O   0.482347649003556   0.730269065552237   0.268687274412465 1
ion O   0.266658566981845   0.731904971712361   0.775431499370963 1
ion O   0.400088055627611   0.878132248071845   0.005703405976796 1
ion O   0.353348154211047   0.869417217480670   0.508082300224687 1
ion O   0.520768448229276   0.274198071218499   0.722119664568538 1
ion O   0.733176065959330   0.268904774484550   0.220574385383931 1
ion O   0.518214246022018   0.484633359459016   0.280134488999154 1
ion O   0.733395031085451   0.493538464101617   0.772794699177778 1
ion O   0.600110770145913   0.122668801764986   0.989410996425265 1
ion O   0.650256708435484   0.127889238924623   0.491784579576103 1
ion O   0.977730642990668   0.030328657207793   0.711211461693537 1
ion O   0.768470312835173   0.016872829039496   0.228006403858516 1
ion O   0.982997517548723   0.231675421043422   0.274729964214115 1
ion O   0.768204374914503   0.230973867776938   0.777108254687135 1
ion O   0.900017764902637   0.378671376498297   0.006658723168821 1
ion O   0.846452654357227   0.371906249356551   0.508904467777714 1
ion O   0.529395866560575   0.772590381367864   0.735077438884440 1
ion O   0.731548020072201   0.769619042742069   0.217621828378857 1
ion O   0.518291619381512   0.983026392675293   0.275255654062977 1
ion O   0.725845331489479   0.973987105497433   0.767263529022418 1
ion O   0.604742215020807   0.625091921473786   0.984206469586957 1
ion O   0.657163447941826   0.635146677836260   0.495254136715387 1
ion O   0.982245266089315   0.514992908676896   0.717556665876367 1
ion O   0.767882613048220   0.517725758320355   0.226594105933977 1
ion O   0.980641147770601   0.731727236951872   0.269731090572896 1
ion O   0.896739648913390   0.879114962078129  -0.001100269521109 1
ion O   0.841647110943231   0.863645006384806   0.511538270975605 1

# Forces in Lattice coordinates:
force W  -0.000468920574146   0.002655067107559  -0.007348084308426 1
force W   0.001993954085141   0.000448044757932   0.004571950447036 1
force W  -0.010567347845483   0.009395253748044  -0.002502349151923 1
force W  -0.005949279418152   0.007254784449217   0.000807857215094 1
force W   0.002496690426689   0.001863876102663   0.004265067004968 1
force W  -0.002536811615414  -0.006270330457616  -0.003023161866548 1
force W  -0.008374131085925  -0.011952142303750  -0.010291607667602 1
force W  -0.000792918932531  -0.003644776524052   0.005981663972104 1
force W   0.002740421372397   0.003501241411248  -0.001486637555474 1
force W  -0.006419924569614  -0.005552494364300   0.003267728178002 1
force W   0.007517612390037  -0.003939287462452  -0.024052148653389 1
force W  -0.002114415120480   0.014302561371074   0.018978233858590 1
force W   0.008040761802944  -0.000767886555996  -0.016742937913402 1
force W  -0.005171983677510  -0.009818963976511   0.021394293082012 1
force W   0.004841022056289  -0.003847743493026  -0.004240169435339 1
force W  -0.000224801652822  -0.011230114290409   0.002089264670095 1
force O   0.004616988847089   0.003978346882533   0.003930627403905 1
force O   0.004539933386188  -0.002361512524646   0.002184150889444 1
force O  -0.005982760790470  -0.001227056277972  -0.004712694179495 1
force O  -0.007286921489329  -0.000901735586206   0.003554198716297 1
force O   0.005766814245587   0.001279932165484  -0.009287783128661 1
force O  -0.001794124508123   0.010366965696828   0.000516211353294 1
force O   0.003465129852491   0.003742534188162   0.000963780850345 1
force O   0.001885859638766   0.001584063202380   0.008749768799017 1
force O  -0.002659080965560  -0.010537545261621  -0.007697032775896 1
force O  -0.007842861192292  -0.011618448826535  -0.000898271244383 1
force O  -0.006539272895060   0.000123167021683   0.002226618206750 1
force O   0.002079608417588  -0.001654744486497  -0.001591738159981 1
force O   0.000195329297952  -0.006088802816761   0.006441742979856 1
force O   0.004080542526621   0.010483395023092   0.005540595219794 1
force O   0.001815174541621   0.008150174048368  -0.002301319045167 1
force O  -0.000887915759018   0.008023496401620  -0.002016582805099 1
force O   0.001757995321866  -0.002044292026474   0.001026584944277 1
force O  -0.003570042702054   0.000081190701014   0.000655717720006 1
force O  -0.006742451002141  -0.015725766409910   0.003737852016065 1
force O   0.014257135709595   0.000008097751435  -0.003000975644137 1
force O  -0.002784325056751   0.003919534048356  -0.006389734695412 1
force O  -0.005422321740151  -0.001344776244451   0.000324720006319 1
force O  -0.006198233426349  -0.000102730149243  -0.007331028514287 1
force O  -0.007838701894529  -0.003363760908234   0.002493773039131 1
force O   0.001318795242168  -0.009889907494082   0.008020085907620 1
force O  -0.007047694449061  -0.011902802704631   0.002483414945714 1
force O  -0.001248873074708   0.003100038271917   0.002195602140610 1
force O   0.006693566153269   0.001877050388489  -0.001685940457511 1
force O   0.001980774415915  -0.002253709795159  -0.000330949773977 1
force O   0.003125188993840   0.000244613949901  -0.003430663111402 1
force O   0.007873413252859   0.006865474133651  -0.000176171126909 1
force O   0.004231852280664   0.009858462524458   0.001881074949289 1
force O   0.005806691868185  -0.004082757177201   0.000234443087640 1
force O  -0.009856693889839  -0.001153594139972  -0.003666558897230 1
force O   0.003168817905074  -0.001660811612907  -0.019610577854205 1
force O  -0.002840016351608  -0.001882872435737   0.012231377236056 1
force O  -0.005851262579076  -0.003067079302462  -0.004716833308265 1
force O   0.006292426602082   0.002425107455781   0.004335718513437 1
force O   0.005887945327524   0.010806627275687   0.003958824503871 1
force O  -0.001226283455905   0.002141747028215   0.000915562894154 1
force O  -0.002589950504201   0.001075897454269   0.010459229772552 1
force O  -0.002004298410774   0.001750556443469  -0.015791575886537 1
force O   0.000765972325512   0.004865593853044   0.010223330037718 1
force O   0.004531313383908   0.012870984634998   0.008156063681934 1
force O  -0.007543125289262   0.001144604417286  -0.004675626173843 1
force O   0.006440740172080   0.001890465532629  -0.002292998798646 1
force O   0.006922727666425   0.005102967716602   0.000877353479566 1

# Energy components:
   Eewald =    -1177.3235121489537960
       EH =      557.4033820524613247
     Eloc =    -1505.1691781894237465
      Enl =     -127.9011125030039011
      Exc =     -495.7849550988021292
 Exc_core =      174.4960672011289944
       KE =      717.6183684013592483
-------------------------------------
     Etot =    -1856.6609402852338917
       TS =        0.0518218765244195
-------------------------------------
        F =    -1856.7127621617582918

IonicMinimize: Iter:   0  F: -1856.712762161758292  |grad|_K:  3.899e-04  t[s]:   3216.53

#--- Lowdin population analysis ---
# oxidation-state W +0.984 +0.977 +0.983 +0.977 +0.988 +0.980 +0.988 +0.984 +0.988 +0.984 +0.988 +0.981 +0.987 +0.999 +0.989 +0.999
# oxidation-state O -0.309 -0.318 -0.320 -0.309 -0.297 -0.273 -0.313 -0.317 -0.317 -0.272 -0.278 -0.292 -0.338 -0.319 -0.323 -0.316 -0.293 -0.279 -0.242 -0.318 -0.320 -0.323 -0.278 -0.291 -0.318 -0.319 -0.326 -0.339 -0.291 -0.280 -0.237 -0.317 -0.320 -0.324 -0.280 -0.290 -0.338 -0.313 -0.317 -0.334 -0.313 -0.296 -0.310 -0.315 -0.316 -0.298 -0.313


-------- Electronic minimization -----------
Will mix electronic density at each iteration.
	FillingsUpdate:  mu: +0.288757835  nElectrons: 506.000000
	FillingsUpdate:  mu: +0.288757871  nElectrons: 506.000000
SCF: Cycle:  0   F: -1856.712742001205697   dF: +3.139e-05   |Residual|: 3.327e-03   |deigs|: 1.283e-05  t[s]:   3398.50
	FillingsUpdate:  mu: +0.288753257  nElectrons: 506.000000
SCF: Cycle:  1   F: -1856.712771749823105   dF: -2.975e-05   |Residual|: 2.767e-03   |deigs|: 3.422e-05  t[s]:   3505.52
	FillingsUpdate:  mu: +0.288753931  nElectrons: 506.000000
SCF: Cycle:  2   F: -1856.712781240300501   dF: -9.490e-06   |Residual|: 4.174e-04   |deigs|: 1.789e-05  t[s]:   3615.97
	FillingsUpdate:  mu: +0.288753219  nElectrons: 506.000000
SCF: Cycle:  3   F: -1856.712781968345780   dF: -7.280e-07   |Residual|: 1.874e-04   |deigs|: 1.001e-05  t[s]:   3724.82
	FillingsUpdate:  mu: +0.288753131  nElectrons: 506.000000
SCF: Cycle:  4   F: -1856.712782144666562   dF: -1.763e-07   |Residual|: 1.125e-04   |deigs|: 8.581e-06  t[s]:   3832.25
	FillingsUpdate:  mu: +0.288752892  nElectrons: 506.000000
SCF: Cycle:  5   F: -1856.712782202863082   dF: -5.820e-08   |Residual|: 5.647e-05   |deigs|: 7.429e-06  t[s]:   3940.34
	FillingsUpdate:  mu: +0.288752762  nElectrons: 506.000000
SCF: Cycle:  6   F: -1856.712782221062980   dF: -1.820e-08   |Residual|: 3.150e-05   |deigs|: 6.582e-06  t[s]:   4047.28
	FillingsUpdate:  mu: +0.288752674  nElectrons: 506.000000
SCF: Cycle:  7   F: -1856.712782223654131   dF: -2.591e-09   |Residual|: 1.944e-05   |deigs|: 6.085e-06  t[s]:   4156.41
	FillingsUpdate:  mu: +0.288752622  nElectrons: 506.000000
SCF: Cycle:  8   F: -1856.712782224542480   dF: -8.883e-10   |Residual|: 6.293e-06   |deigs|: 5.659e-06  t[s]:   4264.97
SCF: Converged (|Delta E|<1.000000e-08 for 2 iters).

Setting wave functions to eigenvectors of Hamiltonian

# Ionic positions in lattice coordinates:
ion W   0.125683236981739   0.126294388100919   0.221385557220287 1
ion W   0.135622453469891   0.130608426932318   0.725849959197398 1
ion W   0.375928912740129   0.374609463144733   0.276698665676451 1
ion W   0.372997612144183   0.372300617568332   0.775736503858239 1
ion W   0.126124543354932   0.626556828403953   0.220469469479297 1
ion W   0.122423397875924   0.624127227592315   0.722181976192937 1
ion W   0.377039567931255   0.874868319539000   0.276823555431426 1
ion W   0.375662440135898   0.873139975260347   0.776006941992179 1
ion W   0.626873469205707   0.126618331838280   0.219711179232280 1
ion W   0.621656816646074   0.126069614101896   0.720830782162863 1
ion W   0.876402418472546   0.375308488952532   0.279464480702715 1
ion W   0.876880974359377   0.371958607099171   0.776921490860865 1
ion W   0.626759836167687   0.626668508273081   0.218897975995684 1
ion W   0.608812222053829   0.614253978059275   0.717088282526875 1
ion W   0.875064437107524   0.873916646024670   0.278795944865326 1
ion W   0.885445697329814   0.895712749121864   0.766537621110512 1
ion O   0.022641181607165   0.270873112635047   0.731272559453243 1
ion O   0.233744325489637   0.267706908969865   0.211557732885959 1
ion O   0.018108914908441   0.483291658501141   0.280239487735623 1
ion O   0.230970501358660   0.481046460263490   0.769395978562243 1
ion O   0.095126092874152   0.117883611447658   0.991982542577942 1
ion O   0.156578207831904   0.133110722943717   0.495373329581967 1
ion O   0.477593740595337   0.021056391762783   0.721419222914031 1
ion O   0.266676279188364   0.016134561694861   0.228822846994611 1
ion O   0.482766436942030   0.232455556307436   0.268658355204432 1
ion O   0.275804963481477   0.226633091753208   0.793335595108437 1
ion O   0.407268064117986   0.385545087645118   0.001491416097402 1
ion O   0.343508472251643   0.364576054996420   0.505432994004861 1
ion O   0.003336475395523   0.764954647184507   0.727453301435123 1
ion O   0.232431091178733   0.768352139588159   0.220361260154071 1
ion O   0.016119097617231   0.982276528816898   0.284469715213635 1
ion O   0.228767251292654   0.980283730976019   0.770440195261100 1
ion O   0.097518177049851   0.622466895546604   0.990458734480611 1
ion O   0.149446326689624   0.631510183075491   0.492791696779883 1
ion O   0.468740800966489   0.523441499919294   0.690570448773151 1
ion O   0.267387229180346   0.516621768875152   0.226905801779910 1
ion O   0.482340936616210   0.730279086136115   0.268656671005954 1
ion O   0.266645059292421   0.731901297689481   0.775433288128104 1
ion O   0.400072549241855   0.878132308704758   0.005668656367715 1
ion O   0.353328422088821   0.869408324942151   0.508094579429582 1
ion O   0.520772305203928   0.274172433562622   0.722158785975266 1
ion O   0.733158371419097   0.268874572641578   0.220587323541468 1
ion O   0.518211488855735   0.484640622807822   0.280144813021517 1
ion O   0.733412733108572   0.493542997287761   0.772786651544689 1
ion O   0.600116332334405   0.122662913776462   0.989409740098582 1
ion O   0.650265218558979   0.127889842888939   0.491768363832274 1
ion O   0.977751384220585   0.030345514356726   0.711210185624168 1
ion O   0.768481673648883   0.016896984903103   0.228014670418320 1
ion O   0.983012935043319   0.231664921561151   0.274731550418894 1
ion O   0.768179444580587   0.230971001917490   0.777091032235509 1
ion O   0.900026387411273   0.378668567255110   0.006565661783946 1
ion O   0.846445798512850   0.371900244885273   0.508962967499290 1
ion O   0.529381253948391   0.772582827297848   0.735055376660956 1
ion O   0.731564688786810   0.769624444216695   0.217642393654091 1
ion O   0.518307246179555   0.983052742459751   0.275273730435079 1
ion O   0.725842632512535   0.973992083489512   0.767267840546709 1
ion O   0.604736003329239   0.625093447940241   0.984256289871356 1
ion O   0.657158744850671   0.635152065298107   0.495178967832092 1
ion O   0.982247699029305   0.515003912333867   0.717605049136678 1
ion O   0.767894745253596   0.517756911817387   0.226631986643967 1
ion O   0.980622177033836   0.731730190206476   0.269708875135638 1
ion O   0.896756699673783   0.879119579094217  -0.001111207387624 1
ion O   0.841665403271001   0.863657377613802   0.511542155042211 1

# Forces in Lattice coordinates:
force W   0.002139041135852  -0.000263140936809  -0.005377572943608 1
force W  -0.000970031449919   0.001624032678503   0.000060447135779 1
force W  -0.003146131105705   0.003742517591945  -0.001702441396387 1
force W  -0.005479636939304  -0.000402514949097   0.000742251328330 1
force W   0.001269326295855   0.001710376781670   0.002709217576698 1
force W  -0.001919591992345  -0.003705587595582  -0.000548866933252 1
force W  -0.001848712312879  -0.005151175917410  -0.002246945296249 1
force W  -0.003440856772790  -0.001963342955497  -0.001874864106862 1
force W  -0.002220609288980  -0.000762169593599  -0.000049251697571 1
force W  -0.002507558517861  -0.003469342245577  -0.000364664395713 1
force W   0.000650224364882  -0.005409605497272  -0.005050514153112 1
force W  -0.003828192191569   0.002923333089705  -0.001576411092163 1
force W   0.005850053796312   0.000253726486245  -0.002004856744252 1
force W  -0.002345321523652  -0.005710298645496   0.002623574800747 1
force W   0.001927493885792   0.001927361035317  -0.001955895396792 1
force W   0.002184793377389  -0.001092252945178  -0.001544172015535 1
force O   0.002465163413689   0.005753627836720   0.004930526129914 1
force O   0.003364723911758  -0.001781309523908   0.001479186862401 1
force O  -0.003418631090360   0.000290610185097  -0.005693697907945 1
force O  -0.007097995812297  -0.001445427712089   0.003438872543321 1
force O   0.005284154666856   0.001250290946510  -0.006881688862860 1
force O  -0.002044789240511   0.010082255534139   0.000627361689125 1
force O   0.000219140060444   0.000300812192391   0.001343226463334 1
force O   0.000670683007190   0.002437787531308   0.007574305663528 1
force O  -0.005091185080368  -0.006039493281271  -0.007397040601280 1
force O  -0.002409063022736  -0.005538256774528  -0.000018485246365 1
force O  -0.006718173490770   0.000391112338666   0.001205405934321 1
force O   0.001528843863164  -0.001315449674260  -0.000609298223531 1
force O   0.000242197565047  -0.006391266015448   0.006132207556415 1
force O   0.000301589464985   0.006732191236189   0.004338931395980 1
force O   0.001520547226035   0.006928263956471  -0.002743392359414 1
force O   0.001327988821290   0.004510494286571  -0.001358806970685 1
force O   0.002569942604070  -0.001733654498255   0.003495643126710 1
force O  -0.003210807973105  -0.000341090144362  -0.001973927609450 1
force O  -0.003314624851820  -0.012059310896488   0.004405333005225 1
force O   0.009990577973580   0.003926295247426  -0.003192156873895 1
force O  -0.001287795274643   0.002580081176478  -0.007478677176407 1
force O  -0.005100733558989  -0.001210949897116   0.000699986010773 1
force O  -0.005108616156881   0.000180670084470  -0.002444089097801 1
force O  -0.006627702463793  -0.003590581309021  -0.001298667503327 1
force O  -0.002242545733198  -0.006731604988166   0.008334412384272 1
force O  -0.001449963085253  -0.004837608096059   0.001745295667393 1
force O  -0.000656686938270   0.003769893289548   0.001072954269986 1
force O   0.005051297663990   0.003194893840273   0.000028893810540 1
force O   0.002005243479188  -0.002477995860953  -0.001235766434519 1
force O   0.002252500428896   0.000324024917028  -0.000344144679360 1
force O   0.001841646347088  -0.001099176735609   0.001092612932823 1
force O   0.006645291577045   0.006757329864859   0.001714263076148 1
force O   0.003840730945616  -0.001828913652127  -0.000890419186668 1
force O  -0.006415857119215   0.002755647680722  -0.002191859127202 1
force O   0.005070769100922   0.000166361785329  -0.003113099233939 1
force O   0.001084471374646  -0.001366201482167  -0.002264531909118 1
force O  -0.005073634017511  -0.005089110087505  -0.003530269061597 1
force O   0.005175992407704   0.002049470587476   0.002890420598444 1
force O   0.001476525718556   0.006061067694021   0.003236017097749 1
force O   0.001189846539180  -0.000322150787091   0.001235818497216 1
force O  -0.003812304426735   0.000246466927919   0.000883907058522 1
force O  -0.007689885824544  -0.000720597228549  -0.001003658564742 1
force O  -0.000157437022063   0.004618144997692   0.010074753808852 1
force O   0.006341111671373   0.010109405898626   0.006060496568386 1
force O  -0.003932962261384  -0.001839557167425  -0.004960270827605 1
force O   0.006183862940558   0.001147036255527  -0.000365541919212 1
force O   0.007576765266979   0.004594273079396  -0.000397276028790 1

# Energy components:
   Eewald =    -1177.3198043488039275
       EH =      557.4074926682799287
     Eloc =    -1505.1767299273258232
      Enl =     -127.9004800928389329
      Exc =     -495.7847990545807875
 Exc_core =      174.4960672223064648
       KE =      717.6172999025150148
-------------------------------------
     Etot =    -1856.6609536304479207
       TS =        0.0518285940946450
-------------------------------------
        F =    -1856.7127822245424795

IonicMinimize: Iter:   1  F: -1856.712782224542480  |grad|_K:  2.196e-04  alpha:  1.000e+00  linmin: -7.034e-01  t[s]:   4297.22

#--- Lowdin population analysis ---
# oxidation-state W +0.984 +0.977 +0.983 +0.977 +0.988 +0.980 +0.988 +0.984 +0.988 +0.984 +0.988 +0.981 +0.987 +0.999 +0.989 +0.999
# oxidation-state O -0.309 -0.318 -0.320 -0.309 -0.297 -0.273 -0.313 -0.317 -0.317 -0.272 -0.278 -0.292 -0.338 -0.319 -0.323 -0.316 -0.293 -0.279 -0.242 -0.317 -0.320 -0.323 -0.278 -0.292 -0.318 -0.319 -0.326 -0.338 -0.291 -0.280 -0.237 -0.317 -0.320 -0.324 -0.279 -0.290 -0.338 -0.313 -0.317 -0.334 -0.313 -0.296 -0.310 -0.315 -0.316 -0.298 -0.313


-------- Electronic minimization -----------
Will mix electronic density at each iteration.
	FillingsUpdate:  mu: +0.288752622  nElectrons: 506.000000
	FillingsUpdate:  mu: +0.288748816  nElectrons: 506.000000
SCF: Cycle:  0   F: -1856.712781940848117   dF: +8.101e-06   |Residual|: 2.295e-03   |deigs|: 5.369e-06  t[s]:   4481.07
	FillingsUpdate:  mu: +0.288744740  nElectrons: 506.000000
SCF: Cycle:  1   F: -1856.712795004221789   dF: -1.306e-05   |Residual|: 1.823e-03   |deigs|: 2.138e-05  t[s]:   4588.36
	FillingsUpdate:  mu: +0.288745081  nElectrons: 506.000000
SCF: Cycle:  2   F: -1856.712798997472646   dF: -3.993e-06   |Residual|: 3.208e-04   |deigs|: 1.069e-05  t[s]:   4709.58
	FillingsUpdate:  mu: +0.288744740  nElectrons: 506.000000
SCF: Cycle:  3   F: -1856.712799335334694   dF: -3.379e-07   |Residual|: 1.404e-04   |deigs|: 5.421e-06  t[s]:   4833.54
	FillingsUpdate:  mu: +0.288744617  nElectrons: 506.000000
SCF: Cycle:  4   F: -1856.712799408749561   dF: -7.341e-08   |Residual|: 7.816e-05   |deigs|: 4.626e-06  t[s]:   4942.71
	FillingsUpdate:  mu: +0.288744553  nElectrons: 506.000000
SCF: Cycle:  5   F: -1856.712799435513716   dF: -2.676e-08   |Residual|: 3.775e-05   |deigs|: 4.360e-06  t[s]:   5051.29
	FillingsUpdate:  mu: +0.288744496  nElectrons: 506.000000
SCF: Cycle:  6   F: -1856.712799444563188   dF: -9.049e-09   |Residual|: 2.068e-05   |deigs|: 4.103e-06  t[s]:   5158.95
	FillingsUpdate:  mu: +0.288744427  nElectrons: 506.000000
SCF: Cycle:  7   F: -1856.712799446097961   dF: -1.535e-09   |Residual|: 1.287e-05   |deigs|: 3.839e-06  t[s]:   5266.97
SCF: Converged (|Delta E|<1.000000e-08 for 2 iters).

Setting wave functions to eigenvectors of Hamiltonian

# Ionic positions in lattice coordinates:
ion W   0.125694319861066   0.126296227371601   0.221322796196787 1
ion W   0.135620847187591   0.130615744295758   0.725859368950980 1
ion W   0.375903469511502   0.374636451598954   0.276677760823685 1
ion W   0.372965544648957   0.372305216608869   0.775744909649277 1
ion W   0.126134460148521   0.626565584142484   0.220502256021339 1
ion W   0.122412385208091   0.624102726994240   0.722172235867660 1
ion W   0.377022792047811   0.874831691990965   0.276784769669615 1
ion W   0.375645782779044   0.873126332668960   0.776002225034456 1
ion W   0.626866503250817   0.126617615121494   0.219708149076197 1
ion W   0.621638851310251   0.126046724354759   0.720834819868003 1
ion W   0.876414551630265   0.375279666434401   0.279373412709169 1
ion W   0.876861031408556   0.371985931627525   0.776943243046711 1
ion W   0.626798051668908   0.626669118115328   0.218847676329115 1
ion W   0.608796359920656   0.614215015857450   0.717154991967267 1
ion W   0.875080040302379   0.873921665195210   0.278770112475599 1
ion W   0.885457260459403   0.895695635983996   0.766528493429130 1
ion O   0.022659190571342   0.270902909090958   0.731324141993721 1
ion O   0.233766671225752   0.267695031690901   0.211576029065981 1
ion O   0.018086933277967   0.483292155821124   0.280178999467573 1
ion O   0.230929086217108   0.481037305549908   0.769434602320338 1
ion O   0.095159148761381   0.117891559384348   0.991902190140858 1
ion O   0.156567357905451   0.133168388503349   0.495378366127466 1
ion O   0.477599514163121   0.021060674199887   0.721433390022732 1
ion O   0.266682616744026   0.016145573877312   0.228908342604071 1
ion O   0.482739721622563   0.232416864214487   0.268577955061945 1
ion O   0.275785992105151   0.226594292096538   0.793335247032069 1
ion O   0.407229296896099   0.385546107824879   0.001506883201854 1
ion O   0.343519226793192   0.364567568452948   0.505424940656946 1
ion O   0.003338938929048   0.764916177980333   0.727522903495412 1
ion O   0.232437913924075   0.768393228885820   0.220410215388120 1
ion O   0.016129534572196   0.982317568578913   0.284439293114471 1
ion O   0.228773912702656   0.980312911051729   0.770423272554723 1
ion O   0.097533707375344   0.622455286925009   0.990493068280850 1
ion O   0.149427891563820   0.631508232852956   0.492775397049360 1
ion O   0.468718534731490   0.523366654209124   0.690620374245464 1
ion O   0.267452285552081   0.516640362726799   0.226870703934905 1
ion O   0.482332767362941   0.730296034644563   0.268576208607166 1
ion O   0.266615404155644   0.731893351080619   0.775440793652515 1
ion O   0.400042043068717   0.878132997812006   0.005632566042054 1
ion O   0.353288738725129   0.869387252176727   0.508088591450742 1
ion O   0.520763743179143   0.274128088340191   0.722251603111376 1
ion O   0.733144942351376   0.268838425058188   0.220609417831039 1
ion O   0.518208026281916   0.484660759120867   0.280158383825500 1
ion O   0.733445615759272   0.493559453478477   0.772783373945831 1
ion O   0.600129322844199   0.122648345386559   0.989398645659807 1
ion O   0.650280621391169   0.127891102799812   0.491758835912573 1
ion O   0.977769740556940   0.030346381890429   0.711219990067786 1
ion O   0.768519806626623   0.016938098308617   0.228032751108542 1
ion O   0.983038944503641   0.231651512366115   0.274724641901441 1
ion O   0.768138688816889   0.230982712328571   0.777063946730023 1
ion O   0.900055675504576   0.378668127672811   0.006499804346005 1
ion O   0.846449220370792   0.371891081242878   0.508966650052821 1
ion O   0.529351282816183   0.772555522049656   0.735015421408131 1
ion O   0.731597763805897   0.769635351430444   0.217676888338775 1
ion O   0.518321730877516   0.983091194414710   0.275309714778335 1
ion O   0.725848261303215   0.973991797092976   0.767281092362067 1
ion O   0.604715640544296   0.625094519618247   0.984284755020875 1
ion O   0.657119953685502   0.635150403794125   0.495139661200903 1
ion O   0.982248797514661   0.515028181067262   0.717715625721060 1
ion O   0.767931698020212   0.517816129726290   0.226701005861734 1
ion O   0.980596036096180   0.731722841471843   0.269655369675670 1
ion O   0.896794879285806   0.879126388929157  -0.001118914492876 1
ion O   0.841710927573884   0.863683744418545   0.511539639006260 1

# Forces in Lattice coordinates:
force W   0.004109210111656  -0.002183601970709  -0.003452386325689 1
force W  -0.002833947485571   0.002954394069349  -0.003404762919248 1
force W   0.003235345585922  -0.000546196301849  -0.000855818207895 1
force W  -0.004455045263512  -0.006577946574620   0.001123271417784 1
force W  -0.000704554672227   0.000319047596580   0.001416349974132 1
force W  -0.000793425303716  -0.000529935540234   0.001385243721793 1
force W   0.003315338486787   0.000899137789289   0.002665197596039 1
force W  -0.005037137094905  -0.000963579627020  -0.006003877628742 1
force W  -0.006279826391483  -0.004322907589480  -0.000221389452079 1
force W   0.000030610780268  -0.001587326173470  -0.001775901037245 1
force W  -0.002110190466118  -0.005660749035448   0.004434086165311 1
force W  -0.003206854508186  -0.005947677282306  -0.011053263271195 1
force W   0.002934024997938   0.000326055906550   0.006500401814982 1
force W  -0.003693777187662  -0.002191092009778  -0.007645827101254 1
force W   0.000968500131486   0.006673147044404  -0.001369078231462 1
force W   0.002225036653938   0.003125859049116  -0.001797459032100 1
force O   0.000272151006989   0.006509772544013   0.004826922839669 1
force O   0.001832474205239  -0.000751214777199   0.000589329413084 1
force O  -0.000562820867065   0.001345190152075  -0.005935147784259 1
force O  -0.006044078134325  -0.002735815319769   0.002982596709450 1
force O   0.004591158308532   0.001015188737164  -0.003393907184837 1
force O  -0.002438421080777   0.009334553027343  -0.000140194830858 1
force O  -0.002550157049344  -0.003272287164292   0.001181679515461 1
force O  -0.000092241586771   0.003118882105110   0.006008300792991 1
force O  -0.006433230639939  -0.001419626357821  -0.006763992335082 1
force O   0.002207590143422  -0.000197756678561   0.000763902268083 1
force O  -0.006680980764250   0.000615931230880   0.000112427338419 1
force O   0.001018249478591  -0.001012902786332   0.000251503629544 1
force O  -0.000417442585608  -0.005307472456952   0.005382399815160 1
force O  -0.003155448106739   0.003228106434980   0.003040388578440 1
force O   0.001341585426542   0.004794293098337  -0.002999603035630 1
force O   0.002746630419847   0.001035542012551  -0.001247515547778 1
force O   0.003619778944514  -0.001167665840081   0.004344262605699 1
force O  -0.002957991231731  -0.001062009232647  -0.002590025635082 1
force O   0.001320280700783  -0.007135205153462   0.004578596467504 1
force O   0.005453701536270   0.007199813931016  -0.002903494234423 1
force O   0.000598416468581   0.001283087700990  -0.007714479800710 1
force O  -0.004121695256855  -0.000705816726633   0.000843275504009 1
force O  -0.004383713978046   0.000489739969065   0.000299228676859 1
force O  -0.005134813452749  -0.003831075636405  -0.002967901576516 1
force O  -0.005411551221140  -0.003790621106166   0.008032337397791 1
force O   0.003146024237536   0.002046722760580   0.001121357731217 1
force O   0.000479020330407   0.003931318628847   0.000057507817029 1
force O   0.003074974210163   0.004265028121698   0.000964727345173 1
force O   0.002463613346082  -0.002909187418213  -0.000919539174473 1
force O   0.001350084361633   0.000484045669614   0.001417677927937 1
force O  -0.001017963694861  -0.004320464620999   0.001267703261745 1
force O   0.007662994099110   0.003994924356077   0.001470864098507 1
force O   0.001885104428371   0.000295492500370  -0.001761947628462 1
force O  -0.002760202743559   0.006071329809482  -0.001155728529463 1
force O   0.004439904506101   0.000966686124904   0.005493075697117 1
force O   0.003490337396935  -0.000801635508907  -0.008950649127200 1
force O  -0.004671872687620  -0.006640512968541  -0.002534977781886 1
force O   0.002939255352135   0.001523789517401   0.001624837231251 1
force O  -0.002536764716746   0.000804675686916   0.002611768543031 1
force O   0.003047899983217  -0.002390227305567   0.001304216995508 1
force O  -0.003681652238126  -0.000508214378036  -0.004906924409909 1
force O  -0.010725584372822  -0.002290229825164   0.007464756421818 1
force O  -0.002045097661828   0.003329715994366   0.008710846984141 1
force O   0.007043578574391   0.006958759453795   0.004125546317549 1
force O  -0.000856285456209  -0.003046594178005  -0.004715019402566 1
force O   0.005423560720675   0.000974482842873   0.000136812865148 1
force O   0.007947201820181   0.003803601980922  -0.000879859938415 1

# Energy components:
   Eewald =    -1177.2979920843915806
       EH =      557.4289591561198449
     Eloc =    -1505.2207847192762529
      Enl =     -127.9002967742321175
      Exc =     -495.7852365039797178
 Exc_core =      174.4960673459030147
       KE =      717.6183194561187975
-------------------------------------
     Etot =    -1856.6609641237380401
       TS =        0.0518353223598968
-------------------------------------
        F =    -1856.7127994460979608

IonicMinimize: Iter:   2  F: -1856.712799446097961  |grad|_K:  2.251e-04  alpha:  1.000e+00  linmin: -5.447e-01  t[s]:   5298.82

#--- Lowdin population analysis ---
# oxidation-state W +0.984 +0.977 +0.983 +0.977 +0.988 +0.980 +0.988 +0.984 +0.988 +0.984 +0.988 +0.981 +0.987 +0.999 +0.989 +0.999
# oxidation-state O -0.309 -0.318 -0.320 -0.309 -0.297 -0.273 -0.313 -0.317 -0.317 -0.272 -0.278 -0.292 -0.338 -0.319 -0.323 -0.316 -0.293 -0.279 -0.242 -0.317 -0.320 -0.323 -0.278 -0.292 -0.318 -0.319 -0.326 -0.338 -0.291 -0.281 -0.237 -0.317 -0.319 -0.324 -0.279 -0.290 -0.338 -0.313 -0.317 -0.334 -0.313 -0.297 -0.310 -0.315 -0.316 -0.298 -0.313


-------- Electronic minimization -----------
Will mix electronic density at each iteration.
	FillingsUpdate:  mu: +0.288744427  nElectrons: 506.000000
	FillingsUpdate:  mu: +0.288732734  nElectrons: 506.000000
SCF: Cycle:  0   F: -1856.712802211176722   dF: -1.780e-05   |Residual|: 3.305e-03   |deigs|: 3.312e-06  t[s]:   5484.23
	FillingsUpdate:  mu: +0.288727271  nElectrons: 506.000000
SCF: Cycle:  1   F: -1856.712822352337980   dF: -2.014e-05   |Residual|: 2.474e-03   |deigs|: 2.391e-05  t[s]:   5591.55
	FillingsUpdate:  mu: +0.288728121  nElectrons: 506.000000
SCF: Cycle:  2   F: -1856.712829464299148   dF: -7.112e-06   |Residual|: 5.608e-04   |deigs|: 1.331e-05  t[s]:   5698.43
	FillingsUpdate:  mu: +0.288728484  nElectrons: 506.000000
SCF: Cycle:  3   F: -1856.712829982483981   dF: -5.182e-07   |Residual|: 2.102e-04   |deigs|: 3.827e-06  t[s]:   5807.60
	FillingsUpdate:  mu: +0.288728374  nElectrons: 506.000000
SCF: Cycle:  4   F: -1856.712830053522339   dF: -7.104e-08   |Residual|: 1.044e-04   |deigs|: 3.211e-06  t[s]:   5915.32
	FillingsUpdate:  mu: +0.288728623  nElectrons: 506.000000
SCF: Cycle:  5   F: -1856.712830079295827   dF: -2.577e-08   |Residual|: 4.243e-05   |deigs|: 2.762e-06  t[s]:   6022.06
	FillingsUpdate:  mu: +0.288728739  nElectrons: 506.000000
SCF: Cycle:  6   F: -1856.712830084933785   dF: -5.638e-09   |Residual|: 2.353e-05   |deigs|: 2.738e-06  t[s]:   6130.39
	FillingsUpdate:  mu: +0.288728729  nElectrons: 506.000000
SCF: Cycle:  7   F: -1856.712830086943086   dF: -2.009e-09   |Residual|: 1.429e-05   |deigs|: 2.714e-06  t[s]:   6236.56
SCF: Converged (|Delta E|<1.000000e-08 for 2 iters).

Setting wave functions to eigenvectors of Hamiltonian

# Ionic positions in lattice coordinates:
ion W   0.125740523326922   0.126288305618813   0.221170886280969 1
ion W   0.135603841751494   0.130648174033378   0.725839347582454 1
ion W   0.375878884289174   0.374683631153669   0.276631309068604 1
ion W   0.372882744441212   0.372273783222764   0.775778006954178 1
ion W   0.126145645816171   0.626577664840167   0.220579049350438 1
ion W   0.122390846621944   0.624057595211174   0.722169648482288 1
ion W   0.377012724843848   0.874770383271642   0.276731280302904 1
ion W   0.375587515982786   0.873094122783134   0.775942874705019 1
ion W   0.626816154947705   0.126589699461190   0.219691218790739 1
ion W   0.621604413167050   0.125995166453524   0.720834255771466 1
ion W   0.876436550603835   0.375195653414910   0.279212326099060 1
ion W   0.876813815180465   0.372003016680700   0.776913555625632 1
ion W   0.626883164734024   0.626667633606875   0.218802878496784 1
ion W   0.608730825595269   0.614130867762485   0.717229476396770 1
ion W   0.875121624165703   0.873970475087611   0.278696408731439 1
ion W   0.885485648952846   0.895666124075517   0.766511641407496 1
ion O   0.022693459234611   0.270992338858422   0.731466363988531 1
ion O   0.233817980404591   0.267669998024018   0.211614514250488 1
ion O   0.018047149630011   0.483300717520384   0.280004271093335 1
ion O   0.230820319674253   0.480999532701380   0.769537976598375 1
ion O   0.095248270756051   0.117911163443078   0.991726935532849 1
ion O   0.156532740352195   0.133327704468263   0.495378210269543 1
ion O   0.477595144533764   0.021045179731409   0.721470492099095 1
ion O   0.266695801054515   0.016182534187549   0.229129436090481 1
ion O   0.482654638400118   0.232341292215252   0.268356220308868 1
ion O   0.275766449688466   0.226522124592059   0.793344062848883 1
ion O   0.407118613673283   0.385550941804561   0.001534944533680 1
ion O   0.343546215860157   0.364545176975867   0.505413894132939 1
ion O   0.003339248476247   0.764817063536371   0.727709885225710 1
ion O   0.232430740741683   0.768485192865841   0.220532396412414 1
ion O   0.016158419075224   0.982417201469358   0.284349411326412 1
ion O   0.228802653936057   0.980370072387777   0.770374916901168 1
ion O   0.097587300514083   0.622426683662201   0.990597551624873 1
ion O   0.149376690151749   0.631496407217841   0.492727875884165 1
ion O   0.468694126715506   0.523192056673437   0.690763158195800 1
ion O   0.267602682594572   0.516717592727095   0.226775187325359 1
ion O   0.482325199054636   0.730334828865264   0.268345147944616 1
ion O   0.266539405050640   0.731875140169696   0.775463401726704 1
ion O   0.399959316866275   0.878136839949019   0.005560350317196 1
ion O   0.353187164099479   0.869325009816298   0.508055527601817 1
ion O   0.520714773552814   0.274022881057697   0.722510862041879 1
ion O   0.733140767801118   0.268787341888880   0.220662502628071 1
ion O   0.518208354082512   0.484719054897741   0.280182911369086 1
ion O   0.733523741691210   0.493614299126431   0.772784306092543 1
ion O   0.600171331297284   0.122602479408189   0.989376508716015 1
ion O   0.650317702938341   0.127895747089439   0.491751937392199 1
ion O   0.977806785079698   0.030334152065848   0.711246811657220 1
ion O   0.768634545653706   0.017035780349594   0.228081555000086 1
ion O   0.983098227657302   0.231629246136816   0.274692454390836 1
ion O   0.768051113899181   0.231040453693673   0.776998719495318 1
ion O   0.900129333450436   0.378669170620877   0.006404807696062 1
ion O   0.846474919206369   0.371870318670159   0.508910511292730 1
ion O   0.529267496162895   0.772465751775463   0.734914760402917 1
ion O   0.731672633844816   0.769662625324907   0.217758357253477 1
ion O   0.518332329663717   0.983160240538778   0.275405817293707 1
ion O   0.725878061335996   0.973975827152302   0.767319701747644 1
ion O   0.604661141002312   0.625093124081886   0.984297002298152 1
ion O   0.656990086701423   0.635133683215234   0.495125873574829 1
ion O   0.982234828369687   0.515086215404109   0.718009032865369 1
ion O   0.768041167267521   0.517961745352156   0.226872526632868 1
ion O   0.980544229878203   0.731696057620762   0.269507455077593 1
ion O   0.896897554388481   0.879145805603024  -0.001139475091132 1
ion O   0.841844220116358   0.863752908386042   0.511528763892986 1

# Forces in Lattice coordinates:
force W   0.006084494045499  -0.002293954917232   0.000513963901523 1
force W  -0.004875367176001   0.003145068662630  -0.007194713440029 1
force W   0.009151274536929  -0.003330738682614   0.001005686757031 1
force W  -0.003070598465356  -0.011971769779565   0.001163917456633 1
force W  -0.003321697600390  -0.001979830888676  -0.000267550663766 1
force W   0.000090475697134   0.002669807691104   0.003592080705664 1
force W   0.006056087893984   0.005734181087466   0.006969724303241 1
force W  -0.006301726369260   0.000943958717244  -0.008158817153005 1
force W  -0.007408208635058  -0.006175803572345   0.000894620892500 1
force W   0.002356678176545   0.000414442356427  -0.003217520039181 1
force W  -0.003978588929992  -0.003840480136052   0.013427184442149 1
force W  -0.001140357334401  -0.012784924629313  -0.016933653142408 1
force W  -0.000416958894864   0.000360604771928   0.013592074174778 1
force W  -0.002692343105958   0.003235130831610  -0.015368986574634 1
force W   0.000440144160235   0.009746593504788   0.000118570071411 1
force W   0.002633365078895   0.007288905049340  -0.002196204767401 1
force O  -0.001113046766184   0.004413637427726   0.002982192644134 1
force O  -0.000574479208797   0.001899487222314  -0.001035859827870 1
force O   0.004515422029419   0.001542947351210  -0.005170148575769 1
force O  -0.002700212053004  -0.005487053889840   0.001402928839781 1
force O   0.003115278426831   0.000235880927540   0.002466640568354 1
force O  -0.002889515306820   0.007458813297879  -0.002108080616762 1
force O  -0.004206240869083  -0.007303114058147   0.000010916330869 1
force O   0.000279518318236   0.003615970160114   0.002773132580794 1
force O  -0.005307906486847   0.004301808860758  -0.005264789080012 1
force O   0.006602558152785   0.004703518170209   0.001878281560845 1
force O  -0.005608312036091   0.000815060930324  -0.000287638575850 1
force O   0.000782028342894  -0.000699279120687   0.000776712627419 1
force O  -0.002007864732024  -0.001597471684610   0.003423740674139 1
force O  -0.006914243674464  -0.000992402905366   0.001136392118017 1
force O   0.002005003474425   0.000563414598399  -0.003120693869363 1
force O   0.002816473959325  -0.002603721350834  -0.002087700386734 1
force O   0.005362938521785   0.000182557766947   0.002676307854136 1
force O  -0.002589580934472  -0.002482901457927  -0.000515159372921 1
force O   0.004254689168539  -0.001705522901250   0.003442208056257 1
force O  -0.000682459908862   0.009293727173055  -0.001216419077103 1
force O   0.002996693316716   0.000570440895510  -0.006460639854918 1
force O  -0.001920682304703  -0.000001025980163   0.000681680118528 1
force O  -0.003358517019419   0.001459640994695   0.002931011957665 1
force O  -0.001688155561018  -0.003941093699472  -0.003707609599526 1
force O  -0.008030475648113  -0.001020893703712   0.006176933041271 1
force O   0.005998807759998   0.009141103757301  -0.000299652409313 1
force O   0.002300158431005   0.001951386683232  -0.001274167804803 1
force O  -0.000982099854431   0.005340730406882   0.001426179089805 1
force O   0.003063604231886  -0.004230500233600  -0.000460268524138 1
force O  -0.001004127734525   0.000857340225640   0.003302515630170 1
force O  -0.003439770588038  -0.006382672643800   0.000907563993882 1
force O   0.005168987725749   0.001499475553886   0.000594470451431 1
force O  -0.000489434865769   0.002510099255979  -0.003181473449540 1
force O   0.001012444082386   0.007178648187963   0.000104559417411 1
force O   0.000855142820671   0.000687595984128   0.013523479175410 1
force O   0.006709475338631  -0.000131877750986  -0.013757605889127 1
force O  -0.005521339500553  -0.005974554806581  -0.000928907867076 1
force O  -0.001787442093400   0.001107446162533  -0.000108770177242 1
force O  -0.005677619472106  -0.005881881043446   0.001502574151314 1
force O   0.003634049305516  -0.003663303771388   0.001090244646302 1
force O  -0.001720714385047  -0.001596385636708  -0.008469031027489 1
force O  -0.012634547053951  -0.003585645672185   0.012995049383503 1
force O  -0.004249914497620   0.001064584390969   0.004720118066923 1
force O   0.006126268009762   0.001223761514027   0.000808021638422 1
force O   0.002456867004037  -0.001367960502630  -0.003426980718757 1
force O   0.003474181516629   0.001511286833939   0.001891869296765 1
force O   0.008390460766880   0.002596345268136  -0.002107710229073 1

# Energy components:
   Eewald =    -1177.2262949616092556
       EH =      557.4989741026579395
     Eloc =    -1505.3662043750607609
      Enl =     -127.9001151346523386
      Exc =     -495.7873085593305404
 Exc_core =      174.4960679042454501
       KE =      717.6238931345377523
-------------------------------------
     Etot =    -1856.6609878892118104
       TS =        0.0518421977312950
-------------------------------------
        F =    -1856.7128300869430859

IonicMinimize: Iter:   3  F: -1856.712830086943086  |grad|_K:  2.905e-04  alpha:  1.000e+00  linmin: -2.606e-01  t[s]:   6268.77

#--- Lowdin population analysis ---
# oxidation-state W +0.984 +0.977 +0.983 +0.977 +0.988 +0.980 +0.988 +0.984 +0.988 +0.984 +0.988 +0.981 +0.987 +0.999 +0.989 +0.999
# oxidation-state O -0.309 -0.318 -0.319 -0.309 -0.297 -0.273 -0.313 -0.317 -0.317 -0.272 -0.278 -0.292 -0.338 -0.319 -0.323 -0.316 -0.293 -0.279 -0.242 -0.317 -0.320 -0.323 -0.278 -0.292 -0.318 -0.319 -0.326 -0.338 -0.291 -0.281 -0.237 -0.318 -0.319 -0.324 -0.279 -0.291 -0.338 -0.313 -0.317 -0.334 -0.313 -0.297 -0.309 -0.315 -0.316 -0.298 -0.313


-------- Electronic minimization -----------
Will mix electronic density at each iteration.
	FillingsUpdate:  mu: +0.288728729  nElectrons: 506.000000
	FillingsUpdate:  mu: +0.288712100  nElectrons: 506.000000
SCF: Cycle:  0   F: -1856.712842005066477   dF: -6.188e-05   |Residual|: 3.218e-03   |deigs|: 2.636e-06  t[s]:   6452.03
	FillingsUpdate:  mu: +0.288709068  nElectrons: 506.000000
SCF: Cycle:  1   F: -1856.712859274506854   dF: -1.727e-05   |Residual|: 2.017e-03   |deigs|: 2.534e-05  t[s]:   6556.40
	FillingsUpdate:  mu: +0.288711349  nElectrons: 506.000000
SCF: Cycle:  2   F: -1856.712863158642449   dF: -3.884e-06   |Residual|: 6.858e-04   |deigs|: 1.154e-05  t[s]:   6667.38
	FillingsUpdate:  mu: +0.288712635  nElectrons: 506.000000
SCF: Cycle:  3   F: -1856.712864007167127   dF: -8.485e-07   |Residual|: 2.239e-04   |deigs|: 4.046e-06  t[s]:   6774.01
	FillingsUpdate:  mu: +0.288712729  nElectrons: 506.000000
SCF: Cycle:  4   F: -1856.712864084730882   dF: -7.756e-08   |Residual|: 1.208e-04   |deigs|: 2.787e-06  t[s]:   6881.80
	FillingsUpdate:  mu: +0.288713392  nElectrons: 506.000000
SCF: Cycle:  5   F: -1856.712864125478518   dF: -4.075e-08   |Residual|: 4.319e-05   |deigs|: 2.391e-06  t[s]:   6990.32
	FillingsUpdate:  mu: +0.288713713  nElectrons: 506.000000
SCF: Cycle:  6   F: -1856.712864135441805   dF: -9.963e-09   |Residual|: 2.654e-05   |deigs|: 2.298e-06  t[s]:   7098.97
	FillingsUpdate:  mu: +0.288713862  nElectrons: 506.000000
SCF: Cycle:  7   F: -1856.712864140148440   dF: -4.707e-09   |Residual|: 1.452e-05   |deigs|: 2.281e-06  t[s]:   7205.81
SCF: Converged (|Delta E|<1.000000e-08 for 2 iters).

Setting wave functions to eigenvectors of Hamiltonian

# Ionic positions in lattice coordinates:
ion W   0.125846382853040   0.126288997197890   0.221017175022228 1
ion W   0.135549679739174   0.130700895301093   0.725718622455725 1
ion W   0.375898429099799   0.374752399256533   0.276606253354483 1
ion W   0.372753972526357   0.372164621498460   0.775836984864377 1
ion W   0.126126618721469   0.626562327370959   0.220676738553546 1
ion W   0.122361498398317   0.624013831114478   0.722214619493535 1
ion W   0.377001703079677   0.874701599851813   0.276703093740043 1
ion W   0.375472414957112   0.873064137723097   0.775837637183111 1
ion W   0.626740405832008   0.126533661124240   0.219699426328300 1
ion W   0.621564396088315   0.125925876087941   0.720810518111327 1
ion W   0.876472763117311   0.375083342624892   0.279064541270790 1
ion W   0.876772292159932   0.371978917763437   0.776844821661044 1
ion W   0.626991298650882   0.626660748520214   0.218825380800770 1
ion W   0.608634646324034   0.614058361348370   0.717274129229698 1
ion W   0.875199640402588   0.874076591580832   0.278602216792478 1
ion W   0.885539196639687   0.895645559624989   0.766484847100427 1
ion O   0.022746176990217   0.271103496915282   0.731650222024397 1
ion O   0.233873116416393   0.267671753869564   0.211633296061674 1
ion O   0.018057092537497   0.483309072136515   0.279725190898297 1
ion O   0.230686464710986   0.480885112427911   0.769671203528417 1
ion O   0.095384368090824   0.117929172755235   0.991585024754095 1
ion O   0.156463631003533   0.133584658150283   0.495310786740603 1
ion O   0.477578695221924   0.020966501514827   0.721493770437742 1
ion O   0.266735680486832   0.016254974752645   0.229428181528007 1
ion O   0.482539260052038   0.232280039620378   0.268001143860047 1
ion O   0.275779662681377   0.226442028125450   0.793388164278378 1
ion O   0.406940838433519   0.385561579830257   0.001588162175158 1
ion O   0.343594883223313   0.364508081491656   0.505399102132535 1
ion O   0.003310321072812   0.764708401700406   0.727980467106918 1
ion O   0.232370605562899   0.768597907283151   0.220702697534632 1
ion O   0.016226721488829   0.982527628623830   0.284189221996857 1
ion O   0.228841169648414   0.980430550358518   0.770251306450764 1
ion O   0.097712330059750   0.622399592420505   0.990698836729367 1
ion O   0.149289041793258   0.631449647109652   0.492743614425558 1
ion O   0.468672711152845   0.522947196174414   0.690969881933618 1
ion O   0.267786237979854   0.516868750206494   0.226664931980547 1
ion O   0.482345961303795   0.730401080089510   0.267983386606182 1
ion O   0.266440920701900   0.731853140845158   0.775494118680910 1
ion O   0.399823427865922   0.878160141960885   0.005475070149650 1
ion O   0.353062996203781   0.869211780434651   0.508004990810179 1
ion O   0.520600532191250   0.273863501012006   0.722909428145788 1
ion O   0.733148923757574   0.268779455872711   0.220711427291944 1
ion O   0.518238478265093   0.484781983010257   0.280194363267277 1
ion O   0.733596700815175   0.493725641033189   0.772784040515034 1
ion O   0.600257087554811   0.122495156036225   0.989355583592113 1
ion O   0.650343257005595   0.127909884254906   0.491776732129069 1
ion O   0.977857043402260   0.030310490150357   0.711273156580007 1
ion O   0.768776833919973   0.017187492421927   0.228140317780268 1
ion O   0.983173328272139   0.231615764047409   0.274593614340208 1
ion O   0.767939286938940   0.231136401502306   0.776910347202836 1
ion O   0.900186179007126   0.378653328401639   0.006363767563618 1
ion O   0.846563651737737   0.371842117769037   0.508770851804110 1
ion O   0.529092947697141   0.772330724935396   0.734776322226855 1
ion O   0.731725860567721   0.769708540645924   0.217860600919171 1
ion O   0.518322766980780   0.983194106781294   0.275550690265736 1
ion O   0.725926025986076   0.973940206871613   0.767379137201826 1
ion O   0.604606112880609   0.625075500268792   0.984296349965913 1
ion O   0.656748853850594   0.635092170571297   0.495144037921067 1
ion O   0.982177567982257   0.515156137508839   0.718403346755436 1
ion O   0.768210888328033   0.518136707101444   0.227090192771962 1
ion O   0.980490872868141   0.731696150436594   0.269286345562347 1
ion O   0.897048058246513   0.879193979172861  -0.001123991563861 1
ion O   0.842091088472245   0.863860403407561   0.511473558974861 1

# Forces in Lattice coordinates:
force W   0.006148503929168   0.001124740725288   0.002813735438223 1
force W  -0.001844408669547   0.001265523677420  -0.005066163629215 1
force W   0.008225804819874  -0.003301561040772  -0.000604723581535 1
force W   0.001022196681811  -0.006659509160161   0.003978034484106 1
force W  -0.003121281298821  -0.001464237744348  -0.003001987586410 1
force W   0.000736623488754   0.000837033851204   0.007542234564559 1
force W   0.003681914050453   0.005133659334403   0.006428118422751 1
force W  -0.003987452146715   0.002781538117185  -0.005278029876161 1
force W  -0.004546839019071  -0.003779201607587  -0.000615093192019 1
force W   0.000646924901398  -0.000122474596477   0.001164160682654 1
force W  -0.004982052151294  -0.002046453491488   0.012795341988226 1
force W  -0.001393289200280  -0.008723552867347  -0.013082311026144 1
force W   0.000035379672392   0.002712951813985   0.011827027954302 1
force W  -0.006286174793873   0.002331149051924  -0.013798881617941 1
force W  -0.000374697305012   0.008219118086867  -0.002215165434339 1
force W  -0.000476944222322   0.006935949332716   0.002424378893301 1
force O  -0.001834704869840   0.000671104633599  -0.000167605204023 1
force O  -0.001643721865719   0.005898581015298  -0.001648645775352 1
force O   0.007630421899683  -0.000430358683515  -0.002597987978729 1
force O  -0.002805260450272  -0.004229338435558  -0.001600152934265 1
force O   0.001653938183958  -0.000972656978149   0.004039604015506 1
force O  -0.002494106307336   0.004662968296682  -0.003125859751561 1
force O  -0.001195088487273  -0.006425363085818  -0.002308578567741 1
force O   0.002401214308353   0.003140843503805  -0.000141912221420 1
force O  -0.001632960209254   0.007127951594603  -0.002245260099814 1
force O   0.001162641758757  -0.001534148500267   0.001265361223286 1
force O  -0.003623211596822   0.000508807250453  -0.000707211675338 1
force O   0.000522152124184  -0.001412927055995   0.001741680130300 1
force O  -0.002073928812800   0.001164244444363   0.000335122884921 1
force O  -0.008168071803981  -0.003110325491419   0.000196082324163 1
force O   0.002408627966060  -0.003438533274765  -0.001689832176774 1
force O  -0.002037148891806  -0.001479415529612  -0.004377155456581 1
force O   0.005500413028390   0.001684723839740   0.000843852910270 1
force O  -0.002706817116498  -0.003244278624430  -0.000205708425471 1
force O   0.008621631517998   0.004791270244814   0.001715231645231 1
force O  -0.004051434202538   0.006877686536765   0.002158815969339 1
force O   0.002792777990840   0.000636181148179  -0.003218843687570 1
force O  -0.001636724371410  -0.000969441133927  -0.000076831929889 1
force O  -0.003047408927586   0.002941414095387   0.003736241830363 1
force O   0.001514271029080  -0.003351736350158  -0.002419632565954 1
force O  -0.004785851037778  -0.002456052208886   0.001935045304283 1
force O   0.003573426534839   0.009738874518068  -0.000810258380350 1
force O   0.003549848931002  -0.002248456466711  -0.001233442347276 1
force O  -0.001114976631713   0.002366027485966   0.000486549352165 1
force O   0.003602655092161  -0.005465633124503   0.001786297395526 1
force O  -0.002900266145798   0.001492904409089   0.000713626761595 1
force O  -0.002166265223733  -0.002512903988958  -0.000923294542660 1
force O   0.001715883511470  -0.000905127550375   0.000521215180720 1
force O  -0.002629385225389   0.003446072442127  -0.003315341295184 1
force O   0.003140451989239   0.004394136850310   0.000134380086539 1
force O  -0.003821471944586  -0.000905029850576   0.012306393088804 1
force O   0.008394628002968   0.000217647460585  -0.008278100688973 1
force O  -0.005622807714409  -0.002679485014114   0.000648133130677 1
force O  -0.003575427551931   0.002765443470092  -0.000315846915484 1
force O  -0.003593236484570  -0.007003566513293   0.000512379801138 1
force O   0.003101279073407  -0.003263637353119  -0.000448077962927 1
force O   0.001777329454626  -0.001890544754259  -0.006454993745090 1
force O  -0.009853738628393  -0.002776270845917   0.009930785307992 1
force O  -0.004828395565924  -0.001129753822839  -0.000333843121922 1
force O   0.003954665717400  -0.003713130407304  -0.001642892923729 1
force O   0.004429373672659   0.000459607047456  -0.001162215170620 1
force O   0.000432342183618   0.003435049602102   0.000201845895166 1
force O   0.006869903042279   0.002079344373445  -0.000166579035576 1

# Energy components:
   Eewald =    -1177.1022066953598824
       EH =      557.6203668919272332
     Eloc =    -1505.6190020141161767
      Enl =     -127.8999781569779941
      Exc =     -495.7913638709113684
 Exc_core =      174.4960691266621211
       KE =      717.6350925694738407
-------------------------------------
     Etot =    -1856.6610221493024255
       TS =        0.0518419908459913
-------------------------------------
        F =    -1856.7128641401484401

IonicMinimize: Iter:   4  F: -1856.712864140148440  |grad|_K:  2.461e-04  alpha:  1.000e+00  linmin: -2.231e-01  t[s]:   7238.31

#--- Lowdin population analysis ---
# oxidation-state W +0.984 +0.977 +0.983 +0.977 +0.988 +0.980 +0.988 +0.984 +0.988 +0.984 +0.988 +0.981 +0.987 +0.999 +0.989 +0.999
# oxidation-state O -0.309 -0.318 -0.320 -0.309 -0.297 -0.273 -0.313 -0.317 -0.318 -0.272 -0.278 -0.292 -0.338 -0.319 -0.323 -0.316 -0.292 -0.280 -0.242 -0.318 -0.319 -0.323 -0.278 -0.292 -0.318 -0.319 -0.326 -0.338 -0.291 -0.281 -0.237 -0.318 -0.319 -0.324 -0.279 -0.291 -0.338 -0.313 -0.318 -0.334 -0.313 -0.297 -0.309 -0.315 -0.316 -0.298 -0.313


-------- Electronic minimization -----------
Will mix electronic density at each iteration.
	FillingsUpdate:  mu: +0.288713862  nElectrons: 506.000000
	FillingsUpdate:  mu: +0.288675493  nElectrons: 506.000000
SCF: Cycle:  0   F: -1856.712622732344471   dF: -3.099e-05   |Residual|: 9.043e-03   |deigs|: 8.357e-06  t[s]:   7465.76
	FillingsUpdate:  mu: +0.288671348  nElectrons: 506.000000
SCF: Cycle:  1   F: -1856.712785351189495   dF: -1.626e-04   |Residual|: 6.923e-03   |deigs|: 9.572e-05  t[s]:   7574.45
	FillingsUpdate:  mu: +0.288674518  nElectrons: 506.000000
SCF: Cycle:  2   F: -1856.712846899238684   dF: -6.155e-05   |Residual|: 1.411e-03   |deigs|: 4.458e-05  t[s]:   7682.21
	FillingsUpdate:  mu: +0.288677091  nElectrons: 506.000000
SCF: Cycle:  3   F: -1856.712851086262845   dF: -4.187e-06   |Residual|: 5.359e-04   |deigs|: 8.461e-06  t[s]:   7807.03
	FillingsUpdate:  mu: +0.288677591  nElectrons: 506.000000
SCF: Cycle:  4   F: -1856.712851866005394   dF: -7.797e-07   |Residual|: 2.919e-04   |deigs|: 4.963e-06  t[s]:   7916.62
	FillingsUpdate:  mu: +0.288678853  nElectrons: 506.000000
SCF: Cycle:  5   F: -1856.712852165092499   dF: -2.991e-07   |Residual|: 1.236e-04   |deigs|: 2.863e-06  t[s]:   8025.60
	FillingsUpdate:  mu: +0.288679796  nElectrons: 506.000000
SCF: Cycle:  6   F: -1856.712852262560318   dF: -9.747e-08   |Residual|: 7.336e-05   |deigs|: 2.273e-06  t[s]:   8133.78
	FillingsUpdate:  mu: +0.288680037  nElectrons: 506.000000
SCF: Cycle:  7   F: -1856.712852289340390   dF: -2.678e-08   |Residual|: 4.581e-05   |deigs|: 1.849e-06  t[s]:   8241.59
	FillingsUpdate:  mu: +0.288680327  nElectrons: 506.000000
SCF: Cycle:  8   F: -1856.712852297830523   dF: -8.490e-09   |Residual|: 1.542e-05   |deigs|: 1.775e-06  t[s]:   8349.65
	FillingsUpdate:  mu: +0.288680387  nElectrons: 506.000000
SCF: Cycle:  9   F: -1856.712852298974440   dF: -1.144e-09   |Residual|: 8.768e-06   |deigs|: 1.618e-06  t[s]:   8459.67
SCF: Converged (|Delta E|<1.000000e-08 for 2 iters).

Setting wave functions to eigenvectors of Hamiltonian
IonicMinimize: 	Wolfe criterion not satisfied: alpha: 1  (E-E0)/|gdotd0|: 0.176408  gdotd/gdotd0: -1.34844 (taking cubic step)

-------- Electronic minimization -----------
Will mix electronic density at each iteration.
	FillingsUpdate:  mu: +0.288680387  nElectrons: 506.000000
	FillingsUpdate:  mu: +0.288701923  nElectrons: 506.000000
SCF: Cycle:  0   F: -1856.712803128578344   dF: -1.117e-05   |Residual|: 5.168e-03   |deigs|: 1.674e-06  t[s]:   8684.36
	FillingsUpdate:  mu: +0.288705799  nElectrons: 506.000000
SCF: Cycle:  1   F: -1856.712857005180240   dF: -5.388e-05   |Residual|: 3.897e-03   |deigs|: 5.567e-05  t[s]:   8792.88
[...]
ion O   0.276558254177160   0.225431467011769   0.793334855547335 1
ion O   0.405526768986620   0.387740337996234   0.001262992682679 1
ion O   0.346776757286157   0.363101756151260   0.505234141567375 1
ion O   0.002542375689141   0.764484387457255   0.732482152380536 1
ion O   0.230885948114304   0.769436500551825   0.222365640595672 1
ion O   0.019330514614744   0.982401488096514   0.284639961264922 1
ion O   0.226761356283873   0.979348945647418   0.764520976318515 1
ion O   0.100240103649157   0.620384696815167   0.991575453840125 1
ion O   0.145843351806539   0.631752746751802   0.493507278237437 1
ion O   0.467875355901383   0.523320303742454   0.691710265723773 1
ion O   0.269668527949302   0.518773872832967   0.231479798668505 1
ion O   0.481708833244276   0.729530858861188   0.263031363908198 1
ion O   0.265393676307950   0.730649408297481   0.775238492357499 1
ion O   0.395966436520696   0.879757762638109   0.004950962459033 1
ion O   0.354541738472819   0.866832748450237   0.507334143235791 1
ion O   0.521181041098647   0.273204012085313   0.727150478002591 1
ion O   0.731390127750661   0.269714866428850   0.222213882532323 1
ion O   0.520850337215482   0.484571009569483   0.279773260467537 1
ion O   0.731061503786887   0.490427990335460   0.768253034683181 1
ion O   0.602578579590060   0.119558540228521   0.989698614791137 1
ion O   0.647440372796821   0.127942277325340   0.492187152852972 1
ion O   0.976670285581499   0.031993951155007   0.710377419753821 1
ion O   0.770873302596265   0.019224905713609   0.231730798402042 1
ion O   0.982377431957646   0.230634539011468   0.270669657179466 1
ion O   0.768571762642797   0.228518142896422   0.775771943973852 1
ion O   0.896541348772238   0.378592884661391   0.006471675747022 1
ion O   0.848940635703800   0.369707642580608   0.508636619354298 1
ion O   0.526981938628714   0.771620756405759   0.737595822330194 1
ion O   0.731883247237870   0.772280618220373   0.218048509209117 1
ion O   0.519521953651195   0.981338813611615   0.274212587891030 1
ion O   0.724516928464546   0.970964283683557   0.765157636828736 1
ion O   0.609521355697727   0.625260017909352   0.983562969943834 1
ion O   0.655217126528895   0.638153078165338   0.495797886057332 1
ion O   0.979795351097363   0.515336740292710   0.720387723487067 1
ion O   0.770029230309354   0.519948003716157   0.231237477724014 1
ion O   0.979607669818882   0.731255949064366   0.265610680601582 1
ion O   0.897251680844982   0.883173986338859  -0.000193300745878 1
ion O   0.845569695367633   0.863876063629941   0.511199640645668 1

# Forces in Lattice coordinates:
force W   0.002502025568838   0.001756340923446   0.004317989054420 1
force W  -0.000667480948493  -0.001664280686728  -0.006281052331987 1
force W   0.003873615181714   0.000743658570359   0.000265312148233 1
force W  -0.000923553424284  -0.002501765610688  -0.000694937226290 1
force W  -0.001233298800250  -0.000992479595486  -0.002115051266049 1
force W  -0.003771869078101   0.000901580896804  -0.000305452099063 1
force W  -0.000993629980790  -0.001799208804602  -0.002041551743051 1
force W   0.002633161493057  -0.001561998195285   0.000983398685486 1
force W  -0.004784494978562  -0.001045646561643  -0.000942428401744 1
force W  -0.001231959502381   0.003309852623261  -0.000592817280553 1
force W  -0.003475504135731   0.002105182376032   0.003865701956801 1
force W   0.000078986299458  -0.002185271856540  -0.003903341494061 1
force W  -0.001642909302368  -0.001563712666058  -0.001520156992285 1
force W   0.004128084022152   0.000947548396316   0.001604014860586 1
force W   0.001455130612364  -0.003387235524120   0.004850199151384 1
force W   0.000021422666144   0.000330093544645  -0.004996407824598 1
force O   0.005876261206323   0.000468749538932   0.002966605492571 1
force O   0.001947220623975  -0.000912046495791   0.000706574585527 1
force O   0.001218245621444   0.001250644181432  -0.000927403755208 1
force O   0.001168897108097  -0.003960266065319  -0.000671389754830 1
force O   0.001470507195747   0.000195992061150   0.002679728964538 1
force O  -0.000148863623378  -0.000911115903767  -0.003037603592961 1
force O   0.002447044735709  -0.004103400025805  -0.000049037142567 1
force O  -0.003122797742234  -0.006162699798414  -0.000451871916584 1
force O  -0.000107014026721  -0.000662042602116  -0.000618242349476 1
force O   0.002081520811807  -0.000120409608575   0.001106870917304 1
force O  -0.002491180043330   0.002646179382728  -0.000433241195327 1
force O   0.001456108323495   0.000905885373934   0.000906135378970 1
force O  -0.005926843681243   0.001586701298776  -0.001735896021836 1
force O  -0.002900233266596   0.000383576987195   0.000396874725971 1
force O   0.000582284171007  -0.000527952205175  -0.000818891354520 1
force O   0.002204021903189   0.000638459522145   0.001854812090828 1
force O  -0.003306109607171  -0.003276584799009  -0.006008933970914 1
force O  -0.002101335479387   0.001726631855263   0.005057201923456 1
force O  -0.003228943365048   0.000213652321902  -0.001567214822068 1
force O  -0.002515509551098   0.000884049372442  -0.000419592687548 1
force O   0.003296226008102   0.003746861130752   0.001639996386883 1
force O   0.002890719088495   0.003628971584675  -0.001065987983445 1
force O  -0.001463831521149  -0.003774980213458  -0.000542328721663 1
force O   0.001959375934586   0.003199665094819   0.001251452772678 1
force O  -0.003844168382622  -0.000317665854254  -0.000227797157000 1
force O   0.000473120025230  -0.003590900097684   0.001840189366717 1
force O   0.000805267816816   0.000584386736304  -0.002654418277238 1
force O  -0.003273328076822   0.003787787979375  -0.000500299820066 1
force O  -0.001176975320203   0.003422598769600   0.002058517409641 1
force O   0.002479633829612   0.000304819257204  -0.002401770539226 1
force O   0.000143906253493   0.003659867129466   0.001192848466764 1
force O  -0.000045765575982  -0.000063275953179   0.003283041028690 1
force O   0.000929007698760   0.000091010468269  -0.001939993402141 1
force O  -0.003031299874886   0.000647755251249   0.000075160454129 1
force O   0.000741021288721   0.005046032640747   0.002239694497029 1
force O  -0.000821743918953   0.000128342279696  -0.002866333102737 1
force O  -0.003318423897962  -0.000239475661730   0.002095353001954 1
force O   0.000732480595573   0.003126453114029   0.001203231323563 1
force O  -0.001426976957458  -0.000028317936049   0.003128076478584 1
force O  -0.001131902791677   0.003446672958005  -0.004434675549807 1
force O   0.002839859576978   0.000838548263642   0.000694300236595 1
force O   0.002363553203717  -0.004440897680419  -0.001628253876809 1
force O   0.000591611572209  -0.002146050844313   0.002402239865443 1
force O  -0.001234249466916  -0.001578391009343   0.000990140845408 1
force O   0.002808930185279   0.000090213226098   0.001311483229689 1
force O   0.001271285543589   0.000962392953247   0.005032112666946 1
force O   0.000803154244469   0.002424775458740  -0.003231627502219 1

# Energy components:
   Eewald =    -1176.5912647120546808
       EH =      558.1237887700325473
     Eloc =    -1506.6417214573132242
      Enl =     -127.8967213660250763
      Exc =     -495.7973525888089625
 Exc_core =      174.4961225777395271
       KE =      717.6463065510517936
-------------------------------------
     Etot =    -1856.6608422253782464
       TS =        0.0522677581381734
-------------------------------------
        F =    -1856.7131099835164605

IonicMinimize: Iter:  23  F: -1856.713109983516460  |grad|_K:  1.392e-04  alpha:  1.000e+00  linmin: -3.503e-02  t[s]:  30674.46

#--- Lowdin population analysis ---
# oxidation-state W +0.984 +0.977 +0.983 +0.977 +0.988 +0.980 +0.989 +0.984 +0.988 +0.984 +0.988 +0.981 +0.988 +1.001 +0.988 +1.001
# oxidation-state O -0.309 -0.316 -0.321 -0.309 -0.299 -0.273 -0.313 -0.317 -0.318 -0.272 -0.279 -0.294 -0.338 -0.320 -0.319 -0.318 -0.292 -0.282 -0.241 -0.318 -0.320 -0.323 -0.280 -0.291 -0.316 -0.321 -0.324 -0.337 -0.291 -0.282 -0.239 -0.317 -0.319 -0.324 -0.281 -0.290 -0.336 -0.310 -0.319 -0.335 -0.316 -0.298 -0.310 -0.315 -0.317 -0.298 -0.313


-------- Electronic minimization -----------
Will mix electronic density at each iteration.
	FillingsUpdate:  mu: +0.288602755  nElectrons: 506.000000
	FillingsUpdate:  mu: +0.288603374  nElectrons: 506.000000
SCF: Cycle:  0   F: -1856.713104492655475   dF: -2.017e-05   |Residual|: 2.465e-03   |deigs|: 2.931e-07  t[s]:  30864.21
	FillingsUpdate:  mu: +0.288603002  nElectrons: 506.000000
SCF: Cycle:  1   F: -1856.713113601634177   dF: -9.109e-06   |Residual|: 1.693e-03   |deigs|: 1.609e-05  t[s]:  30976.30
	FillingsUpdate:  mu: +0.288602893  nElectrons: 506.000000
SCF: Cycle:  2   F: -1856.713117195758969   dF: -3.594e-06   |Residual|: 4.571e-04   |deigs|: 1.005e-05  t[s]:  31090.05
	FillingsUpdate:  mu: +0.288602459  nElectrons: 506.000000
SCF: Cycle:  3   F: -1856.713117536755135   dF: -3.410e-07   |Residual|: 1.396e-04   |deigs|: 1.909e-06  t[s]:  31203.34
	FillingsUpdate:  mu: +0.288602585  nElectrons: 506.000000
SCF: Cycle:  4   F: -1856.713117561503395   dF: -2.475e-08   |Residual|: 7.844e-05   |deigs|: 1.222e-06  t[s]:  31318.42
	FillingsUpdate:  mu: +0.288602523  nElectrons: 506.000000
SCF: Cycle:  5   F: -1856.713117571808425   dF: -1.031e-08   |Residual|: 2.501e-05   |deigs|: 4.723e-07  t[s]:  31426.29
	FillingsUpdate:  mu: +0.288602534  nElectrons: 506.000000
SCF: Cycle:  6   F: -1856.713117574255648   dF: -2.447e-09   |Residual|: 1.386e-05   |deigs|: 1.504e-07  t[s]:  31538.87
	FillingsUpdate:  mu: +0.288602500  nElectrons: 506.000000
SCF: Cycle:  7   F: -1856.713117575304523   dF: -1.049e-09   |Residual|: 7.697e-06   |deigs|: 1.485e-07  t[s]:  31652.09
SCF: Converged (|Delta E|<1.000000e-08 for 2 iters).

Setting wave functions to eigenvectors of Hamiltonian

# Ionic positions in lattice coordinates:
ion W   0.128188305463910   0.129007426124813   0.220652475590873 1
ion W   0.135409770185501   0.131166134916175   0.725202095593799 1
ion W   0.378744995272615   0.376819700328471   0.276150707380826 1
ion W   0.372493794119087   0.371898378563601   0.775332486953425 1
ion W   0.125418650934348   0.625472547285704   0.222339162208221 1
ion W   0.120587517050442   0.622739891327121   0.723745210288629 1
ion W   0.375913969235376   0.874075738705523   0.275492157227944 1
ion W   0.373592550179059   0.872008631396641   0.774830857896082 1
ion W   0.626152754021430   0.125267335884573   0.220796900467712 1
ion W   0.620350014968769   0.124390666622784   0.721878991444947 1
ion W   0.875483129790219   0.374160253513313   0.278138581287824 1
ion W   0.875181115731514   0.370463220576144   0.776332143973608 1
ion W   0.629491392470337   0.629533201454546   0.219157595155568 1
ion W   0.608081283896403   0.613980522979619   0.717874150463472 1
ion W   0.878208524526340   0.876467776221181   0.278510166204086 1
ion W   0.885779148637363   0.896675431636423   0.767094688965425 1
ion O   0.023176472243697   0.271739070365399   0.734765641448664 1
ion O   0.233677282493140   0.270491207797215   0.210417267384377 1
ion O   0.019073001475356   0.481563890191339   0.277912924524850 1
ion O   0.229069610925019   0.479030594904335   0.766215430262248 1
ion O   0.098143098918751   0.116593567608713   0.991432381626475 1
ion O   0.155475557044838   0.137266681447271   0.494590339695128 1
ion O   0.475993474697990   0.020589713196153   0.722085458762440 1
ion O   0.269043771333812   0.018600467065542   0.233323110502079 1
ion O   0.481661814822596   0.231685782996462   0.263645176043153 1
ion O   0.276613157938268   0.225408559046606   0.793285056670144 1
ion O   0.405475216848183   0.387835341779652   0.001207003112088 1
ion O   0.346885949226081   0.363082391511592   0.505195442162457 1
ion O   0.002459835541694   0.764492546048438   0.732631592787308 1
ion O   0.230850150473975   0.769385386673398   0.222445296098206 1
ion O   0.019378712936447   0.982411978383639   0.284681835806370 1
ion O   0.226739525700885   0.979340628364359   0.764458894521375 1
ion O   0.100267044405125   0.620270393655707   0.991496786857892 1
ion O   0.145723314906130   0.631784651723681   0.493580512861328 1
ion O   0.467843454720585   0.523393936867131   0.691671871388850 1
ion O   0.269674051518560   0.518803484715115   0.231568990943230 1
ion O   0.481695739786934   0.729495032439570   0.262960418624824 1
ion O   0.265354298054872   0.730648709899976   0.775198094186617 1
ion O   0.395888298483863   0.879734910514743   0.004931541002437 1
ion O   0.354598274194556   0.866799394782013   0.507331025979472 1
ion O   0.521225416664777   0.273244829907224   0.727253968942567 1
ion O   0.731371553300267   0.269705306150015   0.222316714049665 1
ion O   0.520912339232333   0.484584157954021   0.279694642129459 1
ion O   0.730938147577543   0.490311308784188   0.768062635586304 1
ion O   0.602636885223528   0.119514091915942   0.989699812043890 1
ion O   0.647356809904354   0.127936203588056   0.492163717913006 1
ion O   0.976651914473533   0.032060806805178   0.710402209615582 1
ion O   0.770934888582249   0.019300698519547   0.231875527276307 1
ion O   0.982355184866315   0.230628228625973   0.270546850479858 1
ion O   0.768605992031941   0.228419380320709   0.775758349760724 1
ion O   0.896463261710025   0.378652708041965   0.006480782438363 1
ion O   0.848991827689140   0.369588223419619   0.508620783967062 1
ion O   0.526918414522527   0.771591349637168   0.737712991450488 1
ion O   0.731884386941299   0.772367939101873   0.218074979684153 1
ion O   0.519518664096685   0.981290572136039   0.274163015444870 1
ion O   0.724470268316774   0.970922647388016   0.765042047809654 1
ion O   0.609686066990164   0.625261154031712   0.983542142866332 1
ion O   0.655222393555586   0.638225824751345   0.495779444069844 1
ion O   0.979705898802003   0.515324220196737   0.720448413918513 1
ion O   0.770076911530211   0.520002186711894   0.231433557651506 1
ion O   0.979591714386639   0.731249236637841   0.265478300034140 1
ion O   0.897280559926066   0.883312370795543  -0.000136927319945 1
ion O   0.845672474501971   0.863881375064710   0.511195575833205 1

# Forces in Lattice coordinates:
force W   0.001169410393062   0.000960363175715   0.002225194002297 1
force W   0.001645449468999  -0.002338900480155  -0.003319109164064 1
force W   0.000763456854692  -0.000821832001692   0.001198299473041 1
force W  -0.001015591613590  -0.000770246362381  -0.001615940233854 1
force W  -0.001516240368752  -0.000797252562676  -0.000497941793378 1
force W  -0.001705412573808   0.000998314732614  -0.000758793704732 1
force W  -0.000941255239628   0.000221178014359   0.000001955256579 1
force W   0.002950489995617  -0.000692235024649   0.000714560765464 1
force W  -0.003804426839670  -0.003372827210214   0.000095499350919 1
force W  -0.002024060674776   0.000528370507989  -0.000818190595836 1
force W  -0.001060374515659  -0.000536427704224  -0.001058493862877 1
force W   0.000726708451282  -0.000897111754351   0.001069990405049 1
force W  -0.000027846530542   0.001324674505908  -0.001919688496119 1
force W   0.001191378212900   0.000649753819446   0.001963941086358 1
force W   0.001279539267243  -0.000679284468238   0.002882209892807 1
force W  -0.000908804868226   0.000798121123364  -0.001862315060323 1
force O   0.002611860277817   0.001595491789008   0.001772952312717 1
force O   0.002332051666355   0.000122025158250   0.000552786292341 1
force O  -0.000116435708176  -0.000768157180829  -0.000424749672859 1
force O  -0.000625662437925  -0.001665292953763  -0.000980326209659 1
force O   0.002202075235499   0.000019966814994  -0.000242809023648 1
force O   0.000226198353993  -0.000602035741480  -0.000349366832892 1
force O   0.002562788892745  -0.002607471104615  -0.000533646477610 1
force O  -0.003807764223443  -0.005599511804262  -0.000524937213077 1
force O  -0.000784858086701   0.000685103094465  -0.000233493677703 1
force O   0.001691741512095  -0.000854072276176   0.000623311757223 1
force O  -0.002012845969652   0.002422420306909   0.000606581990131 1
force O   0.002266456567857   0.001122462776574   0.000095334427383 1
force O  -0.004589410485482  -0.000279846231470  -0.002310369907828 1
force O  -0.002556096026015   0.001522793876777  -0.000295537502480 1
force O   0.001484409301299  -0.000672499737348  -0.000353586843686 1
force O   0.001402496932126   0.001215996050743   0.001037158048838 1
force O  -0.003106024830196  -0.002112745091629  -0.002591955881145 1
force O  -0.002299423431451   0.001565407639459   0.001737252716178 1
force O  -0.003397480742307  -0.001038476961268  -0.001169053700935 1
force O  -0.000659417401939  -0.000680759517878  -0.000367261744848 1
force O   0.004147089490993   0.002912142469340   0.001271006325708 1
force O   0.000853157945641   0.001530663780848  -0.000970782215804 1
force O  -0.001615007372072  -0.003648600055233   0.001020972063825 1
force O   0.001835071044892   0.002958666728343  -0.000023336747497 1
force O  -0.003614639603598  -0.000669256009231  -0.000910769482193 1
force O  -0.000214138623957  -0.002327669165091   0.001160251942672 1
force O   0.001784811060681   0.000698305003562  -0.002175804272301 1
force O   0.000649855497549   0.000554713641778   0.000081704217765 1
force O  -0.001160836723213   0.003235492789372   0.001007523268286 1
force O   0.001690211254670   0.001059067963377  -0.000945875503916 1
force O   0.000280957711777   0.004104038685816   0.000580754477493 1
force O  -0.000392933544912  -0.001812674991843   0.002844426161568 1
force O   0.001495226928675   0.001549782135686  -0.001400098711861 1
force O  -0.002049075023963   0.001752581503292  -0.000143826119947 1
force O  -0.001121814904481   0.004321187532657  -0.001423509191925 1
force O  -0.000837503301714   0.000878024414389   0.002023600186095 1
force O  -0.001174088620667  -0.000571309797512   0.001190701396180 1
force O  -0.000160415783757   0.001903548686453   0.000802315389642 1
force O  -0.000419146028651   0.000349506786843   0.002639811766317 1
force O  -0.000142049807943   0.002645191527275  -0.003967548369786 1
force O   0.003012880262750   0.001208426792964   0.000701356575784 1
force O   0.002021831175138  -0.003368488471430  -0.001435543628033 1
force O   0.000223191967939  -0.001832895457904   0.001265189786721 1
force O  -0.002249841404407  -0.000976372874635   0.000526538426812 1
force O   0.003202616874839  -0.000618216656662   0.001349790540898 1
force O  -0.000236051935805   0.000953697070201   0.002458353503611 1
force O   0.000216990346948   0.001878321277998  -0.001427493913584 1

# Energy components:
   Eewald =    -1176.5696440408687522
       EH =      558.1455554687142921
     Eloc =    -1506.6862926610529030
      Enl =     -127.8966601540270176
      Exc =     -495.7980213538708085
 Exc_core =      174.4961231562207615
       KE =      717.6480973033143300
-------------------------------------
     Etot =    -1856.6608422815702397
       TS =        0.0522752937343929
-------------------------------------
        F =    -1856.7131175753045227

IonicMinimize: Iter:  24  F: -1856.713117575304523  |grad|_K:  9.777e-05  alpha:  1.000e+00  linmin: -2.499e-01  t[s]:  31685.81
IonicMinimize: Converged (|grad|_K<1.000000e-04).

#--- Lowdin population analysis ---
# oxidation-state W +0.984 +0.977 +0.983 +0.977 +0.988 +0.980 +0.989 +0.984 +0.988 +0.984 +0.988 +0.981 +0.988 +1.001 +0.988 +1.001
# oxidation-state O -0.309 -0.315 -0.321 -0.309 -0.299 -0.273 -0.313 -0.317 -0.318 -0.272 -0.279 -0.294 -0.338 -0.320 -0.319 -0.318 -0.292 -0.281 -0.241 -0.317 -0.320 -0.322 -0.280 -0.291 -0.316 -0.321 -0.324 -0.337 -0.291 -0.282 -0.239 -0.317 -0.319 -0.324 -0.281 -0.290 -0.336 -0.310 -0.319 -0.335 -0.316 -0.298 -0.309 -0.315 -0.317 -0.298 -0.313


Dumping '/data/rc652/WO3/vac/WO3_vac.Ecomponents' ... done
End date and time: Wed Jul  3 23:45:46 2024  (Duration: 0-8:48:26.96)
Done!
