--------------------------------------------------------------------------
[[37819,1],2]: A high-performance Open MPI point-to-point messaging module
was unable to find any relevant network interfaces:

Module: OpenFabrics (openib)
  Host: node3211

Another transport will be used instead, although this may result in
lower performance.
--------------------------------------------------------------------------

*************** JDFTx 1.7.0  ***************

Start date and time: Sun Jan 28 11:26:17 2024
Executable jdftx with command-line: -i /home/cam559/Valla_project/Al/Al32.in
Running on hosts (process indices):  node3211.physics.cornell.edu (0-9)
Divided in process groups (process indices):  0 (0)  1 (1)  2 (2)  3 (3)  4 (4)  5 (5)  6 (6)  7 (7)  8 (8)  9 (9)
Resource initialization completed at t[s]:      0.00
Run totals: 10 processes, 40 threads, 0 GPUs


Input parsed successfully to the following command list (including defaults):

basis kpoint-dependent
coords-type Cartesian
core-overlap-check vector
coulomb-interaction Periodic
davidson-band-ratio 1.1
dump End Ecomponents
dump-name Al32.$VAR
elec-cutoff 20 100
elec-eigen-algo Davidson
elec-ex-corr gga-PBE
elec-smearing Fermi 0.004
electronic-minimize  \
	dirUpdateScheme      FletcherReeves \
	linminMethod         DirUpdateRecommended \
	nIterations          100 \
	history              15 \
	knormThreshold       0 \
	energyDiffThreshold  1e-08 \
	nEnergyDiff          2 \
	alphaTstart          1 \
	alphaTmin            1e-10 \
	updateTestStepSize   yes \
	alphaTreduceFactor   0.1 \
	alphaTincreaseFactor 3 \
	nAlphaAdjustMax      3 \
	wolfeEnergy          0.0001 \
	wolfeGradient        0.9 \
	fdTest               no
exchange-regularization WignerSeitzTruncated
fluid None
fluid-ex-corr lda-TF lda-PZ
fluid-gummel-loop 10 1.000000e-05
fluid-minimize  \
	dirUpdateScheme      PolakRibiere \
	linminMethod         DirUpdateRecommended \
	nIterations          100 \
	history              15 \
	knormThreshold       0 \
	energyDiffThreshold  0 \
	nEnergyDiff          2 \
	alphaTstart          1 \
	alphaTmin            1e-10 \
	updateTestStepSize   yes \
	alphaTreduceFactor   0.1 \
	alphaTincreaseFactor 3 \
	nAlphaAdjustMax      3 \
	wolfeEnergy          0.0001 \
	wolfeGradient        0.9 \
	fdTest               no
fluid-solvent H2O 55.338 ScalarEOS \
	epsBulk 78.4 \
	pMol 0.92466 \
	epsInf 1.77 \
	Pvap 1.06736e-10 \
	sigmaBulk 4.62e-05 \
	Rvdw 2.61727 \
	Res 1.42 \
	tauNuc 343133 \
	poleEl 15 7 1
forces-output-coords Positions
initial-state Al32.$VAR
ion Al   0.001000000000000   0.000000000000000   0.000000000000000 1
ion Al   0.000000000000000   3.836695000000000   3.826695000000000 1
ion Al   3.826695000000000   0.000000000000000   3.836695000000000 1
ion Al   3.826695000000000   3.826695000000000   0.000000000000000 1
ion Al   0.000000000000000   0.000000000000000   7.653391000000000 1
ion Al   0.000000000000000   3.826695000000000  11.480086000000000 1
ion Al   3.826695000000000   0.000000000000000  11.480086000000000 1
ion Al   3.826695000000000   3.826695000000000   7.653391000000000 1
ion Al   0.000000000000000   7.653391000000000   0.000000000000000 1
ion Al   0.000000000000000  11.480086000000000   3.826695000000000 1
ion Al   3.826695000000000   7.653391000000000   3.826695000000000 1
ion Al   3.826695000000000  11.480086000000000   0.000000000000000 1
ion Al   0.000000000000000   7.653391000000000   7.653391000000000 1
ion Al   0.000000000000000  11.480086000000000  11.480086000000000 1
ion Al   3.926695000000000   7.653391000000000  11.480086000000000 1
ion Al   3.826695000000000  11.480086000000000   7.653391000000000 1
ion Al   7.653391000000000   0.010000000000000   0.000000000000000 1
ion Al   7.653391000000000   3.826695000000000   3.826695000000000 1
ion Al  11.480086000000000   0.000000000000000   3.836695000000000 1
ion Al  11.480086000000000   3.826695000000000   0.000000000000000 1
ion Al   7.653391000000000   0.000000000000000   7.653391000000000 1
ion Al   7.653391000000000   3.826695000000000  11.480086000000000 1
ion Al  11.480086000000000   0.000000000000000  11.480086000000000 1
ion Al  11.480086000000000   3.826695000000000   7.653391000000000 1
ion Al   7.653391000000000   7.653391000000000   0.000000000000000 1
ion Al   7.653391000000000  11.480086000000000   3.816695000000000 1
ion Al  11.480086000000000   7.653391000000000   3.826695000000000 1
ion Al  11.480086000000000  11.480086000000000   0.000000000000000 1
ion Al   7.653391000000000   7.653391000000000   7.653391000000000 1
ion Al   7.643391000000000  11.480086000000000  11.480086000000000 1
ion Al  11.480086000000000   7.653391000000000  11.480086000000000 1
ion Al  11.480086000000000  11.480086000000000   7.653391000000000 1
ion-species GBRV/$ID_pbe.uspp
ion-width 0
ionic-minimize  \
	dirUpdateScheme      L-BFGS \
	linminMethod         DirUpdateRecommended \
	nIterations          30 \
	history              15 \
	knormThreshold       0.0001 \
	energyDiffThreshold  1e-05 \
	nEnergyDiff          2 \
	alphaTstart          1 \
	alphaTmin            1e-10 \
	updateTestStepSize   yes \
	alphaTreduceFactor   0.1 \
	alphaTincreaseFactor 3 \
	nAlphaAdjustMax      3 \
	wolfeEnergy          0.0001 \
	wolfeGradient        0.9 \
	fdTest               no
kpoint   0.000000000000   0.000000000000   0.000000000000  1.00000000000000
kpoint-folding 4 4 4 
latt-move-scale 1 1 1
latt-scale 1 1 1 
lattice  \
	  15.306782000000000    0.000000000000000    0.000000000000000  \
	   0.000000000000000   15.306782000000000    0.000000000000000  \
	   0.000000000000000    0.000000000000000   15.306782000000000 
lattice-minimize  \
	dirUpdateScheme      L-BFGS \
	linminMethod         DirUpdateRecommended \
	nIterations          0 \
	history              15 \
	knormThreshold       0 \
	energyDiffThreshold  1e-06 \
	nEnergyDiff          2 \
	alphaTstart          1 \
	alphaTmin            1e-10 \
	updateTestStepSize   yes \
	alphaTreduceFactor   0.1 \
	alphaTincreaseFactor 3 \
	nAlphaAdjustMax      3 \
	wolfeEnergy          0.0001 \
	wolfeGradient        0.9 \
	fdTest               no
lcao-params -1 1e-06 0.004
pcm-variant GLSSA13
spintype no-spin
subspace-rotation-factor 1 yes
symmetries automatic
symmetry-threshold 0.0001



---------- Setting up symmetries ----------

Found 48 point-group symmetries of the bravais lattice
Found 1 space-group symmetries with basis
Applied RMS atom displacement 0 bohrs to make symmetries exact.

---------- Initializing the Grid ----------
R = 
[      15.3068            0            0  ]
[            0      15.3068            0  ]
[            0            0      15.3068  ]
unit cell volume = 3586.34
G =
[   0.410484          0          0  ]
[          0   0.410484          0  ]
[          0          0   0.410484  ]
Minimum fftbox size, Smin = [  72  72  72  ]
Chosen fftbox size, S = [  72  72  72  ]

---------- Initializing tighter grid for wavefunction operations ----------
R = 
[      15.3068            0            0  ]
[            0      15.3068            0  ]
[            0            0      15.3068  ]
unit cell volume = 3586.34
G =
[   0.410484          0          0  ]
[          0   0.410484          0  ]
[          0          0   0.410484  ]
Minimum fftbox size, Smin = [  64  64  64  ]
Chosen fftbox size, S = [  64  64  64  ]

---------- Exchange Correlation functional ----------
Initalized PBE GGA exchange.
Initalized PBE GGA correlation.

---------- Setting up pseudopotentials ----------
Width of ionic core gaussian charges (only for fluid interactions / plotting) set to 0

Reading pseudopotential file '/home/cam559/JDFTx/build/pseudopotentials/GBRV/al_pbe.uspp':
  Title: Al.  Created by USPP 7.3.6 on 14-9-2013
  Reference state energy: -3.216414.  3 valence electrons in orbitals:
    |300>  occupation: 2  eigenvalue: -0.284914
    |310>  occupation: 1  eigenvalue: -0.099667
  lMax: 2  lLocal: 3  QijEcut: 5
  3 projectors sampled on a log grid with 623 points:
    l: 0  eig: -0.284914  rCut: 1.7
    l: 1  eig: -0.099668  rCut: 1.7
    l: 2  eig: 0.500000  rCut: 1.9
  Partial core density with radius 1.45
  Transforming core density to a uniform radial grid of dG=0.02 with 1285 points.
  Transforming local potential to a uniform radial grid of dG=0.02 with 1285 points.
  Transforming nonlocal projectors to a uniform radial grid of dG=0.02 with 432 points.
  Transforming density augmentations to a uniform radial grid of dG=0.02 with 1285 points.
  Transforming atomic orbitals to a uniform radial grid of dG=0.02 with 432 points.
  Core radius for overlap checks: 1.90 bohrs.

Initialized 1 species with 32 total atoms.

Folded 1 k-points by 4x4x4 to 64 k-points.

---------- Setting up k-points, bands, fillings ----------
Adding inversion symmetry to k-mesh for non-inversion-symmetric unit cell.
Reduced to 36 k-points under symmetry. 
Computing the number of bands and number of electrons
Calculating initial fillings.
nElectrons:  96.000000   nBands: 128   nStates: 36

----- Setting up reduced wavefunction bases (one per k-point) -----
average nbasis = 15325.672 , ideal nbasis = 15321.126

---------- Setting up ewald sum ----------
Optimum gaussian width for ewald sums = 3.427170 bohr.
Real space sum over 729 unit cells with max indices [  4  4  4  ]
Reciprocal space sum over 4913 terms with max indices [  8  8  8  ]

---------- Allocating electronic variables ----------
Initializing wave functions:  linear combination of atomic orbitals
Al pseudo-atom occupations:   s ( 2 )  p ( 1 )
	FillingsUpdate:  mu: +0.323478912  nElectrons: 96.000000
LCAOMinimize: Iter:   0  F: -66.1470304203256347  |grad|_K:  1.400e-05  alpha:  1.000e+00
	FillingsUpdate:  mu: +0.323480775  nElectrons: 96.000000
LCAOMinimize: Iter:   1  F: -66.1470446975477842  |grad|_K:  4.995e-06  alpha:  2.432e-01  linmin: -3.424e-04  cgtest:  6.781e-04  t[s]:    210.32
	FillingsUpdate:  mu: +0.323480890  nElectrons: 96.000000
LCAOMinimize: Iter:   2  F: -66.1470471672505198  |grad|_K:  2.562e-06  alpha:  3.304e-01  linmin:  7.820e-05  cgtest: -8.817e-04  t[s]:    274.88
	FillingsUpdate:  mu: +0.323481761  nElectrons: 96.000000
LCAOMinimize: Iter:   3  F: -66.1470483202086257  |grad|_K:  5.318e-07  alpha:  5.866e-01  linmin:  4.667e-04  cgtest:  1.585e-03  t[s]:    340.04
	FillingsUpdate:  mu: +0.323481857  nElectrons: 96.000000
LCAOMinimize: Iter:   4  F: -66.1470483692850024  |grad|_K:  9.951e-08  alpha:  5.796e-01  linmin: -4.787e-05  cgtest:  1.667e-03  t[s]:    403.61
	FillingsUpdate:  mu: +0.323481861  nElectrons: 96.000000
LCAOMinimize: Iter:   5  F: -66.1470483705513033  |grad|_K:  6.780e-08  alpha:  4.191e-01  linmin:  3.086e-03  cgtest: -7.012e-03  t[s]:    467.98
LCAOMinimize: Converged (|Delta F|<1.000000e-06 for 2 iters).


---- Citations for features of the code used in this run ----

   Software package:
      R. Sundararaman, K. Letchworth-Weaver, K.A. Schwarz, D. Gunceler, Y. Ozhabes and T.A. Arias, 'JDFTx: software for joint density-functional theory', SoftwareX 6, 278 (2017)

   gga-PBE exchange-correlation functional:
      J.P. Perdew, K. Burke and M. Ernzerhof, Phys. Rev. Lett. 77, 3865 (1996)

   Pseudopotentials:
      KF Garrity, JW Bennett, KM Rabe and D Vanderbilt, Comput. Mater. Sci. 81, 446 (2014)

   Total energy minimization with Auxiliary Hamiltonian:
      C. Freysoldt, S. Boeck, and J. Neugebauer, Phys. Rev. B 79, 241103(R) (2009)

This list may not be complete. Please suggest additional citations or
report any other bugs at https://github.com/shankar1729/jdftx/issues

Initialization completed successfully at t[s]:    512.53


-------- Electronic minimization -----------
	FillingsUpdate:  mu: +0.323481861  nElectrons: 96.000000
ElecMinimize: Iter:   0  F: -66.147048370551332  |grad|_K:  8.450e-05  alpha:  1.000e+00
	FillingsUpdate:  mu: +0.299587677  nElectrons: 96.000000
	SubspaceRotationAdjust: set factor to 1
ElecMinimize: Iter:   1  F: -66.990874201684377  |grad|_K:  4.332e-05  alpha:  1.661e+00  linmin:  7.131e-03  t[s]:    881.62
	FillingsUpdate:  mu: +0.292497027  nElectrons: 96.000000
	SubspaceRotationAdjust: set factor to 0.517
ElecMinimize: Iter:   2  F: -67.222173121348789  |grad|_K:  2.182e-05  alpha:  1.784e+00  linmin:  2.123e-03  t[s]:   1139.29
	FillingsUpdate:  mu: +0.291604097  nElectrons: 96.000000
	SubspaceRotationAdjust: set factor to 0.547
ElecMinimize: Iter:   3  F: -67.253438408866373  |grad|_K:  1.019e-05  alpha:  1.159e+00  linmin: -1.139e-04  t[s]:   1394.71
	FillingsUpdate:  mu: +0.291451415  nElectrons: 96.000000
	SubspaceRotationAdjust: set factor to 0.356
ElecMinimize: Iter:   4  F: -67.257806770245409  |grad|_K:  8.816e-06  alpha:  6.028e-01  linmin:  1.378e-04  t[s]:   1652.01
	FillingsUpdate:  mu: +0.291311351  nElectrons: 96.000000
	SubspaceRotationAdjust: set factor to 0.206
ElecMinimize: Iter:   5  F: -67.261992619428710  |grad|_K:  3.359e-06  alpha:  7.646e-01  linmin: -2.942e-04  t[s]:   1910.34
	FillingsUpdate:  mu: +0.291278001  nElectrons: 96.000000
	SubspaceRotationAdjust: set factor to 0.126
	SubspaceRotationAdjust: resetting CG because factor has changed by 0.125825
ElecMinimize: 	State modified externally: resetting search direction.
ElecMinimize: Iter:   6  F: -67.262887268663619  |grad|_K:  1.508e-06  alpha:  1.109e+00
	FillingsUpdate:  mu: +0.291276162  nElectrons: 96.000000
	SubspaceRotationAdjust: set factor to 0.214
ElecMinimize: Iter:   7  F: -67.263204558745642  |grad|_K:  7.786e-07  alpha:  1.971e+00  linmin:  8.419e-05  t[s]:   2530.70
	FillingsUpdate:  mu: +0.291262951  nElectrons: 96.000000
	SubspaceRotationAdjust: set factor to 0.175
ElecMinimize: Iter:   8  F: -67.263305922237777  |grad|_K:  4.280e-07  alpha:  2.365e+00  linmin:  3.202e-05  t[s]:   2786.63
	FillingsUpdate:  mu: +0.291263274  nElectrons: 96.000000
	SubspaceRotationAdjust: set factor to 0.139
ElecMinimize: Iter:   9  F: -67.263329243173473  |grad|_K:  2.888e-07  alpha:  1.795e+00  linmin:  6.492e-06  t[s]:   3042.09
	FillingsUpdate:  mu: +0.291263801  nElectrons: 96.000000
	SubspaceRotationAdjust: set factor to 0.113
ElecMinimize: Iter:  10  F: -67.263338787507791  |grad|_K:  1.461e-07  alpha:  1.615e+00  linmin:  7.271e-06  t[s]:   3300.14
	FillingsUpdate:  mu: +0.291262905  nElectrons: 96.000000
	SubspaceRotationAdjust: set factor to 0.105
ElecMinimize: Iter:  11  F: -67.263341603997986  |grad|_K:  5.592e-08  alpha:  1.865e+00  linmin:  4.292e-07  t[s]:   3557.67
	FillingsUpdate:  mu: +0.291262900  nElectrons: 96.000000
	SubspaceRotationAdjust: set factor to 0.106
ElecMinimize: Iter:  12  F: -67.263342011412419  |grad|_K:  2.478e-08  alpha:  1.838e+00  linmin:  1.616e-07  t[s]:   3813.59
	FillingsUpdate:  mu: +0.291262987  nElectrons: 96.000000
	SubspaceRotationAdjust: set factor to 0.114
ElecMinimize: Iter:  13  F: -67.263342097418786  |grad|_K:  1.272e-08  alpha:  1.974e+00  linmin: -1.134e-07  t[s]:   4071.56
	FillingsUpdate:  mu: +0.291262961  nElectrons: 96.000000
	SubspaceRotationAdjust: set factor to 0.163
ElecMinimize: Iter:  14  F: -67.263342126862781  |grad|_K:  8.059e-09  alpha:  2.564e+00  linmin:  1.036e-06  t[s]:   4329.46
	FillingsUpdate:  mu: +0.291263013  nElectrons: 96.000000
	SubspaceRotationAdjust: set factor to 0.188
ElecMinimize: Iter:  15  F: -67.263342137330483  |grad|_K:  5.795e-09  alpha:  2.286e+00  linmin:  4.053e-07  t[s]:   4587.81
	FillingsUpdate:  mu: +0.291263034  nElectrons: 96.000000
	SubspaceRotationAdjust: set factor to 0.174
ElecMinimize: Iter:  16  F: -67.263342142416079  |grad|_K:  3.953e-09  alpha:  2.139e+00  linmin: -5.006e-09  t[s]:   4844.06
	FillingsUpdate:  mu: +0.291263024  nElectrons: 96.000000
	SubspaceRotationAdjust: set factor to 0.128
ElecMinimize: Iter:  17  F: -67.263342144185728  |grad|_K:  2.023e-09  alpha:  1.590e+00  linmin:  2.382e-09  t[s]:   5099.21
ElecMinimize: Converged (|Delta F|<1.000000e-08 for 2 iters).
Setting wave functions to eigenvectors of Hamiltonian

# Ionic positions in cartesian coordinates:
ion Al   0.001000000000000   0.000000000000000   0.000000000000000 1
ion Al   0.000000000000000   3.836695000000000   3.826695000000000 1
ion Al   3.826695000000000   0.000000000000000   3.836695000000000 1
ion Al   3.826695000000000   3.826695000000000   0.000000000000000 1
ion Al   0.000000000000000   0.000000000000000   7.653391000000000 1
ion Al   0.000000000000000   3.826695000000000  11.480086000000000 1
ion Al   3.826695000000000   0.000000000000000  11.480086000000000 1
ion Al   3.826695000000000   3.826695000000000   7.653391000000000 1
ion Al   0.000000000000000   7.653391000000000   0.000000000000000 1
ion Al   0.000000000000000  11.480086000000000   3.826695000000000 1
ion Al   3.826695000000000   7.653391000000000   3.826695000000000 1
ion Al   3.826695000000000  11.480086000000000   0.000000000000000 1
ion Al   0.000000000000000   7.653391000000000   7.653391000000000 1
ion Al   0.000000000000000  11.480086000000000  11.480086000000000 1
ion Al   3.926695000000000   7.653391000000000  11.480086000000000 1
ion Al   3.826695000000000  11.480086000000000   7.653391000000000 1
ion Al   7.653391000000000   0.010000000000000   0.000000000000000 1
ion Al   7.653391000000000   3.826695000000000   3.826695000000000 1
ion Al  11.480086000000000   0.000000000000000   3.836695000000000 1
ion Al  11.480086000000000   3.826695000000000   0.000000000000000 1
ion Al   7.653391000000000   0.000000000000000   7.653391000000000 1
ion Al   7.653391000000000   3.826695000000000  11.480086000000000 1
ion Al  11.480086000000000   0.000000000000000  11.480086000000000 1
ion Al  11.480086000000000   3.826695000000000   7.653391000000000 1
ion Al   7.653391000000000   7.653391000000000   0.000000000000000 1
ion Al   7.653391000000000  11.480086000000000   3.816695000000000 1
ion Al  11.480086000000000   7.653391000000000   3.826695000000000 1
ion Al  11.480086000000000  11.480086000000000   0.000000000000000 1
ion Al   7.653391000000000   7.653391000000000   7.653391000000000 1
ion Al   7.643391000000000  11.480086000000000  11.480086000000000 1
ion Al  11.480086000000000   7.653391000000000  11.480086000000000 1
ion Al  11.480086000000000  11.480086000000000   7.653391000000000 1

# Forces in Cartesian coordinates:
force Al  -0.000040402116995   0.000049972682367   0.000243636796340 1
force Al   0.000000064200364  -0.000518792210346  -0.000035448846606 1
force Al  -0.000158899818836   0.000036875303281  -0.000446511111627 1
force Al  -0.000257275411331   0.000001733105099   0.000046883472355 1
force Al   0.000005779663238   0.000057952347139   0.000011291659283 1
force Al   0.000591086737203   0.000594952596232   0.000001408230386 1
force Al  -0.000127896492481   0.000045429644572   0.000026725581392 1
force Al  -0.000203190977774   0.000050956282507   0.000081105261910 1
force Al   0.000600919141838   0.000079611346692  -0.000668045825182 1
force Al  -0.000004098894970   0.000078709370937  -0.000027929296713 1
force Al  -0.000009958786440   0.000071504446926   0.000002252956846 1
force Al  -0.000261613295862   0.000106592875337   0.000054411204949 1
force Al   0.000600572891041   0.000064798291359   0.000669135502256 1
force Al   0.000575546781938  -0.000591639634972  -0.000013118103185 1
force Al  -0.004705460072586  -0.000076774334217   0.000013136597205 1
force Al  -0.000207253826802  -0.000069105392409  -0.000052713733194 1
force Al   0.000030608359892  -0.000402296919494   0.000007470971234 1
force Al   0.000018077911530   0.000106835861770   0.000033181164543 1
force Al   0.000116870081382   0.000047249107619  -0.000459393828196 1
force Al   0.000071311739609  -0.000021669928759   0.000067412209655 1
force Al   0.000029220899249  -0.000073044364977   0.000121724539312 1
force Al   0.000690239605113  -0.000657048702658  -0.000073937603914 1
force Al   0.000025947457940  -0.000085479225032   0.000039908197037 1
force Al   0.000003768633873   0.000041840390693   0.000060607651962 1
force Al   0.000704214136344  -0.000039202945153   0.000652410987912 1
force Al   0.000015593894903   0.000024163898226   0.000359049724911 1
force Al   0.000021972104348   0.000060993477871   0.000003145556051 1
force Al  -0.000051596285745   0.000129927178217  -0.000066066697073 1
force Al   0.000703771315756   0.000075292962950  -0.000777174436668 1
force Al   0.001157453942909   0.000792689801368   0.000040790365416 1
force Al   0.000185360037606   0.000066843222118   0.000012920671243 1
force Al  -0.000119222209344  -0.000060060859472   0.000067781613987 1

# Energy components:
   Eewald =      -86.2633017842630920
       EH =        0.1338680881655722
     Eloc =        5.1446195142050550
      Enl =       14.6255225193940248
      Exc =      -68.6413375431634876
 Exc_core =       40.0705674542284953
       KE =       27.6834473379979187
-------------------------------------
     Etot =      -67.2466144134355233
       TS =        0.0167277307501990
-------------------------------------
        F =      -67.2633421441857280

IonicMinimize: Iter:   0  F: -67.263342144185728  |grad|_K:  5.736e-04  t[s]:   5138.18

#--- Lowdin population analysis ---
# oxidation-state Al +0.044 +0.044 +0.044 +0.044 +0.044 +0.043 +0.044 +0.044 +0.043 +0.044 +0.044 +0.044 +0.043 +0.043 +0.044 +0.044 +0.043 +0.044 +0.044 +0.044 +0.044 +0.045 +0.044 +0.044 +0.045 +0.043 +0.044 +0.044 +0.044 +0.044 +0.044 +0.044


-------- Electronic minimization -----------
	FillingsUpdate:  mu: +0.291264241  nElectrons: 96.000000
ElecMinimize: Iter:   0  F: -67.263368635481072  |grad|_K:  1.633e-07  alpha:  1.000e+00
	FillingsUpdate:  mu: +0.291263739  nElectrons: 96.000000
	SubspaceRotationAdjust: set factor to 0.126
ElecMinimize: Iter:   1  F: -67.263371937322503  |grad|_K:  5.594e-08  alpha:  1.746e+00  linmin:  8.244e-06  t[s]:   5593.88
	FillingsUpdate:  mu: +0.291263755  nElectrons: 96.000000
	SubspaceRotationAdjust: set factor to 0.105
ElecMinimize: Iter:   2  F: -67.263372369721409  |grad|_K:  2.952e-08  alpha:  1.949e+00  linmin:  1.320e-06  t[s]:   5847.95
	FillingsUpdate:  mu: +0.291263748  nElectrons: 96.000000
	SubspaceRotationAdjust: set factor to 0.106
ElecMinimize: Iter:   3  F: -67.263372529198875  |grad|_K:  1.649e-08  alpha:  2.581e+00  linmin: -5.496e-07  t[s]:   6101.81
	FillingsUpdate:  mu: +0.291263727  nElectrons: 96.000000
	SubspaceRotationAdjust: set factor to 0.146
ElecMinimize: Iter:   4  F: -67.263372573738380  |grad|_K:  7.718e-09  alpha:  2.308e+00  linmin:  9.097e-08  t[s]:   6356.19
	FillingsUpdate:  mu: +0.291263724  nElectrons: 96.000000
	SubspaceRotationAdjust: set factor to 0.136
ElecMinimize: Iter:   5  F: -67.263372583959324  |grad|_K:  4.441e-09  alpha:  2.418e+00  linmin: -1.159e-07  t[s]:   6608.79
	FillingsUpdate:  mu: +0.291263726  nElectrons: 96.000000
	SubspaceRotationAdjust: set factor to 0.119
ElecMinimize: Iter:   6  F: -67.263372587173791  |grad|_K:  2.844e-09  alpha:  2.287e+00  linmin: -3.306e-07  t[s]:   6862.15
	FillingsUpdate:  mu: +0.291263729  nElectrons: 96.000000
	SubspaceRotationAdjust: set factor to 0.102
ElecMinimize: Iter:   7  F: -67.263372588151086  |grad|_K:  1.139e-09  alpha:  1.710e+00  linmin:  2.340e-07  t[s]:   7116.28
ElecMinimize: Converged (|Delta F|<1.000000e-08 for 2 iters).
Setting wave functions to eigenvectors of Hamiltonian
IonicMinimize: 	Wolfe criterion not satisfied: alpha: 1  (E-E0)/|gdotd0|: -0.963879  gdotd/gdotd0: 0.927554 (taking cubic step)

-------- Electronic minimization -----------
	FillingsUpdate:  mu: +0.291266006  nElectrons: 96.000000
ElecMinimize: Iter:   0  F: -67.263410650474043  |grad|_K:  3.150e-07  alpha:  1.000e+00
	FillingsUpdate:  mu: +0.291265112  nElectrons: 96.000000
	SubspaceRotationAdjust: set factor to 0.122
ElecMinimize: Iter:   1  F: -67.263423689750340  |grad|_K:  1.021e-07  alpha:  1.854e+00  linmin:  5.348e-06  t[s]:   7608.99
	FillingsUpdate:  mu: +0.291265073  nElectrons: 96.000000
	SubspaceRotationAdjust: set factor to 0.139
ElecMinimize: Iter:   2  F: -67.263425465470803  |grad|_K:  6.117e-08  alpha:  2.400e+00  linmin:  1.053e-06  t[s]:   7864.90
	FillingsUpdate:  mu: +0.291265023  nElectrons: 96.000000
	SubspaceRotationAdjust: set factor to 0.185
ElecMinimize: Iter:   3  F: -67.263426287632598  |grad|_K:  3.090e-08  alpha:  3.099e+00  linmin: -3.449e-07  t[s]:   8120.60
	FillingsUpdate:  mu: +0.291264997  nElectrons: 96.000000
	SubspaceRotationAdjust: set factor to 0.175
ElecMinimize: Iter:   4  F: -67.263426448195077  |grad|_K:  1.686e-08  alpha:  2.371e+00  linmin: -3.215e-09  t[s]:   8375.95
	FillingsUpdate:  mu: +0.291265001  nElectrons: 96.000000
	SubspaceRotationAdjust: set factor to 0.141
ElecMinimize: Iter:   5  F: -67.263426485346159  |grad|_K:  9.902e-09  alpha:  1.844e+00  linmin: -4.002e-08  t[s]:   8629.90
	FillingsUpdate:  mu: +0.291265010  nElectrons: 96.000000
	SubspaceRotationAdjust: set factor to 0.0919
ElecMinimize: Iter:   6  F: -67.263426495892233  |grad|_K:  4.985e-09  alpha:  1.516e+00  linmin:  1.386e-07  t[s]:   8884.20
	FillingsUpdate:  mu: +0.291265007  nElectrons: 96.000000
	SubspaceRotationAdjust: set factor to 0.149
ElecMinimize: Iter:   7  F: -67.263426499225147  |grad|_K:  1.702e-09  alpha:  1.883e+00  linmin: -1.217e-06  t[s]:   9137.62
	FillingsUpdate:  mu: +0.291265008  nElectrons: 96.000000
	SubspaceRotationAdjust: set factor to 0.159
ElecMinimize: Iter:   8  F: -67.263426499639934  |grad|_K:  9.032e-10  alpha:  1.986e+00  linmin: -7.204e-07  t[s]:   9393.66
ElecMinimize: Converged (|Delta F|<1.000000e-08 for 2 iters).
Setting wave functions to eigenvectors of Hamiltonian

# Ionic positions in cartesian coordinates:
ion Al   0.000878651960242   0.000150873389996   0.000731280567098 1
ion Al   0.000000050912320   3.835139578711858   3.826589023638261 1
ion Al   3.826218158854719   0.000111581252737   3.835355836843199 1
ion Al   3.825923032077233   3.826701154658193   0.000141020595144 1
ion Al   0.000017197300942   0.000174812384311   7.653425245155927 1
ion Al   0.001773118522835   3.828480813131591  11.480090594869239 1
ion Al   3.826311168833783   0.000137244276611  11.480166546922257 1
ion Al   3.826085285377904   3.826848824190416   7.653634685963810 1
ion Al   0.001802615736741   7.653630789382971  -0.002003767297467 1
ion Al  -0.000012438373683  11.480323083455708   3.826611582287940 1
ion Al   3.826664981951907   7.653606468683672   3.826702129048618 1
ion Al   3.825910018423641  11.480406733968904   0.000163603792926 1
ion Al   0.001801576984351   7.653586350216971   7.655398776684847 1
ion Al   0.001726498657042  11.478312036437980  11.480047015868525 1
ion Al   3.912578478093469   7.653161632340244  11.480125779969693 1
ion Al   3.826073096830822  11.479879639165667   7.653233228978496 1
ion Al   7.653482683390902   0.008794064584414   0.000022783091779 1
ion Al   7.653445092045818   3.827016462928205   3.826794913671707 1
ion Al  11.480436468555375   0.000142702665751   3.835317188693492 1
ion Al  11.480299793530055   3.826630945556617   0.000202606807043 1
ion Al   7.653478521008974  -0.000218177752037   7.653756543796014 1
ion Al   7.655461577126564   3.824724809234921  11.479864557366337 1
ion Al  11.480163700685049  -0.000255482332201  11.480206094769189 1
ion Al  11.480097164212847   3.826821476514973   7.653573193133964 1
ion Al   7.655503500720261   7.653274346507437   0.001957603141814 1
ion Al   7.653437639995936  11.480159447037574   3.817772519352812 1
ion Al  11.480151774624272   7.653574935776508   3.826704806846231 1
ion Al  11.479931069453993  11.480476736877545  -0.000197829913140 1
ion Al   7.655502172258496   7.653617834231744   7.651059846868075 1
ion Al   7.646863220139955  11.482465024746999  11.480208741274328 1
ion Al  11.480641938424046   7.653592485009248  11.480125132191807 1
ion Al  11.479728191683197  11.479906772764480   7.653594715020039 1

# Forces in Cartesian coordinates:
force Al  -0.000053969612673   0.000039156864159   0.000145664303749 1
force Al  -0.000013708431245  -0.000391204271418  -0.000014984701000 1
force Al  -0.000086975943407   0.000035370099635  -0.000372802306518 1
force Al  -0.000133077186910   0.000005853377349   0.000037337753770 1
force Al  -0.000016446290397   0.000041489354968   0.000040338254995 1
force Al   0.000420189514292   0.000405180136201   0.000008917219305 1
force Al  -0.000101388946658   0.000033543958742   0.000025653187826 1
force Al  -0.000094857694560   0.000040316120307   0.000054152048114 1
force Al   0.000433671545237   0.000063887818944  -0.000457449173529 1
force Al  -0.000029361957344   0.000025247564668  -0.000012376530624 1
force Al  -0.000015502787829   0.000051754463071  -0.000001531273921 1
force Al  -0.000137536267172   0.000080460377030   0.000033762510827 1
force Al   0.000433277871436   0.000046913807452   0.000454733852357 1
force Al   0.000420846684857  -0.000395579388491  -0.000008233539120 1
force Al  -0.003835096664434  -0.000046729754474   0.000013779568665 1
force Al  -0.000099000356559  -0.000047703211505  -0.000036022454890 1
force Al  -0.000002067118933  -0.000338571877987   0.000041045910920 1
force Al  -0.000007921960778   0.000044013143090   0.000030884600769 1
force Al   0.000069283377637   0.000036823849345  -0.000381415850416 1
force Al   0.000100598552979  -0.000011642871666   0.000047408751059 1
force Al  -0.000002064620252  -0.000050463994750   0.000050861437106 1
force Al   0.000485570866464  -0.000425815640026  -0.000051499543254 1
force Al   0.000135070175859  -0.000054119092171   0.000034442691496 1
force Al   0.000052472730876   0.000031821351472   0.000044080665499 1
force Al   0.000490026868402  -0.000028332102812   0.000418527542898 1
force Al  -0.000006800131187   0.000059853016699   0.000317258523267 1
force Al   0.000133931146152   0.000050317576612  -0.000001390906145 1
force Al   0.000011154945219   0.000098627969141  -0.000044132063995 1
force Al   0.000487813788508   0.000060246609762  -0.000514675933558 1
force Al   0.000863743616110   0.000520842847698   0.000036726684411 1
force Al   0.000125097879734   0.000047157027399   0.000014759637230 1
force Al  -0.000037156091814  -0.000038575543256   0.000041650740618 1

# Energy components:
   Eewald =      -86.2639404738504254
       EH =        0.1334634444414018
     Eloc =        5.1459085854100000
      Enl =       14.6253449280779932
      Exc =      -68.6412339043393303
 Exc_core =       40.0705673435679728
       KE =       27.6831905673979328
-------------------------------------
     Etot =      -67.2466995092944728
       TS =        0.0167269903454643
-------------------------------------
        F =      -67.2634264996399338

IonicMinimize: Iter:   1  F: -67.263426499639934  |grad|_K:  4.500e-04  alpha:  3.000e+00  linmin: -9.956e-01  t[s]:   9432.92

#--- Lowdin population analysis ---
# oxidation-state Al +0.044 +0.044 +0.044 +0.044 +0.044 +0.043 +0.044 +0.044 +0.043 +0.044 +0.044 +0.044 +0.043 +0.043 +0.044 +0.044 +0.044 +0.044 +0.044 +0.044 +0.044 +0.044 +0.044 +0.044 +0.044 +0.044 +0.044 +0.044 +0.044 +0.044 +0.044 +0.044


-------- Electronic minimization -----------
	FillingsUpdate:  mu: +0.291280213  nElectrons: 96.000000
ElecMinimize: Iter:   0  F: -67.261466114565010  |grad|_K:  4.305e-06  alpha:  1.000e+00
	FillingsUpdate:  mu: +0.291270409  nElectrons: 96.000000
	SubspaceRotationAdjust: set factor to 0.0922
ElecMinimize: Iter:   1  F: -67.263303802811791  |grad|_K:  1.576e-06  alpha:  1.398e+00  linmin: -5.288e-05  t[s]:   9867.93
	FillingsUpdate:  mu: +0.291269635  nElectrons: 96.000000
	SubspaceRotationAdjust: set factor to 0.0565
ElecMinimize: Iter:   2  F: -67.263529352784275  |grad|_K:  4.776e-07  alpha:  1.280e+00  linmin:  1.498e-05  t[s]:  10122.02
	FillingsUpdate:  mu: +0.291269368  nElectrons: 96.000000
	SubspaceRotationAdjust: set factor to 0.0819
ElecMinimize: Iter:   3  F: -67.263563428116868  |grad|_K:  2.282e-07  alpha:  2.107e+00  linmin: -7.757e-06  t[s]:  10375.41
	FillingsUpdate:  mu: +0.291269332  nElectrons: 96.000000
	SubspaceRotationAdjust: set factor to 0.0907
ElecMinimize: Iter:   4  F: -67.263574289697786  |grad|_K:  1.639e-07  alpha:  2.940e+00  linmin: -6.493e-06  t[s]:  10630.58
	FillingsUpdate:  mu: +0.291269391  nElectrons: 96.000000
	SubspaceRotationAdjust: set factor to 0.122
ElecMinimize: Iter:   5  F: -67.263580992485686  |grad|_K:  1.015e-07  alpha:  3.518e+00  linmin: -1.931e-06  t[s]:  10885.12
	FillingsUpdate:  mu: +0.291269336  nElectrons: 96.000000
	SubspaceRotationAdjust: set factor to 0.155
ElecMinimize: Iter:   6  F: -67.263582726798660  |grad|_K:  5.306e-08  alpha:  2.371e+00  linmin: -3.366e-07  t[s]:  11138.48
	FillingsUpdate:  mu: +0.291269335  nElectrons: 96.000000
	SubspaceRotationAdjust: set factor to 0.145
ElecMinimize: Iter:   7  F: -67.263583178218454  |grad|_K:  2.979e-08  alpha:  2.261e+00  linmin: -9.869e-08  t[s]:  11392.25
	FillingsUpdate:  mu: +0.291269335  nElectrons: 96.000000
	SubspaceRotationAdjust: set factor to 0.15
ElecMinimize: Iter:   8  F: -67.263583317484191  |grad|_K:  1.759e-08  alpha:  2.214e+00  linmin:  8.083e-09  t[s]:  11646.06
	FillingsUpdate:  mu: +0.291269334  nElectrons: 96.000000
	SubspaceRotationAdjust: set factor to 0.129
ElecMinimize: Iter:   9  F: -67.263583357223823  |grad|_K:  7.331e-09  alpha:  1.811e+00  linmin:  4.577e-08  t[s]:  11901.55
	FillingsUpdate:  mu: +0.291269334  nElectrons: 96.000000
	SubspaceRotationAdjust: set factor to 0.117
ElecMinimize: Iter:  10  F: -67.263583364176441  |grad|_K:  2.921e-09  alpha:  1.819e+00  linmin: -8.984e-08  t[s]:  12154.61
	FillingsUpdate:  mu: +0.291269334  nElectrons: 96.000000
	SubspaceRotationAdjust: set factor to 0.166
ElecMinimize: Iter:  11  F: -67.263583365316578  |grad|_K:  1.238e-09  alpha:  1.925e+00  linmin: -6.152e-07  t[s]:  12408.15
ElecMinimize: Converged (|Delta F|<1.000000e-08 for 2 iters).
Setting wave functions to eigenvectors of Hamiltonian

# Ionic positions in cartesian coordinates:
ion Al  -0.000852007351320   0.000768881890365   0.001166038410175 1
ion Al  -0.000754411901114   3.829667213075086   3.826879991646515 1
ion Al   3.826408571331294   0.000934118039726   3.828611024215147 1
ion Al   3.826655432380049   3.826982637975302   0.000751975326263 1
ion Al  -0.001073710861243   0.000669639637856   7.655340331981785 1
ion Al   0.006598263709131   3.832325341859631  11.480551785675644 1
ion Al   3.824701229974281   0.000584123629873  11.480762546556429 1
ion Al   3.827244580670990   3.827500731597616   7.654100854649100 1
ion Al   0.007073249134036   7.654695928053883  -0.006448729035332 1
ion Al  -0.001515474210395  11.479241394951512   3.826809566126236 1
ion Al   3.826129170682826   7.654247020194615   3.826548087006576 1
ion Al   3.826529711075692  11.481544402284909   0.000333163329842 1
ion Al   0.007061088612633   7.654168245345073   7.659664164583488 1
ion Al   0.007084288207894  11.474916785859113  11.480005866676024 1
ion Al   3.846746668220058   7.652986458196414  11.480486666383804 1
ion Al   3.827128727851687  11.479405056584032   7.652890349626660 1
ion Al   7.652409472797274   0.002569516665060   0.002099573601689 1
ion Al   7.652441886883715   3.826094261286691   3.827479562781233 1
ion Al  11.480629269543751   0.000716221185878   3.828498291431799 1
ion Al  11.483708832094822   3.826673756635626   0.000725838436715 1
ion Al   7.652449703823241  -0.000722570507468   7.652741896323707 1
ion Al   7.660805488017517   3.821713347414510  11.479327188432718 1
ion Al  11.486960507506806  -0.000569064319585  11.480876521042678 1
ion Al  11.482950804284997   3.827285844816101   7.654126070425966 1
ion Al   7.660652587418268   7.652936700778408   0.004717860405995 1
ion Al   7.652576825281448  11.482765893762085   3.824187626620367 1
ion Al  11.487011242620682   7.654469829855957   3.826530198815511 1
ion Al  11.482224209456785  11.481893068797405  -0.000571421999920 1
ion Al   7.660540777671441   7.654615692577846   7.646873428376653 1
ion Al   7.658598028038761  11.486515030147377  11.480979628617908 1
ion Al  11.481792840700464   7.654122851785885  11.480548087155800 1
ion Al  11.481458146333537  11.479657639943225   7.653781966372837 1

# Forces in Cartesian coordinates:
force Al   0.000088541051435  -0.000011134640084   0.000001674252559 1
force Al   0.000095121302336  -0.000071150287645   0.000027928469920 1
force Al  -0.000084503460258  -0.000009733263043  -0.000029607538041 1
force Al   0.000132314481897   0.000014667208887  -0.000014495522058 1
force Al   0.000092340026306  -0.000017191695367  -0.000068017941339 1
force Al  -0.000113924421808  -0.000148693067406   0.000008719843411 1
force Al   0.000113985489972   0.000003321054922  -0.000008282709775 1
force Al   0.000112884548391  -0.000008350982194  -0.000009447625634 1
force Al  -0.000121309921401  -0.000009240091221   0.000190444112530 1
force Al   0.000099682844133   0.000060411446868   0.000020094483988 1
force Al   0.000072812293881  -0.000002711191324  -0.000011858724114 1
force Al   0.000130645125089  -0.000023425976176  -0.000000032138999 1
force Al  -0.000123134455382  -0.000018281336911  -0.000172460745309 1
force Al  -0.000118061858833   0.000171445299328   0.000000759113231 1
force Al  -0.000270219821519   0.000025831333171  -0.000007382927219 1
force Al   0.000111137185446   0.000041666663590   0.000018225889552 1
force Al   0.000083495775636  -0.000036335676698  -0.000085582045312 1
force Al   0.000105152416936   0.000063951431979  -0.000000770233859 1
force Al  -0.000054318779871   0.000003318249818  -0.000026469536919 1
force Al  -0.000031875425827   0.000026464729692  -0.000010984913902 1
force Al   0.000083336781427   0.000031692500813   0.000062514823773 1
force Al  -0.000120949366780   0.000134897742190   0.000022426215347 1
force Al  -0.000058183309418   0.000035094298038  -0.000011599315520 1
force Al  -0.000008120432176   0.000002288999872  -0.000013046859071 1
force Al  -0.000121980965298   0.000024985784379  -0.000120294927002 1
force Al   0.000085992282821  -0.000083117588575   0.000066356765178 1
force Al  -0.000056029452194  -0.000015022883198  -0.000011090903438 1
force Al   0.000010754826868  -0.000037616755189   0.000021681938037 1
force Al  -0.000120442458484  -0.000012422742144   0.000180264085666 1
force Al  -0.000081564619502  -0.000168123214401  -0.000013496128981 1
force Al  -0.000012190234934  -0.000003990853793  -0.000010059865920 1
force Al   0.000034577422580   0.000029852031644  -0.000002016263289 1

# Energy components:
   Eewald =      -86.2650065248290048
       EH =        0.1328176450834936
     Eloc =        5.1480715760016000
      Enl =       14.6249939526030754
      Exc =      -68.6410477802749313
 Exc_core =       40.0705669553124366
       KE =       27.6827476289981718
-------------------------------------
     Etot =      -67.2468565471051392
       TS =        0.0167268182114408
-------------------------------------
        F =      -67.2635833653165776

IonicMinimize: Iter:   2  F: -67.263583365316578  |grad|_K:  7.994e-05  alpha:  1.000e+00  linmin: -1.158e-01  t[s]:  12447.38
IonicMinimize: Converged (|grad|_K<1.000000e-04).

#--- Lowdin population analysis ---
# oxidation-state Al +0.044 +0.044 +0.044 +0.044 +0.044 +0.044 +0.044 +0.044 +0.044 +0.044 +0.044 +0.044 +0.044 +0.044 +0.044 +0.044 +0.044 +0.044 +0.044 +0.044 +0.044 +0.044 +0.044 +0.044 +0.044 +0.044 +0.044 +0.044 +0.044 +0.044 +0.044 +0.044


Dumping 'Al32.Ecomponents' ... done
End date and time: Sun Jan 28 14:54:19 2024  (Duration: 0-3:28:02.12)
Done!
