--------------------------------------------------------------------------
Initialization of PSM library failed.

  Error: PSM is in the finalized state
--------------------------------------------------------------------------

*************** JDFTx 1.7.0  ***************

Start date and time: Sun Jan 28 11:26:24 2024
Executable jdftx with command-line: -i /home/cam559/Valla_project/Al/Al32O_oct.in
Running on hosts (process indices):  node3204.physics.cornell.edu (0-35)
Divided in process groups (process indices):  0 (0)  1 (1)  2 (2)  3 (3)  4 (4)  5 (5)  6 (6)  7 (7)  8 (8)  9 (9)  10 (10)  11 (11)  12 (12)  13 (13)  14 (14)  15 (15)  16 (16)  17 (17)  18 (18)  19 (19)  20 (20)  21 (21)  22 (22)  23 (23)  24 (24)  25 (25)  26 (26)  27 (27)  28 (28)  29 (29)  30 (30)  31 (31)  32 (32)  33 (33)  34 (34)  35 (35)
Resource initialization completed at t[s]:      0.29
Run totals: 36 processes, 36 threads, 0 GPUs


Input parsed successfully to the following command list (including defaults):

basis kpoint-dependent
coords-type Cartesian
core-overlap-check vector
coulomb-interaction Periodic
davidson-band-ratio 1.1
dump End Ecomponents
dump-name Al32O_oct.$VAR
elec-cutoff 20 100
elec-eigen-algo Davidson
elec-ex-corr gga-PBE
elec-smearing Fermi 0.004
electronic-minimize  \
	dirUpdateScheme      FletcherReeves \
	linminMethod         DirUpdateRecommended \
	nIterations          100 \
	history              15 \
	knormThreshold       0 \
	energyDiffThreshold  1e-08 \
	nEnergyDiff          2 \
	alphaTstart          1 \
	alphaTmin            1e-10 \
	updateTestStepSize   yes \
	alphaTreduceFactor   0.1 \
	alphaTincreaseFactor 3 \
	nAlphaAdjustMax      3 \
	wolfeEnergy          0.0001 \
	wolfeGradient        0.9 \
	fdTest               no
exchange-regularization WignerSeitzTruncated
fluid None
fluid-ex-corr lda-TF lda-PZ
fluid-gummel-loop 10 1.000000e-05
fluid-minimize  \
	dirUpdateScheme      PolakRibiere \
	linminMethod         DirUpdateRecommended \
	nIterations          100 \
	history              15 \
	knormThreshold       0 \
	energyDiffThreshold  0 \
	nEnergyDiff          2 \
	alphaTstart          1 \
	alphaTmin            1e-10 \
	updateTestStepSize   yes \
	alphaTreduceFactor   0.1 \
	alphaTincreaseFactor 3 \
	nAlphaAdjustMax      3 \
	wolfeEnergy          0.0001 \
	wolfeGradient        0.9 \
	fdTest               no
fluid-solvent H2O 55.338 ScalarEOS \
	epsBulk 78.4 \
	pMol 0.92466 \
	epsInf 1.77 \
	Pvap 1.06736e-10 \
	sigmaBulk 4.62e-05 \
	Rvdw 2.61727 \
	Res 1.42 \
	tauNuc 343133 \
	poleEl 15 7 1
forces-output-coords Positions
initial-state Al32O_oct.$VAR
ion Al   0.001000000000000   0.000000000000000   0.000000000000000 1
ion Al   0.000000000000000   3.836695000000000   3.826695000000000 1
ion Al   3.826695000000000   0.000000000000000   3.836695000000000 1
ion Al   3.826695000000000   3.826695000000000   0.000000000000000 1
ion Al   0.000000000000000   0.000000000000000   7.653391000000000 1
ion Al   0.000000000000000   3.826695000000000  11.480086000000000 1
ion Al   3.826695000000000   0.000000000000000  11.480086000000000 1
ion Al   3.826695000000000   3.826695000000000   7.653391000000000 1
ion Al   0.000000000000000   7.653391000000000   0.000000000000000 1
ion Al   0.000000000000000  11.480086000000000   3.826695000000000 1
ion Al   3.826695000000000   7.653391000000000   3.826695000000000 1
ion Al   3.826695000000000  11.480086000000000   0.000000000000000 1
ion Al   0.000000000000000   7.653391000000000   7.653391000000000 1
ion Al   0.000000000000000  11.480086000000000  11.480086000000000 1
ion Al   3.926695000000000   7.653391000000000  11.480086000000000 1
ion Al   3.826695000000000  11.480086000000000   7.653391000000000 1
ion Al   7.653391000000000   0.010000000000000   0.000000000000000 1
ion Al   7.653391000000000   3.826695000000000   3.826695000000000 1
ion Al  11.480086000000000   0.000000000000000   3.836695000000000 1
ion Al  11.480086000000000   3.826695000000000   0.000000000000000 1
ion Al   7.653391000000000   0.000000000000000   7.653391000000000 1
ion Al   7.653391000000000   3.826695000000000  11.480086000000000 1
ion Al  11.480086000000000   0.000000000000000  11.480086000000000 1
ion Al  11.480086000000000   3.826695000000000   7.653391000000000 1
ion Al   7.653391000000000   7.653391000000000   0.000000000000000 1
ion Al   7.653391000000000  11.480086000000000   3.816695000000000 1
ion Al  11.480086000000000   7.653391000000000   3.826695000000000 1
ion Al  11.480086000000000  11.480086000000000   0.000000000000000 1
ion Al   7.653391000000000   7.653391000000000   7.653391000000000 1
ion Al   7.643391000000000  11.480086000000000  11.480086000000000 1
ion Al  11.480086000000000   7.653391000000000  11.480086000000000 1
ion Al  11.480086000000000  11.480086000000000   7.653391000000000 1
ion O   3.845593000000000   3.845593000000000   3.845593000000000 1
ion-species GBRV/$ID_pbe.uspp
ion-width 0
ionic-minimize  \
	dirUpdateScheme      L-BFGS \
	linminMethod         DirUpdateRecommended \
	nIterations          30 \
	history              15 \
	knormThreshold       0.0001 \
	energyDiffThreshold  1e-06 \
	nEnergyDiff          2 \
	alphaTstart          1 \
	alphaTmin            1e-10 \
	updateTestStepSize   yes \
	alphaTreduceFactor   0.1 \
	alphaTincreaseFactor 3 \
	nAlphaAdjustMax      3 \
	wolfeEnergy          0.0001 \
	wolfeGradient        0.9 \
	fdTest               no
kpoint   0.000000000000   0.000000000000   0.000000000000  1.00000000000000
kpoint-folding 4 4 4 
latt-move-scale 1 1 1
latt-scale 1 1 1 
lattice  \
	  15.306782000000000    0.000000000000000    0.000000000000000  \
	   0.000000000000000   15.306782000000000    0.000000000000000  \
	   0.000000000000000    0.000000000000000   15.306782000000000 
lattice-minimize  \
	dirUpdateScheme      L-BFGS \
	linminMethod         DirUpdateRecommended \
	nIterations          0 \
	history              15 \
	knormThreshold       0 \
	energyDiffThreshold  1e-06 \
	nEnergyDiff          2 \
	alphaTstart          1 \
	alphaTmin            1e-10 \
	updateTestStepSize   yes \
	alphaTreduceFactor   0.1 \
	alphaTincreaseFactor 3 \
	nAlphaAdjustMax      3 \
	wolfeEnergy          0.0001 \
	wolfeGradient        0.9 \
	fdTest               no
lcao-params -1 1e-06 0.004
pcm-variant GLSSA13
spintype no-spin
subspace-rotation-factor 1 yes
symmetries automatic
symmetry-threshold 0.0001



---------- Setting up symmetries ----------

Found 48 point-group symmetries of the bravais lattice
Found 1 space-group symmetries with basis
Applied RMS atom displacement 0 bohrs to make symmetries exact.

---------- Initializing the Grid ----------
R = 
[      15.3068            0            0  ]
[            0      15.3068            0  ]
[            0            0      15.3068  ]
unit cell volume = 3586.34
G =
[   0.410484          0          0  ]
[          0   0.410484          0  ]
[          0          0   0.410484  ]
Minimum fftbox size, Smin = [  72  72  72  ]
Chosen fftbox size, S = [  72  72  72  ]

---------- Initializing tighter grid for wavefunction operations ----------
R = 
[      15.3068            0            0  ]
[            0      15.3068            0  ]
[            0            0      15.3068  ]
unit cell volume = 3586.34
G =
[   0.410484          0          0  ]
[          0   0.410484          0  ]
[          0          0   0.410484  ]
Minimum fftbox size, Smin = [  64  64  64  ]
Chosen fftbox size, S = [  64  64  64  ]

---------- Exchange Correlation functional ----------
Initalized PBE GGA exchange.
Initalized PBE GGA correlation.

---------- Setting up pseudopotentials ----------
Width of ionic core gaussian charges (only for fluid interactions / plotting) set to 0

Reading pseudopotential file '/home/cam559/JDFTx/build/pseudopotentials/GBRV/al_pbe.uspp':
  Title: Al.  Created by USPP 7.3.6 on 14-9-2013
  Reference state energy: -3.216414.  3 valence electrons in orbitals:
    |300>  occupation: 2  eigenvalue: -0.284914
    |310>  occupation: 1  eigenvalue: -0.099667
  lMax: 2  lLocal: 3  QijEcut: 5
  3 projectors sampled on a log grid with 623 points:
    l: 0  eig: -0.284914  rCut: 1.7
    l: 1  eig: -0.099668  rCut: 1.7
    l: 2  eig: 0.500000  rCut: 1.9
  Partial core density with radius 1.45
  Transforming core density to a uniform radial grid of dG=0.02 with 1285 points.
  Transforming local potential to a uniform radial grid of dG=0.02 with 1285 points.
  Transforming nonlocal projectors to a uniform radial grid of dG=0.02 with 432 points.
  Transforming density augmentations to a uniform radial grid of dG=0.02 with 1285 points.
  Transforming atomic orbitals to a uniform radial grid of dG=0.02 with 432 points.
  Core radius for overlap checks: 1.90 bohrs.

Reading pseudopotential file '/home/cam559/JDFTx/build/pseudopotentials/GBRV/o_pbe.uspp':
  Title: O.  Created by USPP 7.3.6 on 3-2-2014
  Reference state energy: -15.894388.  6 valence electrons in orbitals:
    |200>  occupation: 2  eigenvalue: -0.878823
    |210>  occupation: 4  eigenvalue: -0.332131
  lMax: 2  lLocal: 2  QijEcut: 6
  5 projectors sampled on a log grid with 511 points:
    l: 0  eig: -0.878823  rCut: 1.25
    l: 0  eig: 0.000000  rCut: 1.25
    l: 1  eig: -0.332132  rCut: 1.25
    l: 1  eig: 0.000000  rCut: 1.25
    l: 2  eig: 1.000000  rCut: 1.25
  Partial core density with radius 0.7
  Transforming core density to a uniform radial grid of dG=0.02 with 1285 points.
  Transforming local potential to a uniform radial grid of dG=0.02 with 1285 points.
  Transforming nonlocal projectors to a uniform radial grid of dG=0.02 with 432 points.
  Transforming density augmentations to a uniform radial grid of dG=0.02 with 1285 points.
  Transforming atomic orbitals to a uniform radial grid of dG=0.02 with 432 points.
  Core radius for overlap checks: 1.25 bohrs.

Initialized 2 species with 33 total atoms.

Folded 1 k-points by 4x4x4 to 64 k-points.

---------- Setting up k-points, bands, fillings ----------
Adding inversion symmetry to k-mesh for non-inversion-symmetric unit cell.
Reduced to 36 k-points under symmetry. 
Computing the number of bands and number of electrons
Calculating initial fillings.
nElectrons: 102.000000   nBands: 132   nStates: 36

----- Setting up reduced wavefunction bases (one per k-point) -----
average nbasis = 15325.672 , ideal nbasis = 15321.126

---------- Setting up ewald sum ----------
Optimum gaussian width for ewald sums = 3.409638 bohr.
Real space sum over 729 unit cells with max indices [  4  4  4  ]
Reciprocal space sum over 4913 terms with max indices [  8  8  8  ]

---------- Allocating electronic variables ----------
Initializing wave functions:  linear combination of atomic orbitals
Al pseudo-atom occupations:   s ( 2 )  p ( 1 )
O pseudo-atom occupations:   s ( 2 )  p ( 4 )
	FillingsUpdate:  mu: +0.339589320  nElectrons: 102.000000
LCAOMinimize: Iter:   0  F: -81.9320421162182555  |grad|_K:  1.405e-03  alpha:  1.000e+00
	FillingsUpdate:  mu: +0.333763175  nElectrons: 102.000000
LCAOMinimize: Iter:   1  F: -82.0494727718290875  |grad|_K:  8.911e-04  alpha:  1.094e-01  linmin: -3.959e-01  cgtest:  8.712e-01  t[s]:     88.98
LCAOMinimize: Encountered beta<0, resetting CG.
LCAOMinimize: 	Predicted alpha/alphaT>3.000000, increasing alphaT to 3.283028e-01.
	FillingsUpdate:  mu: +0.330913465  nElectrons: 102.000000
LCAOMinimize: Iter:   2  F: -82.1200492765741927  |grad|_K:  3.113e-04  alpha:  2.595e-01  linmin:  5.395e-02  cgtest: -1.227e-01  t[s]:    120.43
	FillingsUpdate:  mu: +0.331551522  nElectrons: 102.000000
LCAOMinimize: Iter:   3  F: -82.1262353169611856  |grad|_K:  1.289e-04  alpha:  2.186e-01  linmin:  4.664e-03  cgtest:  2.749e-01  t[s]:    146.23
	FillingsUpdate:  mu: +0.331389529  nElectrons: 102.000000
LCAOMinimize: Iter:   4  F: -82.1276896937905860  |grad|_K:  4.420e-05  alpha:  2.755e-01  linmin:  1.193e-03  cgtest:  1.988e-03  t[s]:    171.67
	FillingsUpdate:  mu: +0.331248830  nElectrons: 102.000000
LCAOMinimize: Iter:   5  F: -82.1278708358201470  |grad|_K:  2.882e-05  alpha:  2.916e-01  linmin:  2.525e-05  cgtest:  5.496e-03  t[s]:    196.61
	FillingsUpdate:  mu: +0.331336953  nElectrons: 102.000000
LCAOMinimize: Iter:   6  F: -82.1279518732143572  |grad|_K:  6.414e-06  alpha:  3.064e-01  linmin:  2.095e-03  cgtest: -1.598e-02  t[s]:    222.03
	FillingsUpdate:  mu: +0.331330674  nElectrons: 102.000000
LCAOMinimize: Iter:   7  F: -82.1279576758595198  |grad|_K:  3.576e-06  alpha:  4.438e-01  linmin:  2.060e-04  cgtest:  4.817e-03  t[s]:    247.16
	FillingsUpdate:  mu: +0.331321577  nElectrons: 102.000000
LCAOMinimize: Iter:   8  F: -82.1279586083939392  |grad|_K:  1.343e-06  alpha:  2.291e-01  linmin: -1.624e-05  cgtest:  5.158e-04  t[s]:    272.51
	FillingsUpdate:  mu: +0.331326040  nElectrons: 102.000000
LCAOMinimize: Iter:   9  F: -82.1279587489634793  |grad|_K:  3.590e-07  alpha:  2.450e-01  linmin:  3.279e-04  cgtest: -1.205e-03  t[s]:    297.37
LCAOMinimize: Converged (|Delta F|<1.000000e-06 for 2 iters).


---- Citations for features of the code used in this run ----

   Software package:
      R. Sundararaman, K. Letchworth-Weaver, K.A. Schwarz, D. Gunceler, Y. Ozhabes and T.A. Arias, 'JDFTx: software for joint density-functional theory', SoftwareX 6, 278 (2017)

   gga-PBE exchange-correlation functional:
      J.P. Perdew, K. Burke and M. Ernzerhof, Phys. Rev. Lett. 77, 3865 (1996)

   Pseudopotentials:
      KF Garrity, JW Bennett, KM Rabe and D Vanderbilt, Comput. Mater. Sci. 81, 446 (2014)

   Total energy minimization with Auxiliary Hamiltonian:
      C. Freysoldt, S. Boeck, and J. Neugebauer, Phys. Rev. B 79, 241103(R) (2009)

This list may not be complete. Please suggest additional citations or
report any other bugs at https://github.com/shankar1729/jdftx/issues

Initialization completed successfully at t[s]:    316.48


-------- Electronic minimization -----------
	FillingsUpdate:  mu: +0.331326040  nElectrons: 102.000000
ElecMinimize: Iter:   0  F: -82.127958748963493  |grad|_K:  9.452e-05  alpha:  1.000e+00
	FillingsUpdate:  mu: +0.304673150  nElectrons: 102.000000
	SubspaceRotationAdjust: set factor to 1
ElecMinimize: Iter:   1  F: -83.030164000854825  |grad|_K:  5.587e-05  alpha:  1.379e+00  linmin:  9.528e-03  t[s]:    459.73
	FillingsUpdate:  mu: +0.302919291  nElectrons: 102.000000
	SubspaceRotationAdjust: set factor to 0.678
ElecMinimize: Iter:   2  F: -83.181696801559454  |grad|_K:  6.195e-05  alpha:  7.721e-01  linmin:  5.333e-04  t[s]:    556.38
	FillingsUpdate:  mu: +0.298263679  nElectrons: 102.000000
	SubspaceRotationAdjust: set factor to 0.522
ElecMinimize: Iter:   3  F: -83.271442413974825  |grad|_K:  3.310e-05  alpha:  2.806e-01  linmin: -2.590e-03  t[s]:    653.82
	FillingsUpdate:  mu: +0.297287147  nElectrons: 102.000000
	SubspaceRotationAdjust: set factor to 0.416
ElecMinimize: Iter:   4  F: -83.314030591275213  |grad|_K:  1.747e-05  alpha:  4.789e-01  linmin:  2.286e-03  t[s]:    750.75
	FillingsUpdate:  mu: +0.297391514  nElectrons: 102.000000
	SubspaceRotationAdjust: set factor to 0.325
ElecMinimize: Iter:   5  F: -83.324960085082566  |grad|_K:  1.265e-05  alpha:  5.531e-01  linmin:  2.688e-04  t[s]:    848.26
	FillingsUpdate:  mu: +0.296777858  nElectrons: 102.000000
	SubspaceRotationAdjust: set factor to 0.386
ElecMinimize: Iter:   6  F: -83.331185888367202  |grad|_K:  6.699e-06  alpha:  5.360e-01  linmin:  2.460e-05  t[s]:    944.34
	FillingsUpdate:  mu: +0.296595604  nElectrons: 102.000000
	SubspaceRotationAdjust: set factor to 0.256
ElecMinimize: Iter:   7  F: -83.333912550141733  |grad|_K:  5.725e-06  alpha:  8.312e-01  linmin: -1.187e-06  t[s]:   1040.28
	FillingsUpdate:  mu: +0.296781937  nElectrons: 102.000000
	SubspaceRotationAdjust: set factor to 0.402
ElecMinimize: Iter:   8  F: -83.335102160331587  |grad|_K:  2.369e-06  alpha:  4.969e-01  linmin:  8.579e-06  t[s]:   1136.56
	FillingsUpdate:  mu: +0.296818754  nElectrons: 102.000000
	SubspaceRotationAdjust: set factor to 0.29
ElecMinimize: Iter:   9  F: -83.335452669279206  |grad|_K:  2.069e-06  alpha:  8.537e-01  linmin: -2.080e-05  t[s]:   1233.64
	FillingsUpdate:  mu: +0.296715892  nElectrons: 102.000000
	SubspaceRotationAdjust: set factor to 0.36
ElecMinimize: Iter:  10  F: -83.335635217309061  |grad|_K:  1.045e-06  alpha:  5.822e-01  linmin:  3.152e-06  t[s]:   1329.43
	FillingsUpdate:  mu: +0.296706755  nElectrons: 102.000000
	SubspaceRotationAdjust: set factor to 0.307
ElecMinimize: Iter:  11  F: -83.335700179736662  |grad|_K:  7.209e-07  alpha:  8.132e-01  linmin: -4.624e-06  t[s]:   1425.51
	FillingsUpdate:  mu: +0.296746080  nElectrons: 102.000000
	SubspaceRotationAdjust: set factor to 0.331
ElecMinimize: Iter:  12  F: -83.335724630802559  |grad|_K:  4.264e-07  alpha:  6.430e-01  linmin:  2.112e-06  t[s]:   1522.30
	FillingsUpdate:  mu: +0.296746059  nElectrons: 102.000000
	SubspaceRotationAdjust: set factor to 0.364
ElecMinimize: Iter:  13  F: -83.335733830771900  |grad|_K:  2.217e-07  alpha:  6.923e-01  linmin:  1.398e-06  t[s]:   1619.25
	FillingsUpdate:  mu: +0.296732678  nElectrons: 102.000000
	SubspaceRotationAdjust: set factor to 0.294
ElecMinimize: Iter:  14  F: -83.335736570688624  |grad|_K:  1.757e-07  alpha:  7.625e-01  linmin:  1.184e-06  t[s]:   1716.75
	FillingsUpdate:  mu: +0.296732890  nElectrons: 102.000000
	SubspaceRotationAdjust: set factor to 0.339
ElecMinimize: Iter:  15  F: -83.335737994973783  |grad|_K:  8.393e-08  alpha:  6.310e-01  linmin:  7.860e-07  t[s]:   1813.82
	FillingsUpdate:  mu: +0.296736831  nElectrons: 102.000000
	SubspaceRotationAdjust: set factor to 0.252
ElecMinimize: Iter:  16  F: -83.335738433626474  |grad|_K:  6.791e-08  alpha:  8.519e-01  linmin:  7.477e-07  t[s]:   1911.62
	FillingsUpdate:  mu: +0.296736393  nElectrons: 102.000000
	SubspaceRotationAdjust: set factor to 0.335
ElecMinimize: Iter:  17  F: -83.335738647847606  |grad|_K:  3.238e-08  alpha:  6.356e-01  linmin:  2.969e-07  t[s]:   2008.21
	FillingsUpdate:  mu: +0.296735857  nElectrons: 102.000000
	SubspaceRotationAdjust: set factor to 0.299
ElecMinimize: Iter:  18  F: -83.335738712630956  |grad|_K:  2.374e-08  alpha:  8.454e-01  linmin:  1.212e-07  t[s]:   2106.85
	FillingsUpdate:  mu: +0.296736335  nElectrons: 102.000000
	SubspaceRotationAdjust: set factor to 0.312
ElecMinimize: Iter:  19  F: -83.335738740310333  |grad|_K:  1.363e-08  alpha:  6.716e-01  linmin:  2.328e-07  t[s]:   2203.71
	FillingsUpdate:  mu: +0.296736013  nElectrons: 102.000000
	SubspaceRotationAdjust: set factor to 0.345
ElecMinimize: Iter:  20  F: -83.335738750233276  |grad|_K:  7.268e-09  alpha:  7.303e-01  linmin: -7.144e-08  t[s]:   2301.76
	FillingsUpdate:  mu: +0.296735707  nElectrons: 102.000000
	SubspaceRotationAdjust: set factor to 0.273
ElecMinimize: Iter:  21  F: -83.335738753066920  |grad|_K:  5.738e-09  alpha:  7.310e-01  linmin:  1.799e-09  t[s]:   2398.59
ElecMinimize: Converged (|Delta F|<1.000000e-08 for 2 iters).
Setting wave functions to eigenvectors of Hamiltonian

# Ionic positions in cartesian coordinates:
ion Al   0.001000000000000   0.000000000000000   0.000000000000000 1
ion Al   0.000000000000000   3.836695000000000   3.826695000000000 1
ion Al   3.826695000000000   0.000000000000000   3.836695000000000 1
ion Al   3.826695000000000   3.826695000000000   0.000000000000000 1
ion Al   0.000000000000000   0.000000000000000   7.653391000000000 1
ion Al   0.000000000000000   3.826695000000000  11.480086000000000 1
ion Al   3.826695000000000   0.000000000000000  11.480086000000000 1
ion Al   3.826695000000000   3.826695000000000   7.653391000000000 1
ion Al   0.000000000000000   7.653391000000000   0.000000000000000 1
ion Al   0.000000000000000  11.480086000000000   3.826695000000000 1
ion Al   3.826695000000000   7.653391000000000   3.826695000000000 1
ion Al   3.826695000000000  11.480086000000000   0.000000000000000 1
ion Al   0.000000000000000   7.653391000000000   7.653391000000000 1
ion Al   0.000000000000000  11.480086000000000  11.480086000000000 1
ion Al   3.926695000000000   7.653391000000000  11.480086000000000 1
ion Al   3.826695000000000  11.480086000000000   7.653391000000000 1
ion Al   7.653391000000000   0.010000000000000   0.000000000000000 1
ion Al   7.653391000000000   3.826695000000000   3.826695000000000 1
ion Al  11.480086000000000   0.000000000000000   3.836695000000000 1
ion Al  11.480086000000000   3.826695000000000   0.000000000000000 1
ion Al   7.653391000000000   0.000000000000000   7.653391000000000 1
ion Al   7.653391000000000   3.826695000000000  11.480086000000000 1
ion Al  11.480086000000000   0.000000000000000  11.480086000000000 1
ion Al  11.480086000000000   3.826695000000000   7.653391000000000 1
ion Al   7.653391000000000   7.653391000000000   0.000000000000000 1
ion Al   7.653391000000000  11.480086000000000   3.816695000000000 1
ion Al  11.480086000000000   7.653391000000000   3.826695000000000 1
ion Al  11.480086000000000  11.480086000000000   0.000000000000000 1
ion Al   7.653391000000000   7.653391000000000   7.653391000000000 1
ion Al   7.643391000000000  11.480086000000000  11.480086000000000 1
ion Al  11.480086000000000   7.653391000000000  11.480086000000000 1
ion Al  11.480086000000000  11.480086000000000   7.653391000000000 1
ion O   3.845593000000000   3.845593000000000   3.845593000000000 1

# Forces in Cartesian coordinates:
force Al   0.001860222457377   0.001969291703645   0.002129089049304 1
force Al  -0.020120595933449  -0.000587238625791  -0.000190337288423 1
force Al  -0.000243934761811  -0.020050215493060  -0.000540454336253 1
force Al  -0.000365307394422  -0.000166041341441  -0.020043740670981 1
force Al   0.001821497253894   0.001881909578842  -0.001809719760891 1
force Al  -0.000184226179353   0.000594163255330  -0.000047008911809 1
force Al  -0.000112183976691  -0.000706421361749  -0.000015403349252 1
force Al  -0.000325546900888  -0.000105865448289   0.020781691731274 1
force Al   0.002408083883063  -0.001777863447804   0.001161001994648 1
force Al  -0.000765403155934   0.000013627053496  -0.000018958153391 1
force Al  -0.000126142293804   0.020771045982294  -0.000154833989877 1
force Al  -0.000212387552615   0.000073925256466  -0.000689797369540 1
force Al   0.002286083691253  -0.001688189846471  -0.001063307767418 1
force Al   0.000956461283655  -0.000637592451823  -0.000027298836412 1
force Al  -0.004786078594374   0.000697450400996  -0.000059934533394 1
force Al  -0.000157841552069  -0.000143740395487   0.000734680230004 1
force Al  -0.001789785183478   0.001393971038155   0.001828057089332 1
force Al   0.020685150680161  -0.000080665492330  -0.000137839858411 1
force Al  -0.000012553208535  -0.000701674385287  -0.000463456000470 1
force Al   0.000020800878787  -0.000016550075960  -0.000691584501443 1
force Al  -0.001721782560283   0.001644193087345  -0.001645840325182 1
force Al   0.001449255597091  -0.000639803772266  -0.000136228559566 1
force Al  -0.000009939319114   0.000271930075160   0.000024931056185 1
force Al  -0.000055569356282   0.000050175515006   0.000841639526833 1
force Al  -0.001053758181783  -0.001759119085770   0.002366983223631 1
force Al   0.000791384121572  -0.000015710762174   0.000380454854152 1
force Al  -0.000037000778752   0.000849954058099   0.000010828746069 1
force Al  -0.000068053817733   0.000116819879331   0.000291804964884 1
force Al  -0.000934265575764  -0.001528078801456  -0.002388843666398 1
force Al   0.000753109808364   0.000793026756190   0.000020595733688 1
force Al   0.000200106387366  -0.000363724066252  -0.000015990283154 1
force Al  -0.000141330605005  -0.000085696367546  -0.000364965760634 1
force O  -0.000003130354949  -0.000075249903202  -0.000068897706699 1

# Energy components:
   Eewald =      -92.1599171281765592
       EH =       10.8716357529651155
     Eloc =      -22.1297841780111675
      Enl =       16.9092905247115226
      Exc =      -72.4448544264111263
 Exc_core =       40.1356177770905802
       KE =       35.4978675273090118
-------------------------------------
     Etot =      -83.3201441505226228
       TS =        0.0155946025443006
-------------------------------------
        F =      -83.3357387530669200

IonicMinimize: Iter:   0  F: -83.335738753066920  |grad|_K:  5.137e-03  t[s]:   2416.60

#--- Lowdin population analysis ---
# oxidation-state Al +0.017 +0.213 +0.212 +0.213 +0.017 +0.044 +0.045 +0.219 +0.016 +0.045 +0.219 +0.045 +0.015 +0.053 +0.045 +0.046 +0.016 +0.219 +0.045 +0.045 +0.015 +0.046 +0.054 +0.046 +0.016 +0.045 +0.046 +0.053 +0.014 +0.054 +0.054 +0.054
# oxidation-state O -0.802


-------- Electronic minimization -----------
	FillingsUpdate:  mu: +0.296704096  nElectrons: 102.000000
ElecMinimize: Iter:   0  F: -83.336891524332898  |grad|_K:  4.060e-06  alpha:  1.000e+00
	FillingsUpdate:  mu: +0.296615378  nElectrons: 102.000000
	SubspaceRotationAdjust: set factor to 0.163
ElecMinimize: Iter:   1  F: -83.337917286099682  |grad|_K:  1.879e-06  alpha:  8.510e-01  linmin:  2.031e-05  t[s]:   2590.91
	FillingsUpdate:  mu: +0.296717765  nElectrons: 102.000000
	SubspaceRotationAdjust: set factor to 0.0882
ElecMinimize: Iter:   2  F: -83.338119207232793  |grad|_K:  6.176e-07  alpha:  7.820e-01  linmin:  3.749e-05  t[s]:   2689.69
	FillingsUpdate:  mu: +0.296691263  nElectrons: 102.000000
	SubspaceRotationAdjust: set factor to 0.152
ElecMinimize: Iter:   3  F: -83.338156553826693  |grad|_K:  2.134e-07  alpha:  1.339e+00  linmin: -1.166e-06  t[s]:   2789.29
	FillingsUpdate:  mu: +0.296680831  nElectrons: 102.000000
	SubspaceRotationAdjust: set factor to 0.159
ElecMinimize: Iter:   4  F: -83.338160778879924  |grad|_K:  1.333e-07  alpha:  1.269e+00  linmin: -2.930e-06  t[s]:   2887.48
	FillingsUpdate:  mu: +0.296685942  nElectrons: 102.000000
	SubspaceRotationAdjust: set factor to 0.226
ElecMinimize: Iter:   5  F: -83.338163473065052  |grad|_K:  9.647e-08  alpha:  2.072e+00  linmin: -2.607e-06  t[s]:   2984.25
	FillingsUpdate:  mu: +0.296686249  nElectrons: 102.000000
	SubspaceRotationAdjust: set factor to 0.276
ElecMinimize: Iter:   6  F: -83.338164744985789  |grad|_K:  6.624e-08  alpha:  1.866e+00  linmin:  6.378e-07  t[s]:   3081.31
	FillingsUpdate:  mu: +0.296683965  nElectrons: 102.000000
	SubspaceRotationAdjust: set factor to 0.232
ElecMinimize: Iter:   7  F: -83.338165100790562  |grad|_K:  3.421e-08  alpha:  1.109e+00  linmin: -1.961e-07  t[s]:   3177.85
	FillingsUpdate:  mu: +0.296685415  nElectrons: 102.000000
	SubspaceRotationAdjust: set factor to 0.195
ElecMinimize: Iter:   8  F: -83.338165184299555  |grad|_K:  1.939e-08  alpha:  9.753e-01  linmin:  2.293e-08  t[s]:   3275.58
	FillingsUpdate:  mu: +0.296684870  nElectrons: 102.000000
	SubspaceRotationAdjust: set factor to 0.187
ElecMinimize: Iter:   9  F: -83.338165215218680  |grad|_K:  9.402e-09  alpha:  1.125e+00  linmin:  1.283e-07  t[s]:   3374.21
	FillingsUpdate:  mu: +0.296684863  nElectrons: 102.000000
	SubspaceRotationAdjust: set factor to 0.259
ElecMinimize: Iter:  10  F: -83.338165224222863  |grad|_K:  5.295e-09  alpha:  1.392e+00  linmin: -7.151e-08  t[s]:   3471.61
	FillingsUpdate:  mu: +0.296685088  nElectrons: 102.000000
	SubspaceRotationAdjust: set factor to 0.217
ElecMinimize: Iter:  11  F: -83.338165226591912  |grad|_K:  3.275e-09  alpha:  1.164e+00  linmin:  2.788e-07  t[s]:   3568.75
ElecMinimize: Converged (|Delta F|<1.000000e-08 for 2 iters).
Setting wave functions to eigenvectors of Hamiltonian

# Ionic positions in cartesian coordinates:
ion Al   0.002860060675392   0.001969532839518   0.002129170365352 1
ion Al  -0.020120757715433   3.836108002510083   3.826504744027625 1
ion Al   3.826450903456204  -0.020049974357188   3.836154626979796 1
ion Al   3.826329530823593   3.826529199794432  -0.020043659354932 1
ion Al   0.001821335471909   0.001882150714715   7.651581361555158 1
ion Al  -0.000184387961338   3.827289404391203  11.480039072404239 1
ion Al   3.826582654241324  -0.000706180225876  11.480070677966797 1
ion Al   3.826369291317127   3.826589375687584   7.674172773047323 1
ion Al   0.002407922101078   7.651613377688069   0.001161083310697 1
ion Al  -0.000765564937919  11.480099868189368   3.826676123162657 1
ion Al   3.826568695924212   7.674162287118167   3.826540247326172 1
ion Al   3.826482450665400  11.480160166392340  -0.000689716053491 1
ion Al   0.002285921909268   7.651703051289402   7.652327773548630 1
ion Al   0.000956299501671  11.479448648684052  11.480058782479636 1
ion Al   3.921908759623642   7.654088691536868  11.480026146782656 1
ion Al   3.826536996665947  11.479942500740385   7.654125761546053 1
ion Al   7.651601053034537   0.011394212174028   0.001828138405380 1
ion Al   7.674075988898176   3.826614575643542   3.826557241457637 1
ion Al  11.480073285009480  -0.000701433249414   3.836231625315579 1
ion Al  11.480106639096803   3.826678691059913  -0.000691503185395 1
ion Al   7.651669055657733   0.001644434223217   7.651745240990866 1
ion Al   7.654840093815107   3.826055437363607  11.479949852756484 1
ion Al  11.480075898898901   0.000272171211033  11.480111012372234 1
ion Al  11.480030268861734   3.826745416650879   7.654232720842881 1
ion Al   7.652337080036232   7.651632122050103   0.002367064539680 1
ion Al   7.654182222339587  11.480070530373700   3.817075536170200 1
ion Al  11.480048837439265   7.654241195193972   3.826705910062117 1
ion Al  11.480017784400282  11.480203061015203   0.000291886280932 1
ion Al   7.652456572642252   7.651863162334417   7.651002237649650 1
ion Al   7.644143948026380  11.480879267892064  11.480106677049736 1
ion Al  11.480285944605381   7.653027517069621  11.480070091032895 1
ion Al  11.479944507613011  11.480000544768329   7.653026115555414 1
ion O   3.845589707863067   3.845517991232670   3.845524183609349 1

# Forces in Cartesian coordinates:
force Al   0.001662157581455   0.001768199931992   0.001906754744139 1
force Al  -0.017239632963749  -0.000539078589771  -0.000162932508891 1
force Al  -0.000208327971239  -0.017173727078757  -0.000503704534408 1
force Al  -0.000312684279728  -0.000138221588540  -0.017170757879480 1
force Al   0.001620231615193   0.001681411628249  -0.001615637859991 1
force Al  -0.000406712063713   0.000529660190867  -0.000039984359259 1
force Al  -0.000102771156631  -0.000874970071459  -0.000011911945888 1
force Al  -0.000276935216575  -0.000091854761326   0.017733552529594 1
force Al   0.002160465946562  -0.001592339589383   0.001036321940191 1
force Al  -0.000935831426132   0.000004626218728  -0.000014454546534 1
force Al  -0.000114867423893   0.017725222111045  -0.000136024115894 1
force Al  -0.000174334578354   0.000070815676890  -0.000858615425960 1
force Al   0.002042206282777  -0.001506553452698  -0.000948718991231 1
force Al   0.000905016224834  -0.000566640750532  -0.000023209170187 1
force Al  -0.004475146135407   0.000863572644701  -0.000052181329074 1
force Al  -0.000125792609411  -0.000132318540333   0.000899249961704 1
force Al  -0.001612679582310   0.001223722546246   0.001642040352710 1
force Al   0.017647166377942  -0.000073889162840  -0.000116623736650 1
force Al  -0.000011364266057  -0.000867132071226  -0.000435242269383 1
force Al   0.000033357536866  -0.000013136037353  -0.000862781829966 1
force Al  -0.001543230217603   0.001461375126045  -0.001476619231864 1
force Al   0.001535261845315  -0.000561202013254  -0.000122887447268 1
force Al   0.000029014877778   0.000284682132596   0.000024973152332 1
force Al  -0.000035588551443   0.000045434466394   0.000991650710556 1
force Al  -0.000937898931440  -0.001569706368029   0.002095723991514 1
force Al   0.000941885319795  -0.000001891469578   0.000363390995413 1
force Al  -0.000000317819170   0.001004455965988   0.000008547460642 1
force Al  -0.000043616784250   0.000107555217284   0.000301189982208 1
force Al  -0.000822709902657  -0.001351988080193  -0.002117963551968 1
force Al   0.000652224849751   0.000702085904306   0.000021992552585 1
force Al   0.000178535060695  -0.000370331784328  -0.000010970848567 1
force Al  -0.000110015102938  -0.000073999747603  -0.000373465391211 1
force O   0.000076778944816   0.000012542265791   0.000020774249630 1

# Energy components:
   Eewald =      -92.2906827723020911
       EH =       10.7727663900087602
     Eloc =      -21.8881683916953200
      Enl =       16.9063843169513888
      Exc =      -72.4393940738865751
 Exc_core =       40.1356174833215604
       KE =       35.4809210183686332
-------------------------------------
     Etot =      -83.3225560292336525
       TS =        0.0156091973582592
-------------------------------------
        F =      -83.3381652265919115

IonicMinimize: Iter:   1  F: -83.338165226591912  |grad|_K:  4.408e-03  alpha:  1.000e+00  linmin: -9.997e-01  t[s]:   3586.20

#--- Lowdin population analysis ---
# oxidation-state Al +0.016 +0.212 +0.212 +0.212 +0.016 +0.045 +0.045 +0.219 +0.015 +0.046 +0.219 +0.046 +0.014 +0.052 +0.046 +0.046 +0.015 +0.219 +0.045 +0.045 +0.014 +0.047 +0.053 +0.046 +0.015 +0.046 +0.046 +0.053 +0.013 +0.054 +0.053 +0.053
# oxidation-state O -0.798


-------- Electronic minimization -----------
	FillingsUpdate:  mu: +0.296683657  nElectrons: 102.000000
ElecMinimize: Iter:   0  F: -83.315214260153567  |grad|_K:  1.864e-05  alpha:  1.000e+00
	FillingsUpdate:  mu: +0.296067064  nElectrons: 102.000000
	SubspaceRotationAdjust: set factor to 0.128
ElecMinimize: Iter:   1  F: -83.340403727657730  |grad|_K:  7.830e-06  alpha:  9.914e-01  linmin: -8.281e-05  t[s]:   3762.57
	FillingsUpdate:  mu: +0.296506360  nElectrons: 102.000000
	SubspaceRotationAdjust: set factor to 0.0772
ElecMinimize: Iter:   2  F: -83.344427590491250  |grad|_K:  2.348e-06  alpha:  8.962e-01  linmin:  1.508e-04  t[s]:   3858.81
	FillingsUpdate:  mu: +0.296383017  nElectrons: 102.000000
	SubspaceRotationAdjust: set factor to 0.116
ElecMinimize: Iter:   3  F: -83.345057627178505  |grad|_K:  8.481e-07  alpha:  1.564e+00  linmin:  6.305e-05  t[s]:   3955.89
	FillingsUpdate:  mu: +0.296336964  nElectrons: 102.000000
	SubspaceRotationAdjust: set factor to 0.129
ElecMinimize: Iter:   4  F: -83.345166135204352  |grad|_K:  6.537e-07  alpha:  2.064e+00  linmin: -2.171e-05  t[s]:   4052.39
	FillingsUpdate:  mu: +0.296352604  nElectrons: 102.000000
	SubspaceRotationAdjust: set factor to 0.18
ElecMinimize: Iter:   5  F: -83.345238436472926  |grad|_K:  5.256e-07  alpha:  2.312e+00  linmin: -9.743e-06  t[s]:   4148.20
	FillingsUpdate:  mu: +0.296364387  nElectrons: 102.000000
	SubspaceRotationAdjust: set factor to 0.187
ElecMinimize: Iter:   6  F: -83.345275233571272  |grad|_K:  2.718e-07  alpha:  1.819e+00  linmin:  2.062e-06  t[s]:   4246.31
	FillingsUpdate:  mu: +0.296352241  nElectrons: 102.000000
	SubspaceRotationAdjust: set factor to 0.187
ElecMinimize: Iter:   7  F: -83.345283375115429  |grad|_K:  1.442e-07  alpha:  1.507e+00  linmin: -9.561e-07  t[s]:   4343.16
	FillingsUpdate:  mu: +0.296359505  nElectrons: 102.000000
	SubspaceRotationAdjust: set factor to 0.191
ElecMinimize: Iter:   8  F: -83.345285406112396  |grad|_K:  7.645e-08  alpha:  1.335e+00  linmin:  1.592e-07  t[s]:   4441.44
	FillingsUpdate:  mu: +0.296357662  nElectrons: 102.000000
	SubspaceRotationAdjust: set factor to 0.234
ElecMinimize: Iter:   9  F: -83.345286040442971  |grad|_K:  3.884e-08  alpha:  1.484e+00  linmin:  6.901e-07  t[s]:   4537.69
	FillingsUpdate:  mu: +0.296358318  nElectrons: 102.000000
	SubspaceRotationAdjust: set factor to 0.297
ElecMinimize: Iter:  10  F: -83.345286182445591  |grad|_K:  2.027e-08  alpha:  1.288e+00  linmin:  2.752e-07  t[s]:   4634.77
	FillingsUpdate:  mu: +0.296358079  nElectrons: 102.000000
	SubspaceRotationAdjust: set factor to 0.416
ElecMinimize: Iter:  11  F: -83.345286228933119  |grad|_K:  9.747e-09  alpha:  1.548e+00  linmin:  1.704e-07  t[s]:   4731.37
	FillingsUpdate:  mu: +0.296357992  nElectrons: 102.000000
	SubspaceRotationAdjust: set factor to 0.427
ElecMinimize: Iter:  12  F: -83.345286239155229  |grad|_K:  6.176e-09  alpha:  1.473e+00  linmin: -3.544e-08  t[s]:   4827.64
	FillingsUpdate:  mu: +0.296358064  nElectrons: 102.000000
	SubspaceRotationAdjust: set factor to 0.295
ElecMinimize: Iter:  13  F: -83.345286241091728  |grad|_K:  4.579e-09  alpha:  6.886e-01  linmin:  1.888e-08  t[s]:   4925.05
	FillingsUpdate:  mu: +0.296358034  nElectrons: 102.000000
	SubspaceRotationAdjust: set factor to 0.237
ElecMinimize: Iter:  14  F: -83.345286242306670  |grad|_K:  1.898e-09  alpha:  7.824e-01  linmin: -3.113e-07  t[s]:   5023.14
ElecMinimize: Converged (|Delta F|<1.000000e-08 for 2 iters).
Setting wave functions to eigenvectors of Hamiltonian

# Ionic positions in cartesian coordinates:
ion Al   0.014736369759121   0.014873528188238   0.015886054475387 1
ion Al  -0.119644374982536   3.831811864977813   3.825576812283188 1
ion Al   3.825282514213318  -0.119009666865322   3.831904802842096 1
ion Al   3.824546591623700   3.825874712016677  -0.119073304916904 1
ion Al   0.013165162666507   0.013889300776253   7.640101133894490 1
ion Al  -0.010784773569232   3.831039837514910  11.479825721924668 1
ion Al   3.825780329143021  -0.014704576931868  11.480052358482046 1
ion Al   3.824848597650310   3.826030156046786   7.774159646006553 1
ion Al   0.018120715740463   7.640136418075810   0.008532202480305 1
ion Al  -0.015455564885494  11.479901706800149   3.826659833717587 1
ion Al   3.825691996253137   7.774128801575803   3.825651072677171 1
ion Al   3.825741556592308  11.480826493043786  -0.014525059134230 1
ion Al   0.016860058667575   7.641018674005484   7.645607363237573 1
ion Al   0.009032803158703  11.475510801491405  11.479938543401408 1
ion Al   3.883651306890263   7.667916506159083  11.479705113705593 1
ion Al   3.826136342691270  11.478883604531342   7.668283557348810 1
ion Al   7.639673073764047   0.019443301227375   0.013831325488450 1
ion Al   7.773446402689970   3.826038670625513   3.825940784811760 1
ion Al  11.479999338763990  -0.014529361699148   3.832459727512999 1
ion Al  11.480826979034102   3.826646753540412  -0.014638407559191 1
ion Al   7.640513429321905   0.011837991262229   7.641021307963713 1
ion Al   7.673462874074156   3.822392513087933  11.479043387159036 1
ion Al  11.481501588498229   0.003641466869953  11.480382892738035 1
ion Al  11.480235951782909   3.827098101034080   7.668949123241216 1
ion Al   7.645770852800072   7.640504100772047   0.016721463049527 1
ion Al   7.668392734853812  11.480453033490630   3.820423706754766 1
ion Al  11.481101079108109   7.669221658618748   3.826738748821804 1
ion Al  11.480265732960060  11.481081069481869   0.003737712036058 1
ion Al   7.646980653404269   7.642648321966618   7.636418416895955 1
ion Al   7.648152287037443  11.485692849665215  11.480385721493869 1
ion Al  11.481563749852036   7.648949742331246  11.480105155797451 1
ion Al  11.479689097259158  11.479563469081828   7.648860048836725 1
ion O   3.848683543183302   3.848157157237114   3.848302032532088 1

# Forces in Cartesian coordinates:
force Al   0.000561199615029   0.000611812982117   0.000623114909451 1
force Al  -0.004820271513715  -0.000266487138566  -0.000057144549563 1
force Al  -0.000091138829163  -0.004793389684795  -0.000283748266734 1
force Al  -0.000007671477975  -0.000058401612267  -0.004801814375930 1
force Al   0.000510664801315   0.000532983031009  -0.000521255848344 1
force Al  -0.000979719253711   0.000066552438267  -0.000033150309739 1
force Al  -0.000028927505973  -0.001058802115936  -0.000029272664497 1
force Al  -0.000003996681699  -0.000061255657028   0.004830386983013 1
force Al   0.000671094997397  -0.000524783476110   0.000423867254563 1
force Al  -0.001088218393692  -0.000058408780229   0.000009077946856 1
force Al  -0.000069773830529   0.004838239616354  -0.000082595486973 1
force Al   0.000048094247713  -0.000007476904641  -0.001057195846900 1
force Al   0.000582228439989  -0.000467875029426  -0.000380537286291 1
force Al  -0.000098995304389  -0.000099274592103   0.000000107576049 1
force Al  -0.002171507597752   0.001056317274405  -0.000039078269834 1
force Al   0.000052302924040  -0.000065528444913   0.001059890424051 1
force Al  -0.000562634387859   0.000312128701773   0.000552658530583 1
force Al   0.004816062871943  -0.000068850735571  -0.000055497967518 1
force Al  -0.000052927837022  -0.001047452605796  -0.000226112729055 1
force Al   0.000044632222142   0.000007776705185  -0.001064563059222 1
force Al  -0.000490959168107   0.000435017233896  -0.000484742058727 1
force Al   0.001167074607509  -0.000057726647594  -0.000063647795294 1
force Al   0.000191266702575  -0.000263553450955   0.000014965388703 1
force Al   0.000030908150703   0.000008947456759   0.001067072668717 1
force Al  -0.000338803606864  -0.000480874341401   0.000511255527419 1
force Al   0.001055691331417   0.000010565695838   0.000215529773521 1
force Al   0.000135680421587   0.001087357659181  -0.000013266288661 1
force Al   0.000073574843599   0.000036724523458  -0.000268467727943 1
force Al  -0.000253313588964  -0.000368116057965  -0.000498627146488 1
force Al   0.000588819577862   0.000125972672759   0.000020487414397 1
force Al   0.000039965388136   0.000222756776901   0.000011658498711 1
force Al   0.000055141688072  -0.000000441239318   0.000212667977000 1
force O   0.000417385330742   0.000404347197863   0.000422462372097 1

# Energy components:
   Eewald =      -92.8853424806574850
       EH =       10.3172305481560489
     Eloc =      -20.7895930058477525
      Enl =       16.8988751157471881
      Exc =      -72.4171064029266631
 Exc_core =       40.1356199301396757
       KE =       35.4107457348286516
-------------------------------------
     Etot =      -83.3295705605603416
       TS =        0.0157156817463283
-------------------------------------
        F =      -83.3452862423066705

IonicMinimize: Iter:   2  F: -83.345286242306670  |grad|_K:  1.291e-03  alpha:  8.059e-01  linmin: -9.897e-01  t[s]:   5040.18

#--- Lowdin population analysis ---
# oxidation-state Al +0.012 +0.208 +0.208 +0.208 +0.012 +0.048 +0.048 +0.215 +0.011 +0.048 +0.215 +0.048 +0.010 +0.052 +0.049 +0.049 +0.011 +0.216 +0.048 +0.048 +0.010 +0.050 +0.052 +0.049 +0.011 +0.049 +0.049 +0.052 +0.010 +0.053 +0.052 +0.052
# oxidation-state O -0.781


-------- Electronic minimization -----------
	FillingsUpdate:  mu: +0.296349428  nElectrons: 102.000000
ElecMinimize: Iter:   0  F: -83.339634192424199  |grad|_K:  8.866e-06  alpha:  1.000e+00
	FillingsUpdate:  mu: +0.296000705  nElectrons: 102.000000
	SubspaceRotationAdjust: set factor to 0.132
ElecMinimize: Iter:   1  F: -83.344720369736947  |grad|_K:  4.320e-06  alpha:  8.849e-01  linmin:  7.254e-06  t[s]:   5214.39
	FillingsUpdate:  mu: +0.296269229  nElectrons: 102.000000
	SubspaceRotationAdjust: set factor to 0.0859
ElecMinimize: Iter:   2  F: -83.345973292793815  |grad|_K:  1.178e-06  alpha:  9.181e-01  linmin:  7.107e-05  t[s]:   5313.46
	FillingsUpdate:  mu: +0.296213784  nElectrons: 102.000000
	SubspaceRotationAdjust: set factor to 0.128
ElecMinimize: Iter:   3  F: -83.346128097192391  |grad|_K:  3.950e-07  alpha:  1.527e+00  linmin:  3.442e-05  t[s]:   5412.15
	FillingsUpdate:  mu: +0.296195772  nElectrons: 102.000000
	SubspaceRotationAdjust: set factor to 0.137
ElecMinimize: Iter:   4  F: -83.346150422968975  |grad|_K:  2.887e-07  alpha:  1.957e+00  linmin: -1.271e-05  t[s]:   5509.98
	FillingsUpdate:  mu: +0.296194244  nElectrons: 102.000000
	SubspaceRotationAdjust: set factor to 0.194
ElecMinimize: Iter:   5  F: -83.346163872267510  |grad|_K:  2.314e-07  alpha:  2.205e+00  linmin:  3.019e-07  t[s]:   5606.64
	FillingsUpdate:  mu: +0.296205223  nElectrons: 102.000000
	SubspaceRotationAdjust: set factor to 0.189
ElecMinimize: Iter:   6  F: -83.346170814206317  |grad|_K:  1.261e-07  alpha:  1.773e+00  linmin:  6.254e-07  t[s]:   5705.03
	FillingsUpdate:  mu: +0.296197993  nElectrons: 102.000000
	SubspaceRotationAdjust: set factor to 0.14
ElecMinimize: Iter:   7  F: -83.346172352135241  |grad|_K:  6.942e-08  alpha:  1.322e+00  linmin: -1.412e-07  t[s]:   5803.57
	FillingsUpdate:  mu: +0.296201374  nElectrons: 102.000000
	SubspaceRotationAdjust: set factor to 0.157
ElecMinimize: Iter:   8  F: -83.346172810714648  |grad|_K:  3.039e-08  alpha:  1.301e+00  linmin:  1.208e-07  t[s]:   5899.81
	FillingsUpdate:  mu: +0.296201106  nElectrons: 102.000000
	SubspaceRotationAdjust: set factor to 0.229
ElecMinimize: Iter:   9  F: -83.346172924561401  |grad|_K:  1.584e-08  alpha:  1.686e+00  linmin:  7.502e-07  t[s]:   5997.58
	FillingsUpdate:  mu: +0.296200943  nElectrons: 102.000000
	SubspaceRotationAdjust: set factor to 0.27
ElecMinimize: Iter:  10  F: -83.346172951262432  |grad|_K:  9.393e-09  alpha:  1.456e+00  linmin:  1.155e-07  t[s]:   6096.07
	FillingsUpdate:  mu: +0.296201277  nElectrons: 102.000000
	SubspaceRotationAdjust: set factor to 0.282
ElecMinimize: Iter:  11  F: -83.346172961500102  |grad|_K:  5.439e-09  alpha:  1.587e+00  linmin: -6.107e-08  t[s]:   6194.49
	FillingsUpdate:  mu: +0.296200935  nElectrons: 102.000000
	SubspaceRotationAdjust: set factor to 0.237
ElecMinimize: Iter:  12  F: -83.346172963775132  |grad|_K:  3.549e-09  alpha:  1.050e+00  linmin: -6.850e-08  t[s]:   6293.58
	FillingsUpdate:  mu: +0.296201056  nElectrons: 102.000000
	SubspaceRotationAdjust: set factor to 0.178
ElecMinimize: Iter:  13  F: -83.346172964718647  |grad|_K:  1.799e-09  alpha:  1.055e+00  linmin:  1.748e-06  t[s]:   6391.13
ElecMinimize: Converged (|Delta F|<1.000000e-08 for 2 iters).
Setting wave functions to eigenvectors of Hamiltonian

# Ionic positions in cartesian coordinates:
ion Al   0.020773796811877   0.021560780086442   0.022620850497207 1
ion Al  -0.161497219512711   3.828723545348742   3.825050230815467 1
ion Al   3.824425750788855  -0.160543581232760   3.828532420171353 1
ion Al   3.824698494879261   3.825370034116832  -0.160740379457389 1
ion Al   0.018548191873009   0.019593957740928   7.634530113571739 1
ion Al  -0.024805243021661   3.831681428266754  11.479482813275594 1
ion Al   3.825450337205387  -0.029566130445864  11.479746122699510 1
ion Al   3.825038543971909   3.825391240824666   7.814817286505308 1
ion Al   0.025420650772642   7.634458043532006   0.013105942971517 1
ion Al  -0.030730842975403  11.479147359350232   3.826793413199762 1
ion Al   3.824909473243586   7.814893282564154   3.824772371672819 1
ion Al   3.826518770737512  11.480790341341603  -0.029354301229403 1
ion Al   0.023063038308306   7.636037706713018   7.641504678766655 1
ion Al   0.008416118580648  11.474529623369003  11.479956161308795 1
ion Al   3.857475737401326   7.682707901177695  11.479289378279118 1
ion Al   3.826950092553748  11.478119273770551   7.683137673947881 1
ion Al   7.633459736908089   0.022466103392603   0.019873274653503 1
ion Al   7.813968751261574   3.825253336792824   3.825417179804525 1
ion Al  11.479414142925878  -0.029218835822025   3.829719545953762 1
ion Al  11.481521248422528   3.826756926627027  -0.029582498979064 1
ion Al   7.635204894433549   0.016381360452417   7.635742837389084 1
ion Al   7.689394767188478   3.821972052491078  11.478331145183406 1
ion Al  11.484140072195084   0.001158980763068  11.480578637753666 1
ion Al  11.480778656850381   3.827198056014464   7.683827868214199 1
ion Al   7.642177411088427   7.635390586003601   0.021865588410920 1
ion Al   7.683102734636471  11.480726226851674   3.823081346770522 1
ion Al  11.483053837811751   7.684396836134341   3.826571107562126 1
ion Al  11.481329466674401  11.481515541938000   0.001179155107871 1
ion Al   7.644436152600810   7.638909277865243   7.631380433718427 1
ion Al   7.654409556358449  11.486906237401218  11.480655447932286 1
ion Al  11.481989325694496   7.650940733502671  11.480277749716171 1
ion Al  11.480545116636208  11.479603337455448   7.650710289537226 1
ion O   3.854387436695138   3.853717435612356   3.854095114275446 1

# Forces in Cartesian coordinates:
force Al   0.000165836902367   0.000144069030529   0.000124263104210 1
force Al  -0.000556155834590  -0.000144496961294  -0.000033424684959 1
force Al  -0.000072631265484  -0.000583482539774  -0.000147312985226 1
force Al   0.000084499181119  -0.000047209575267  -0.000593017431196 1
force Al   0.000107347729069   0.000066041975617  -0.000128519384612 1
force Al  -0.000600338321458  -0.000118933865442  -0.000045001019691 1
force Al   0.000026479288594  -0.000531004169997  -0.000053398804539 1
force Al   0.000071965090812  -0.000054245373345   0.000425501073063 1
force Al   0.000033655310821  -0.000119234868241   0.000197962158786 1
force Al  -0.000497016575679  -0.000051283743631   0.000010849155754 1
force Al  -0.000024693791267   0.000435062316222  -0.000065264391169 1
force Al   0.000108190916717  -0.000065469862716  -0.000541101975446 1
force Al  -0.000046528249392  -0.000060475909377  -0.000171395784417 1
force Al  -0.000515376258393   0.000109817883127   0.000009154312230 1
force Al  -0.000812452269802   0.000520670825277  -0.000050755620781 1
force Al   0.000094775654723  -0.000031788984625   0.000504367891211 1
force Al  -0.000106728548608  -0.000002320350649   0.000072206020454 1
force Al   0.000471116429197  -0.000037229075234  -0.000049124522306 1
force Al  -0.000079115045888  -0.000528070372403  -0.000096724816738 1
force Al  -0.000015920061344   0.000012137433438  -0.000539334434129 1
force Al  -0.000033206184754   0.000021115497153  -0.000055777507946 1
force Al   0.000416131215122   0.000111286146253  -0.000043340101499 1
force Al   0.000118678052004  -0.000440304713976   0.000002995662128 1
force Al  -0.000003541569737  -0.000007849267984   0.000484334999277 1
force Al  -0.000119680727295  -0.000044539243907  -0.000103829596707 1
force Al   0.000524849390609  -0.000052850097019   0.000103607571838 1
force Al   0.000044389955679   0.000490164366153  -0.000021442005888 1
force Al   0.000072629532996  -0.000004489313219  -0.000452161400634 1
force Al  -0.000039302510652   0.000016263075554   0.000147368516251 1
force Al   0.000442312156172  -0.000108597404398   0.000009735234202 1
force Al  -0.000006184340966   0.000419303117193   0.000010902782944 1
force Al   0.000082048793122   0.000029662597209   0.000412531545535 1
force O   0.000646236940687   0.000672660004502   0.000693992836186 1

# Energy components:
   Eewald =      -93.1216524871913549
       EH =       10.1313185569596715
     Eloc =      -20.3520071915383483
      Enl =       16.8989734404242071
      Exc =      -72.4098061746017976
 Exc_core =       40.1356214175583972
       KE =       35.3871690736519042
-------------------------------------
     Etot =      -83.3303833647373011
       TS =        0.0157895999813433
-------------------------------------
        F =      -83.3461729647186473

IonicMinimize: Iter:   3  F: -83.346172964718647  |grad|_K:  2.929e-04  alpha:  1.000e+00  linmin: -7.667e-01  t[s]:   6407.97

#--- Lowdin population analysis ---
# oxidation-state Al +0.012 +0.206 +0.206 +0.206 +0.011 +0.049 +0.049 +0.215 +0.011 +0.049 +0.215 +0.049 +0.010 +0.052 +0.050 +0.050 +0.011 +0.215 +0.049 +0.049 +0.010 +0.051 +0.052 +0.050 +0.010 +0.050 +0.050 +0.052 +0.008 +0.052 +0.052 +0.052
# oxidation-state O -0.775


-------- Electronic minimization -----------
	FillingsUpdate:  mu: +0.296232316  nElectrons: 102.000000
ElecMinimize: Iter:   0  F: -83.346048110542085  |grad|_K:  1.342e-06  alpha:  1.000e+00
	FillingsUpdate:  mu: +0.296145651  nElectrons: 102.000000
	SubspaceRotationAdjust: set factor to 0.108
ElecMinimize: Iter:   1  F: -83.346193149941243  |grad|_K:  6.752e-07  alpha:  1.102e+00  linmin:  2.208e-06  t[s]:   6588.25
	FillingsUpdate:  mu: +0.296186422  nElectrons: 102.000000
	SubspaceRotationAdjust: set factor to 0.157
ElecMinimize: Iter:   2  F: -83.346237113202278  |grad|_K:  2.555e-07  alpha:  1.319e+00  linmin:  2.695e-05  t[s]:   6685.96
	FillingsUpdate:  mu: +0.296180890  nElectrons: 102.000000
	SubspaceRotationAdjust: set factor to 0.182
ElecMinimize: Iter:   3  F: -83.346246391764367  |grad|_K:  2.024e-07  alpha:  1.944e+00  linmin: -1.846e-06  t[s]:   6783.56
	FillingsUpdate:  mu: +0.296176951  nElectrons: 102.000000
	SubspaceRotationAdjust: set factor to 0.214
ElecMinimize: Iter:   4  F: -83.346252202706779  |grad|_K:  1.285e-07  alpha:  1.940e+00  linmin:  1.242e-06  t[s]:   6880.43
	FillingsUpdate:  mu: +0.296180378  nElectrons: 102.000000
	SubspaceRotationAdjust: set factor to 0.211
ElecMinimize: Iter:   5  F: -83.346254220899326  |grad|_K:  5.617e-08  alpha:  1.671e+00  linmin:  6.712e-07  t[s]:   6976.44
	FillingsUpdate:  mu: +0.296178907  nElectrons: 102.000000
	SubspaceRotationAdjust: set factor to 0.22
ElecMinimize: Iter:   6  F: -83.346254575058765  |grad|_K:  2.624e-08  alpha:  1.535e+00  linmin:  1.598e-07  t[s]:   7074.97
	FillingsUpdate:  mu: +0.296179781  nElectrons: 102.000000
	SubspaceRotationAdjust: set factor to 0.188
ElecMinimize: Iter:   7  F: -83.346254631432515  |grad|_K:  1.467e-08  alpha:  1.119e+00  linmin: -2.992e-07  t[s]:   7173.69
	FillingsUpdate:  mu: +0.296179279  nElectrons: 102.000000
	SubspaceRotationAdjust: set factor to 0.179
ElecMinimize: Iter:   8  F: -83.346254652103795  |grad|_K:  6.129e-09  alpha:  1.311e+00  linmin: -2.055e-06  t[s]:   7271.21
	FillingsUpdate:  mu: +0.296179554  nElectrons: 102.000000
	SubspaceRotationAdjust: set factor to 0.171
ElecMinimize: Iter:   9  F: -83.346254655856626  |grad|_K:  3.084e-09  alpha:  1.368e+00  linmin:  1.158e-06  t[s]:   7368.42
	FillingsUpdate:  mu: +0.296179442  nElectrons: 102.000000
	SubspaceRotationAdjust: set factor to 0.204
ElecMinimize: Iter:  10  F: -83.346254656931578  |grad|_K:  1.684e-09  alpha:  1.557e+00  linmin: -4.866e-07  t[s]:   7465.97
ElecMinimize: Converged (|Delta F|<1.000000e-08 for 2 iters).
Setting wave functions to eigenvectors of Hamiltonian

# Ionic positions in cartesian coordinates:
ion Al   0.023194609878140   0.023744356984677   0.024566940664680 1
ion Al  -0.170196999257227   3.826754395509516   3.824608508052563 1
ion Al   3.823501966796483  -0.169573105327294   3.826511696762986 1
ion Al   3.825746158844018   3.824767904573744  -0.169898189836639 1
ion Al   0.020207768791617   0.020757396324878   7.632593248359732 1
ion Al  -0.033102598253864   3.830277896079545  11.478907562625391 1
ion Al   3.825760787892989  -0.037095969376466  11.479070646068669 1
ion Al   3.825936304202827   3.824690370554641   7.821748222157805 1
ion Al   0.026309272830010   7.632628702352645   0.015796865723159 1
ion Al  -0.037859476743648  11.478473017676173   3.826927619795246 1
ion Al   3.824572251109267   7.821948546602546   3.823920757604995 1
ion Al   3.827896357290272  11.479988955146515  -0.037005664616163 1
ion Al   0.022897051247101   7.634976265513917   7.639153308274209 1
ion Al   0.002210113160423  11.475800026579337  11.480062894933166 1
ion Al   3.845823353524440   7.690090192634953  11.478638185434473 1
ion Al   3.828167559521158  11.477677000246336   7.690326175847215 1
ion Al   7.631763880256416   0.022617223847423   0.021131516332543 1
ion Al   7.821465740800687   3.824753672864302   3.824785111812655 1
ion Al  11.478422667646193  -0.036700308314236   3.828350705518111 1
ion Al  11.481379908421246   3.826906872563427  -0.037220090422211 1
ion Al   7.634469135561766   0.016916890550629   7.634719400944401 1
ion Al   7.695601499986406   3.823289474297268  11.477751217004061 1
ion Al  11.485761445031123  -0.004265969616638  11.480622074896594 1
ion Al  11.480777495115026   3.827104748099910   7.690773630703638 1
ion Al   7.640500606637984   7.634516349999261   0.020919064366766 1
ion Al   7.690546137877078  11.480094325080460   3.824515660569714 1
ion Al  11.483722517856316   7.691435693789845   3.826292869555695 1
ion Al  11.482291944198273  11.481484735134618  -0.004396956340234 1
ion Al   7.643813245038547   7.638871888642851   7.632849065220819 1
ion Al   7.660109923899995  11.485656902067864  11.480785726657498 1
ion Al  11.481951725927807   7.656065432069195  11.480415565277132 1
ion Al  11.481609484958925  11.479963367609042   7.655741504138939 1
ion O   3.862717159952215   3.862351749239126   3.863004155912404 1

# Forces in Cartesian coordinates:
force Al   0.000137841730905   0.000086548983333   0.000077094289582 1
force Al   0.000105781050264  -0.000135890412546  -0.000063696925383 1
force Al  -0.000063188128076   0.000052039312524  -0.000118074314107 1
force Al   0.000007465615357  -0.000066997858227   0.000044722376416 1
force Al   0.000062636156170   0.000002523095248  -0.000096584827830 1
force Al  -0.000187776037266  -0.000095126700237  -0.000072394038764 1
force Al   0.000038396189315  -0.000149306975727  -0.000080588715214 1
force Al  -0.000003670391518  -0.000069155025494  -0.000256407902129 1
force Al  -0.000048434712440  -0.000081912235694   0.000120363374557 1
force Al  -0.000092255080793  -0.000052799216519  -0.000001465654612 1
force Al  -0.000026968783410  -0.000252638976600  -0.000072504488748 1
force Al   0.000059111802558  -0.000091360286224  -0.000157513317862 1
force Al  -0.000142430866461   0.000004710920112  -0.000090474284140 1
force Al  -0.000294874054870   0.000100888358364   0.000004727622157 1
force Al  -0.000386433216848   0.000120104279832  -0.000082659272697 1
force Al   0.000048177860278  -0.000053808183785   0.000107944205499 1
force Al  -0.000031452557594  -0.000021585494792  -0.000010334615700 1
force Al  -0.000196706919795  -0.000038302119015  -0.000073783070261 1
force Al  -0.000077969268966  -0.000150545214881  -0.000050951001634 1
force Al  -0.000073691443689   0.000002496861754  -0.000152769566211 1
force Al   0.000056864111074  -0.000060211522903   0.000023507263532 1
force Al   0.000045147278651   0.000081117784846  -0.000065847498168 1
force Al  -0.000009449796861  -0.000204350927730  -0.000006529876771 1
force Al  -0.000065816395332  -0.000012810413321   0.000094320022228 1
force Al  -0.000062971855236   0.000021707499904  -0.000161098537028 1
force Al   0.000147026140650  -0.000107222670474   0.000046836125819 1
force Al  -0.000089597020203   0.000091938061031  -0.000015602973432 1
force Al   0.000028261536628  -0.000016117577579  -0.000211997144488 1
force Al   0.000037235116747   0.000095732285883   0.000219215382027 1
force Al   0.000139432942255  -0.000107074288052  -0.000002023204852 1
force Al   0.000002498732043   0.000171007099013   0.000000269207300 1
force Al   0.000043412624412   0.000022619496333   0.000168804603864 1
force O   0.000895022477115   0.000943623920767   0.000973647517464 1

# Energy components:
   Eewald =      -93.1737439137375247
       EH =       10.0889186019697288
     Eloc =      -20.2551990352252211
      Enl =       16.8994840633297940
      Exc =      -72.4085612672489702
 Exc_core =       40.1356213942067797
       KE =       35.3830409379450046
-------------------------------------
     Etot =      -83.3304392187604037
       TS =        0.0158154381711748
-------------------------------------
        F =      -83.3462546569315776

IonicMinimize: Iter:   4  F: -83.346254656931578  |grad|_K:  1.962e-04  alpha:  1.000e+00  linmin: -5.502e-01  t[s]:   7483.21

#--- Lowdin population analysis ---
# oxidation-state Al +0.012 +0.204 +0.204 +0.204 +0.011 +0.049 +0.049 +0.216 +0.011 +0.049 +0.216 +0.049 +0.009 +0.052 +0.051 +0.051 +0.011 +0.216 +0.049 +0.049 +0.009 +0.051 +0.052 +0.051 +0.009 +0.051 +0.051 +0.052 +0.008 +0.052 +0.052 +0.052
# oxidation-state O -0.773


-------- Electronic minimization -----------
	FillingsUpdate:  mu: +0.296312035  nElectrons: 102.000000
ElecMinimize: Iter:   0  F: -83.331859716493895  |grad|_K:  1.111e-05  alpha:  1.000e+00
	FillingsUpdate:  mu: +0.296060669  nElectrons: 102.000000
	SubspaceRotationAdjust: set factor to 0.151
ElecMinimize: Iter:   1  F: -83.344499904290956  |grad|_K:  4.490e-06  alpha:  1.399e+00  linmin: -2.106e-04  t[s]:   7660.17
	FillingsUpdate:  mu: +0.296220637  nElectrons: 102.000000
	SubspaceRotationAdjust: set factor to 0.0794
ElecMinimize: Iter:   2  F: -83.345956852868895  |grad|_K:  1.724e-06  alpha:  9.859e-01  linmin: -1.168e-06  t[s]:   7758.37
	FillingsUpdate:  mu: +0.296170347  nElectrons: 102.000000
	SubspaceRotationAdjust: set factor to 0.133
ElecMinimize: Iter:   3  F: -83.346248737899899  |grad|_K:  5.994e-07  alpha:  1.343e+00  linmin: -1.064e-04  t[s]:   7856.50
	FillingsUpdate:  mu: +0.296173150  nElectrons: 102.000000
	SubspaceRotationAdjust: set factor to 0.12
ElecMinimize: Iter:   4  F: -83.346295914359871  |grad|_K:  4.369e-07  alpha:  1.794e+00  linmin:  1.449e-05  t[s]:   7954.03
	FillingsUpdate:  mu: +0.296164508  nElectrons: 102.000000
	SubspaceRotationAdjust: set factor to 0.168
ElecMinimize: Iter:   5  F: -83.346327174282408  |grad|_K:  3.320e-07  alpha:  2.240e+00  linmin: -1.823e-05  t[s]:   8051.49
	FillingsUpdate:  mu: +0.296175777  nElectrons: 102.000000
	SubspaceRotationAdjust: set factor to 0.178
ElecMinimize: Iter:   6  F: -83.346343225644048  |grad|_K:  2.129e-07  alpha:  1.989e+00  linmin:  6.264e-06  t[s]:   8149.31
	FillingsUpdate:  mu: +0.296170043  nElectrons: 102.000000
	SubspaceRotationAdjust: set factor to 0.114
ElecMinimize: Iter:   7  F: -83.346347721192274  |grad|_K:  9.729e-08  alpha:  1.356e+00  linmin: -2.611e-07  t[s]:   8246.47
	FillingsUpdate:  mu: +0.296171345  nElectrons: 102.000000
	SubspaceRotationAdjust: set factor to 0.11
ElecMinimize: Iter:   8  F: -83.346348607953786  |grad|_K:  3.620e-08  alpha:  1.281e+00  linmin:  2.952e-07  t[s]:   8345.33
	FillingsUpdate:  mu: +0.296171868  nElectrons: 102.000000
	SubspaceRotationAdjust: set factor to 0.152
ElecMinimize: Iter:   9  F: -83.346348778689716  |grad|_K:  1.895e-08  alpha:  1.781e+00  linmin: -2.519e-06  t[s]:   8441.92
	FillingsUpdate:  mu: +0.296171304  nElectrons: 102.000000
	SubspaceRotationAdjust: set factor to 0.172
ElecMinimize: Iter:  10  F: -83.346348817079303  |grad|_K:  1.062e-08  alpha:  1.461e+00  linmin: -1.608e-06  t[s]:   8540.49
	FillingsUpdate:  mu: +0.296171426  nElectrons: 102.000000
	SubspaceRotationAdjust: set factor to 0.232
ElecMinimize: Iter:  11  F: -83.346348832465083  |grad|_K:  7.158e-09  alpha:  1.864e+00  linmin: -1.558e-06  t[s]:   8638.16
	FillingsUpdate:  mu: +0.296171467  nElectrons: 102.000000
	SubspaceRotationAdjust: set factor to 0.235
ElecMinimize: Iter:  12  F: -83.346348839238189  |grad|_K:  4.937e-09  alpha:  1.811e+00  linmin:  1.275e-06  t[s]:   8735.93
	FillingsUpdate:  mu: +0.296171398  nElectrons: 102.000000
	SubspaceRotationAdjust: set factor to 0.189
ElecMinimize: Iter:  13  F: -83.346348841368155  |grad|_K:  2.802e-09  alpha:  1.200e+00  linmin:  1.022e-06  t[s]:   8833.72
ElecMinimize: Converged (|Delta F|<1.000000e-08 for 2 iters).
Setting wave functions to eigenvectors of Hamiltonian
IonicMinimize: 	Wolfe criterion not satisfied: alpha: 1  (E-E0)/|gdotd0|: -0.983796  gdotd/gdotd0: 0.960561 (taking cubic step)

-------- Electronic minimization -----------
	FillingsUpdate:  mu: +0.296504903  nElectrons: 102.000000
ElecMinimize: Iter:   0  F: -83.288382635630299  |grad|_K:  2.229e-05  alpha:  1.000e+00
	FillingsUpdate:  mu: +0.295992408  nElectrons: 102.000000
	SubspaceRotationAdjust: set factor to 0.142
ElecMinimize: Iter:   1  F: -83.339472257259743  |grad|_K:  8.378e-06  alpha:  1.403e+00  linmin: -6.687e-04  t[s]:   9023.92
	FillingsUpdate:  mu: +0.296246618  nElectrons: 102.000000
	SubspaceRotationAdjust: set factor to 0.0744
ElecMinimize: Iter:   2  F: -83.345092719902269  |grad|_K:  3.151e-06  alpha:  1.089e+00  linmin:  7.248e-06  t[s]:   9120.82
	FillingsUpdate:  mu: +0.296143138  nElectrons: 102.000000
	SubspaceRotationAdjust: set factor to 0.127
ElecMinimize: Iter:   3  F: -83.346103502633582  |grad|_K:  1.161e-06  alpha:  1.392e+00  linmin: -1.501e-04  t[s]:   9218.27
	FillingsUpdate:  mu: +0.296156465  nElectrons: 102.000000
	SubspaceRotationAdjust: set factor to 0.117
ElecMinimize: Iter:   4  F: -83.346289605658342  |grad|_K:  9.272e-07  alpha:  1.885e+00  linmin:  4.924e-05  t[s]:   9315.17
	FillingsUpdate:  mu: +0.296139111  nElectrons: 102.000000
	SubspaceRotationAdjust: set factor to 0.159
ElecMinimize: Iter:   5  F: -83.346431004238227  |grad|_K:  7.059e-07  alpha:  2.250e+00  linmin: -3.815e-05  t[s]:   9411.40
	FillingsUpdate:  mu: +0.296159670  nElectrons: 102.000000
	SubspaceRotationAdjust: set factor to 0.173
ElecMinimize: Iter:   6  F: -83.346504371199188  |grad|_K:  4.403e-07  alpha:  2.010e+00  linmin:  3.035e-06  t[s]:   9508.78
	FillingsUpdate:  mu: +0.296151536  nElectrons: 102.000000
	SubspaceRotationAdjust: set factor to 0.12
ElecMinimize: Iter:   7  F: -83.346523692852600  |grad|_K:  1.963e-07  alpha:  1.363e+00  linmin:  3.387e-07  t[s]:   9605.59
	FillingsUpdate:  mu: +0.296151257  nElectrons: 102.000000
	SubspaceRotationAdjust: set factor to 0.132
ElecMinimize: Iter:   8  F: -83.346527298688216  |grad|_K:  7.914e-08  alpha:  1.279e+00  linmin:  2.876e-06  t[s]:   9702.61
	FillingsUpdate:  mu: +0.296153814  nElectrons: 102.000000
	SubspaceRotationAdjust: set factor to 0.146
ElecMinimize: Iter:   9  F: -83.346528084211940  |grad|_K:  4.464e-08  alpha:  1.715e+00  linmin:  1.905e-06  t[s]:   9799.79
	FillingsUpdate:  mu: +0.296152198  nElectrons: 102.000000
	SubspaceRotationAdjust: set factor to 0.17
ElecMinimize: Iter:  10  F: -83.346528287144722  |grad|_K:  2.339e-08  alpha:  1.393e+00  linmin: -5.200e-07  t[s]:   9896.78
	FillingsUpdate:  mu: +0.296152142  nElectrons: 102.000000
	SubspaceRotationAdjust: set factor to 0.24
ElecMinimize: Iter:  11  F: -83.346528366087412  |grad|_K:  1.572e-08  alpha:  1.973e+00  linmin: -6.648e-07  t[s]:   9993.81
	FillingsUpdate:  mu: +0.296152562  nElectrons: 102.000000
	SubspaceRotationAdjust: set factor to 0.236
ElecMinimize: Iter:  12  F: -83.346528399528367  |grad|_K:  1.101e-08  alpha:  1.849e+00  linmin:  1.263e-06  t[s]:  10091.30
	FillingsUpdate:  mu: +0.296152180  nElectrons: 102.000000
	SubspaceRotationAdjust: set factor to 0.177
ElecMinimize: Iter:  13  F: -83.346528409269908  |grad|_K:  6.295e-09  alpha:  1.099e+00  linmin: -2.326e-06  t[s]:  10187.97
	FillingsUpdate:  mu: +0.296152332  nElectrons: 102.000000
	SubspaceRotationAdjust: set factor to 0.181
ElecMinimize: Iter:  14  F: -83.346528412796587  |grad|_K:  3.056e-09  alpha:  1.207e+00  linmin: -6.246e-06  t[s]:  10284.34
ElecMinimize: Converged (|Delta F|<1.000000e-08 for 2 iters).
Setting wave functions to eigenvectors of Hamiltonian

# Ionic positions in cartesian coordinates:
ion Al   0.036447427666604   0.033490844906193   0.033528469830517 1
ion Al  -0.188187130824381   3.815082722146827   3.819738193185527 1
ion Al   3.818194329438382  -0.191389735757016   3.815922281384410 1
ion Al   3.827097581984215   3.819555435674579  -0.192354162457827 1
ion Al   0.027657136970309   0.023794454116693   7.622543329006265 1
ion Al  -0.055754249666671   3.822985911054415  11.473435210838147 1
ion Al   3.828478942951481  -0.056911943123181  11.472983289886967 1
ion Al   3.826435075878813   3.819249712740438   7.828204099887887 1
ion Al   0.026288741606717   7.623663202875706   0.027524565550849 1
ion Al  -0.053570265216547  11.474173945802800   3.826896880601076 1
ion Al   3.822283997390130   7.828801272271039   3.818035711226827 1
ion Al   3.833136189473580  11.473172563135098  -0.057483012311293 1
ion Al   0.015443484687167   7.632602803637869   7.629689752548940 1
ion Al  -0.022868880730665  11.483145495287074  11.480390479169790 1
ion Al   3.802725289329042   7.707710459240515  11.472399764874449 1
ion Al   3.832564803971212  11.473460581264909   7.706969266331570 1
ion Al   7.626213712263509   0.022433865974107   0.023425247202588 1
ion Al   7.832401826327261   3.821525243541635   3.819092534241955 1
ion Al  11.472233300670451  -0.056522063739171   3.822946131084078 1
ion Al  11.476513074333532   3.827166175160368  -0.057390879428359 1
ion Al   7.635831028806078   0.014924147466973   7.633575505581559 1
ion Al   7.707747897517179   3.829469551349035  11.472604301446856 1
ion Al  11.487118907574132  -0.023314692853022  11.480200928662349 1
ion Al  11.476504080458463   3.826151824428655   7.706340941165891 1
ion Al   7.633659212239969   7.633386631631292   0.011279704910712 1
ion Al   7.710085691703318  11.472405573636815   3.829507696987003 1
ion Al  11.478765788932256   7.707003291062431   3.824899705889513 1
ion Al  11.485215235749763  11.480459474927406  -0.024113980937651 1
ion Al   7.644803989041780   7.643746646236421   7.646671438859879 1
ion Al   7.676179167241392  11.477916813951541  11.480754670983123 1
ion Al  11.482240322583127   7.672390542802739  11.480509864158797 1
ion Al  11.485559946317339  11.481705025330058   7.671791935044816 1
ion O   3.930523343331069   3.933533223818771   3.936449134592798 1

# Forces in Cartesian coordinates:
force Al   0.000076743117857   0.000042650193003   0.000011924987213 1
force Al   0.000689638864740  -0.000131731167477  -0.000284801739206 1
force Al   0.000003485213732   0.000610877241325  -0.000138091218562 1
force Al  -0.000407731032258  -0.000242270045176   0.000587359414216 1
force Al  -0.000087397088950  -0.000092607628199  -0.000091227614160 1
force Al   0.000864207524046   0.000047670040451  -0.000190714794699 1
force Al   0.000008916970473   0.000793397594395  -0.000181332195644 1
force Al  -0.000396849555272  -0.000231491579946  -0.001123334738298 1
force Al  -0.000136735021858  -0.000140283328153  -0.000134168856246 1
force Al   0.000804815543734  -0.000182522405788  -0.000075508288729 1
force Al  -0.000205174059208  -0.001160499354841  -0.000206233374434 1
force Al  -0.000196860300721  -0.000171043160629   0.000794350967512 1
force Al  -0.000448860360824   0.000141704658794   0.000162376313346 1
force Al   0.000750623460989  -0.000033093723748  -0.000019824837747 1
force Al   0.000899443944872  -0.000964998755656  -0.000256482168054 1
force Al  -0.000179405098139  -0.000240369948375  -0.000962204776677 1
force Al  -0.000081096000290   0.000015681948832  -0.000070926434519 1
force Al  -0.001195735660466  -0.000264211432406  -0.000267933147765 1
force Al  -0.000043492879486   0.000780662192017   0.000071998881032 1
force Al  -0.000200466969908  -0.000066091155029   0.000801777524954 1
force Al   0.000147518912055  -0.000390755035507   0.000086354144069 1
force Al  -0.000881186294826  -0.000126028192123  -0.000236028305590 1
force Al  -0.000315773458616   0.000759439053988  -0.000027172182251 1
force Al  -0.000277739672588  -0.000042959894616  -0.000935726085020 1
force Al   0.000091357614816   0.000102072925908  -0.000324157358266 1
force Al  -0.000945172299161  -0.000245374557441  -0.000164742083712 1
force Al  -0.000441605610734  -0.000948888101667   0.000003085173599 1
force Al  -0.000110244029495  -0.000034988130413   0.000768231225547 1
force Al   0.000483532340024   0.000488679191869   0.000453456655000 1
force Al  -0.001037014372160   0.000033710110599  -0.000020844090411 1
force Al   0.000083353292211  -0.000934148652966  -0.000012368659010 1
force Al  -0.000078033619528  -0.000017341017811  -0.000928371000226 1
force O   0.002774621204547   0.002874867024782   0.002943967885717 1

# Energy components:
   Eewald =      -93.2622841227418320
       EH =       10.0158080741826918
     Eloc =      -20.0950461260518907
      Enl =       16.9031261608622572
      Exc =      -72.4083193486081313
 Exc_core =       40.1356199265998228
       KE =       35.3804378692235559
-------------------------------------
     Etot =      -83.3306575665335458
       TS =        0.0158708462630412
-------------------------------------
        F =      -83.3465284127965873

IonicMinimize: Iter:   5  F: -83.346528412796587  |grad|_K:  6.926e-04  alpha:  3.000e+00  linmin: -2.249e-01  t[s]:  10301.47

#--- Lowdin population analysis ---
# oxidation-state Al +0.017 +0.192 +0.191 +0.190 +0.012 +0.047 +0.047 +0.229 +0.012 +0.047 +0.228 +0.047 +0.008 +0.052 +0.052 +0.052 +0.013 +0.227 +0.047 +0.047 +0.008 +0.052 +0.052 +0.052 +0.008 +0.052 +0.052 +0.052 +0.004 +0.053 +0.053 +0.053
# oxidation-state O -0.773


-------- Electronic minimization -----------
	FillingsUpdate:  mu: +0.296583030  nElectrons: 102.000000
ElecMinimize: Iter:   0  F: -83.260005015206218  |grad|_K:  2.726e-05  alpha:  1.000e+00
	FillingsUpdate:  mu: +0.295974786  nElectrons: 102.000000
	SubspaceRotationAdjust: set factor to 0.139
ElecMinimize: Iter:   1  F: -83.336533331815446  |grad|_K:  9.850e-06  alpha:  1.405e+00  linmin: -9.515e-04  t[s]:  10477.91
	FillingsUpdate:  mu: +0.296229261  nElectrons: 102.000000
	SubspaceRotationAdjust: set factor to 0.0732
ElecMinimize: Iter:   2  F: -83.344743535942797  |grad|_K:  3.638e-06  alpha:  1.149e+00  linmin: -4.088e-06  t[s]:  10575.91
	FillingsUpdate:  mu: +0.296112560  nElectrons: 102.000000
	SubspaceRotationAdjust: set factor to 0.12
ElecMinimize: Iter:   3  F: -83.346128092637372  |grad|_K:  1.369e-06  alpha:  1.430e+00  linmin: -1.351e-04  t[s]:  10675.38
	FillingsUpdate:  mu: +0.296132884  nElectrons: 102.000000
	SubspaceRotationAdjust: set factor to 0.115
ElecMinimize: Iter:   4  F: -83.346404775996575  |grad|_K:  1.153e-06  alpha:  2.016e+00  linmin:  5.725e-05  t[s]:  10773.66
	FillingsUpdate:  mu: +0.296111973  nElectrons: 102.000000
	SubspaceRotationAdjust: set factor to 0.149
ElecMinimize: Iter:   5  F: -83.346618962154594  |grad|_K:  8.751e-07  alpha:  2.206e+00  linmin: -4.529e-05  t[s]:  10871.50
	FillingsUpdate:  mu: +0.296136921  nElectrons: 102.000000
	SubspaceRotationAdjust: set factor to 0.168
ElecMinimize: Iter:   6  F: -83.346732520503409  |grad|_K:  5.421e-07  alpha:  2.024e+00  linmin: -1.382e-06  t[s]:  10969.69
	FillingsUpdate:  mu: +0.296127866  nElectrons: 102.000000
	SubspaceRotationAdjust: set factor to 0.124
ElecMinimize: Iter:   7  F: -83.346761876724713  |grad|_K:  2.359e-07  alpha:  1.366e+00  linmin:  6.477e-07  t[s]:  11066.67
	FillingsUpdate:  mu: +0.296126019  nElectrons: 102.000000
	SubspaceRotationAdjust: set factor to 0.143
ElecMinimize: Iter:   8  F: -83.346767147186554  |grad|_K:  1.008e-07  alpha:  1.295e+00  linmin:  5.533e-06  t[s]:  11164.77
	FillingsUpdate:  mu: +0.296129825  nElectrons: 102.000000
	SubspaceRotationAdjust: set factor to 0.147
ElecMinimize: Iter:   9  F: -83.346768376456211  |grad|_K:  5.788e-08  alpha:  1.654e+00  linmin: -2.072e-07  t[s]:  11263.61
	FillingsUpdate:  mu: +0.296127640  nElectrons: 102.000000
	SubspaceRotationAdjust: set factor to 0.181
ElecMinimize: Iter:  10  F: -83.346768702204301  |grad|_K:  2.876e-08  alpha:  1.329e+00  linmin: -9.372e-08  t[s]:  11362.86
	FillingsUpdate:  mu: +0.296127394  nElectrons: 102.000000
	SubspaceRotationAdjust: set factor to 0.246
ElecMinimize: Iter:  11  F: -83.346768820664991  |grad|_K:  1.879e-08  alpha:  1.958e+00  linmin:  1.464e-06  t[s]:  11459.23
	FillingsUpdate:  mu: +0.296128107  nElectrons: 102.000000
	SubspaceRotationAdjust: set factor to 0.221
ElecMinimize: Iter:  12  F: -83.346768866192903  |grad|_K:  1.375e-08  alpha:  1.763e+00  linmin:  2.334e-06  t[s]:  11558.57
	FillingsUpdate:  mu: +0.296127516  nElectrons: 102.000000
	SubspaceRotationAdjust: set factor to 0.163
ElecMinimize: Iter:  13  F: -83.346768879898846  |grad|_K:  7.328e-09  alpha:  9.922e-01  linmin: -6.402e-07  t[s]:  11657.73
	FillingsUpdate:  mu: +0.296127668  nElectrons: 102.000000
	SubspaceRotationAdjust: set factor to 0.215
ElecMinimize: Iter:  14  F: -83.346768885205293  |grad|_K:  3.442e-09  alpha:  1.345e+00  linmin: -1.950e-05  t[s]:  11756.63
	FillingsUpdate:  mu: +0.296127692  nElectrons: 102.000000
	SubspaceRotationAdjust: set factor to 0.233
ElecMinimize: Iter:  15  F: -83.346768886522852  |grad|_K:  1.951e-09  alpha:  1.514e+00  linmin:  3.389e-05  t[s]:  11853.29
ElecMinimize: Converged (|Delta F|<1.000000e-08 for 2 iters).
Setting wave functions to eigenvectors of Hamiltonian
IonicMinimize: 	Wolfe criterion not satisfied: alpha: 0.0121665  (E-E0)/|gdotd0|: -0.0127776  gdotd/gdotd0: 1.05095 (taking cubic step)

-------- Electronic minimization -----------
	FillingsUpdate:  mu: +0.297582623  nElectrons: 102.000000
ElecMinimize: Iter:   0  F: -82.993679600297071  |grad|_K:  5.715e-05  alpha:  1.000e+00
	FillingsUpdate:  mu: +0.295799835  nElectrons: 102.000000
	SubspaceRotationAdjust: set factor to 0.168
ElecMinimize: Iter:   1  F: -83.297563818090140  |grad|_K:  2.409e-05  alpha:  1.267e+00  linmin: -1.834e-03  t[s]:  12043.34
	FillingsUpdate:  mu: +0.296391942  nElectrons: 102.000000
	SubspaceRotationAdjust: set factor to 0.0885
ElecMinimize: Iter:   2  F: -83.335597110590584  |grad|_K:  9.898e-06  alpha:  8.810e-01  linmin: -8.588e-05  t[s]:  12142.43
	FillingsUpdate:  mu: +0.296058035  nElectrons: 102.000000
	SubspaceRotationAdjust: set factor to 0.127
ElecMinimize: Iter:   3  F: -83.344822353360726  |grad|_K:  3.258e-06  alpha:  1.283e+00  linmin: -5.719e-04  t[s]:  12238.41
	FillingsUpdate:  mu: +0.296074648  nElectrons: 102.000000
	SubspaceRotationAdjust: set factor to 0.138
ElecMinimize: Iter:   4  F: -83.346052619441778  |grad|_K:  2.043e-06  alpha:  1.578e+00  linmin:  1.584e-04  t[s]:  12334.43
	FillingsUpdate:  mu: +0.296025805  nElectrons: 102.000000
	SubspaceRotationAdjust: set factor to 0.178
ElecMinimize: Iter:   5  F: -83.346741963161804  |grad|_K:  1.540e-06  alpha:  2.260e+00  linmin: -1.696e-04  t[s]:  12431.53
	FillingsUpdate:  mu: +0.296099683  nElectrons: 102.000000
	SubspaceRotationAdjust: set factor to 0.167
ElecMinimize: Iter:   6  F: -83.347066860156559  |grad|_K:  1.047e-06  alpha:  1.865e+00  linmin:  1.114e-06  t[s]:  12528.90
	FillingsUpdate:  mu: +0.296065139  nElectrons: 102.000000
	SubspaceRotationAdjust: set factor to 0.116
ElecMinimize: Iter:   7  F: -83.347177919580744  |grad|_K:  4.727e-07  alpha:  1.387e+00  linmin: -1.771e-06  t[s]:  12625.10
	FillingsUpdate:  mu: +0.296072273  nElectrons: 102.000000
	SubspaceRotationAdjust: set factor to 0.147
ElecMinimize: Iter:   8  F: -83.347202268879101  |grad|_K:  1.814e-07  alpha:  1.490e+00  linmin:  9.172e-06  t[s]:  12721.18
	FillingsUpdate:  mu: +0.296074955  nElectrons: 102.000000
	SubspaceRotationAdjust: set factor to 0.173
ElecMinimize: Iter:   9  F: -83.347206337749583  |grad|_K:  1.081e-07  alpha:  1.691e+00  linmin:  1.569e-06  t[s]:  12816.64
	FillingsUpdate:  mu: +0.296070129  nElectrons: 102.000000
	SubspaceRotationAdjust: set factor to 0.211
ElecMinimize: Iter:  10  F: -83.347207513111968  |grad|_K:  5.939e-08  alpha:  1.374e+00  linmin:  2.602e-06  t[s]:  12913.15
	FillingsUpdate:  mu: +0.296071405  nElectrons: 102.000000
	SubspaceRotationAdjust: set factor to 0.28
ElecMinimize: Iter:  11  F: -83.347207928888054  |grad|_K:  3.218e-08  alpha:  1.612e+00  linmin:  2.791e-07  t[s]:  13010.16
	FillingsUpdate:  mu: +0.296070538  nElectrons: 102.000000
	SubspaceRotationAdjust: set factor to 0.323
ElecMinimize: Iter:  12  F: -83.347208049095485  |grad|_K:  2.015e-08  alpha:  1.587e+00  linmin:  3.102e-06  t[s]:  13107.41
	FillingsUpdate:  mu: +0.296071127  nElectrons: 102.000000
	SubspaceRotationAdjust: set factor to 0.263
ElecMinimize: Iter:  13  F: -83.347208087934902  |grad|_K:  1.275e-08  alpha:  1.308e+00  linmin: -1.528e-06  t[s]:  13203.67
	FillingsUpdate:  mu: +0.296070596  nElectrons: 102.000000
	SubspaceRotationAdjust: set factor to 0.178
ElecMinimize: Iter:  14  F: -83.347208097232965  |grad|_K:  7.410e-09  alpha:  7.823e-01  linmin: -2.573e-06  t[s]:  13299.76
	FillingsUpdate:  mu: +0.296070809  nElectrons: 102.000000
	SubspaceRotationAdjust: set factor to 0.241
ElecMinimize: Iter:  15  F: -83.347208102345860  |grad|_K:  3.178e-09  alpha:  1.283e+00  linmin:  2.406e-05  t[s]:  13396.77
ElecMinimize: Converged (|Delta F|<1.000000e-08 for 2 iters).
Setting wave functions to eigenvectors of Hamiltonian

# Ionic positions in cartesian coordinates:
ion Al   0.068356554460022   0.056767541800608   0.054957706003460 1
ion Al  -0.228935591429469   3.786900122255171   3.807730478563153 1
ion Al   3.805410014226888  -0.241536868268229   3.790461128180280 1
ion Al   3.829838565324033   3.806784899481438  -0.244039158586867 1
ion Al   0.045424020307236   0.030803563772949   7.598378921785398 1
ion Al  -0.107950256475184   3.805513536213992  11.460020277957115 1
[...]
ion Al  11.438718040617418   7.584179184937060   3.771121157149505 1
ion Al  11.431762687193318  11.420224791742569  -0.053654579076206 1
ion Al   7.756146493207835   7.754313570423875   7.751303714968225 1
ion Al   7.591622410040756  11.447254977980643  11.452013624779921 1
ion Al  11.452612696751729   7.588023538225976  11.455468815690441 1
ion Al  11.462988067746931  11.460125758622974   7.584384863040466 1
ion O   5.675344564371936   5.687813328206383   5.691298667540925 1

# Forces in Cartesian coordinates:
force Al  -0.000157750820655  -0.000034469922348   0.000028509561595 1
force Al  -0.000192255767579  -0.000084429374246  -0.000058681590710 1
force Al  -0.000245465025547   0.000078735211756  -0.000014354224188 1
force Al   0.000063155612111   0.000022694546124   0.000266800510240 1
force Al  -0.000125648162086   0.000027314612201   0.000089934728399 1
force Al   0.000217004764619   0.000083022032492   0.000041251628990 1
force Al  -0.000167482218450   0.000042491461308   0.000030314110088 1
force Al  -0.000149449496242  -0.000341546763132  -0.000219762027832 1
force Al   0.000220791215180   0.000111092779350   0.000082045115098 1
force Al  -0.000129085511716   0.000098063665921   0.000033845327085 1
force Al  -0.000093871798056   0.000357830788611  -0.000090126707189 1
force Al  -0.000019908462345   0.000010816019221  -0.000154509518251 1
force Al   0.000184479440967  -0.000071884631017   0.000043853751633 1
force Al  -0.000160270664563  -0.000178129690116  -0.000020095155360 1
force Al   0.000290885992913   0.000017295706477  -0.000026999888089 1
force Al  -0.000057024766271  -0.000064237662052   0.000223432663608 1
force Al  -0.000209020639132   0.000149096186689   0.000122258948534 1
force Al   0.000336138416696   0.000320857105946   0.000204587524483 1
force Al  -0.000123106379262  -0.000249951703453   0.000041245103264 1
force Al   0.000221013086963   0.000068097067813  -0.000378342847681 1
force Al  -0.000162033298153   0.000041423490116   0.000001306710463 1
force Al   0.000061882436546  -0.000095013868659  -0.000109635037920 1
force Al   0.000029016169561  -0.000149685924134   0.000073952325469 1
force Al   0.000025944847146   0.000037406327819   0.000321698837451 1
force Al   0.000116157088574   0.000005273351036   0.000047603415244 1
force Al  -0.000064026139141   0.000007612960463   0.000002766019866 1
force Al   0.000107916118497   0.000278070307243   0.000056569024834 1
force Al  -0.000129111469322   0.000006344619357  -0.000177252167619 1
force Al  -0.000052677982304  -0.000044501721241  -0.000072365227475 1
force Al   0.000142384017579  -0.000014988884006  -0.000085737717713 1
force Al  -0.000071150505155   0.000171812360703  -0.000145065737682 1
force Al  -0.000158047082051  -0.000188014929894   0.000228719046009 1
force O   0.000605340958390  -0.000240716554825  -0.000249840335373 1

# Energy components:
   Eewald =      -93.0613694809305088
       EH =       10.1282100656794789
     Eloc =      -20.5583568928127960
      Enl =       16.9397501000911355
      Exc =      -72.4692003723026801
 Exc_core =       40.1356364937430925
       KE =       35.5049664953296400
-------------------------------------
     Etot =      -83.3803635912026380
       TS =        0.0170022796216694
-------------------------------------
        F =      -83.3973658708243022

IonicMinimize: Iter:  26  F: -83.397365870824302  |grad|_K:  1.644e-04  alpha:  1.000e+00  linmin: -1.429e-01  t[s]:  49589.95

#--- Lowdin population analysis ---
# oxidation-state Al +0.038 +0.022 +0.022 +0.022 +0.055 +0.055 +0.055 +0.288 +0.055 +0.055 +0.289 +0.055 +0.023 +0.038 +0.022 +0.022 +0.055 +0.287 +0.055 +0.056 +0.022 +0.022 +0.038 +0.022 +0.022 +0.022 +0.022 +0.038 +0.287 +0.055 +0.055 +0.055
# oxidation-state O -0.790


-------- Electronic minimization -----------
	FillingsUpdate:  mu: +0.296680974  nElectrons: 102.000000
ElecMinimize: Iter:   0  F: -83.397330092789375  |grad|_K:  6.896e-07  alpha:  1.000e+00
	FillingsUpdate:  mu: +0.296669910  nElectrons: 102.000000
	SubspaceRotationAdjust: set factor to 0.141
ElecMinimize: Iter:   1  F: -83.397379475042925  |grad|_K:  3.833e-07  alpha:  1.420e+00  linmin: -2.723e-05  t[s]:  49769.80
	FillingsUpdate:  mu: +0.296674069  nElectrons: 102.000000
	SubspaceRotationAdjust: set factor to 0.105
ElecMinimize: Iter:   2  F: -83.397389646189140  |grad|_K:  1.385e-07  alpha:  9.466e-01  linmin: -1.035e-07  t[s]:  49868.01
	FillingsUpdate:  mu: +0.296675007  nElectrons: 102.000000
	SubspaceRotationAdjust: set factor to 0.169
ElecMinimize: Iter:   3  F: -83.397392568474089  |grad|_K:  8.198e-08  alpha:  2.082e+00  linmin:  3.167e-08  t[s]:  49965.68
	FillingsUpdate:  mu: +0.296674158  nElectrons: 102.000000
	SubspaceRotationAdjust: set factor to 0.165
ElecMinimize: Iter:   4  F: -83.397393577692753  |grad|_K:  5.471e-08  alpha:  2.054e+00  linmin: -1.860e-06  t[s]:  50063.24
	FillingsUpdate:  mu: +0.296674020  nElectrons: 102.000000
	SubspaceRotationAdjust: set factor to 0.137
ElecMinimize: Iter:   5  F: -83.397393944116104  |grad|_K:  3.092e-08  alpha:  1.674e+00  linmin:  2.471e-07  t[s]:  50160.20
	FillingsUpdate:  mu: +0.296674166  nElectrons: 102.000000
	SubspaceRotationAdjust: set factor to 0.163
ElecMinimize: Iter:   6  F: -83.397394052129613  |grad|_K:  1.164e-08  alpha:  1.545e+00  linmin:  8.796e-06  t[s]:  50257.14
	FillingsUpdate:  mu: +0.296674107  nElectrons: 102.000000
	SubspaceRotationAdjust: set factor to 0.205
ElecMinimize: Iter:   7  F: -83.397394068591538  |grad|_K:  4.956e-09  alpha:  1.659e+00  linmin: -4.935e-05  t[s]:  50355.65
	FillingsUpdate:  mu: +0.296674161  nElectrons: 102.000000
	SubspaceRotationAdjust: set factor to 0.2
ElecMinimize: Iter:   8  F: -83.397394071172798  |grad|_K:  2.542e-09  alpha:  1.438e+00  linmin:  2.282e-05  t[s]:  50452.66
	FillingsUpdate:  mu: +0.296674134  nElectrons: 102.000000
	SubspaceRotationAdjust: set factor to 0.186
ElecMinimize: Iter:   9  F: -83.397394071808947  |grad|_K:  1.363e-09  alpha:  1.359e+00  linmin: -1.148e-04  t[s]:  50549.51
ElecMinimize: Converged (|Delta F|<1.000000e-08 for 2 iters).
Setting wave functions to eigenvectors of Hamiltonian

# Ionic positions in cartesian coordinates:
ion Al  -0.048143920294671  -0.054220572316930  -0.056121113767619 1
ion Al  -0.073709930018248   3.773998346042466   3.774801099445489 1
ion Al   3.781195647413542  -0.080161722120905   3.773071787364905 1
ion Al   3.771081221353398   3.769679980139329  -0.085745231506334 1
ion Al  -0.072418070458317  -0.081698313364798   7.585140154729174 1
ion Al  -0.096036577685643   3.774758657678569  11.451026850200295 1
ion Al   3.786558970969846  -0.087762898772547  11.449445515139434 1
ion Al   3.615040798743193   3.623215276249570   7.766562394038614 1
ion Al  -0.089577851238551   7.585450177545639  -0.087349926634685 1
ion Al  -0.081064214785724  11.448315828668337   3.774297833315135 1
ion Al   3.613139491017837   7.746802120820212   3.612176987934439 1
ion Al   3.781156344935417  11.450929228999549  -0.081645910861675 1
ion Al  -0.082837741977758   7.598253966891470   7.593886036647250 1
ion Al  -0.048294962565755  11.428966048783034  11.421150140096049 1
ion Al   3.765782067222092   7.597956275624001  11.446772637322971 1
ion Al   3.780607795910607  11.445838967267495   7.588273494068342 1
ion Al   7.598164394330595  -0.092030255008770  -0.090293421321528 1
ion Al   7.735320505495092   3.607546529163337   3.616833556705992 1
ion Al  11.461247629944925  -0.082390360559098   3.774666033534347 1
ion Al  11.446631902448532   3.774190223785884  -0.076530685599634 1
ion Al   7.601453797687132  -0.076546767384708   7.594127571772259 1
ion Al   7.597323931065295   3.777009397288970  11.447676149665382 1
ion Al  11.426667673311378  -0.052976845368245  11.418926436845412 1
ion Al  11.443601275759045   3.773901060477956   7.586746841621830 1
ion Al   7.589850253851106   7.592604244076619  -0.076783074789903 1
ion Al   7.603184602902449  11.443980850317260   3.773362771632971 1
ion Al  11.440952691535786   7.588411908477264   3.771950071712003 1
ion Al  11.429379155882508  11.420151044268442  -0.055627137498805 1
ion Al   7.754762601804334   7.753459455973593   7.749290575469681 1
ion Al   7.593142091299952  11.448072288355158  11.450946427254404 1
ion Al  11.451691589062904   7.589732181405254  11.453648769067177 1
ion Al  11.460823137431564  11.457659904012621   7.587139302995352 1
ion O   5.681292697646144   5.683872772583982   5.685146063401292 1

# Forces in Cartesian coordinates:
force Al  -0.000096906066109  -0.000034370539777   0.000005084762759 1
force Al  -0.000027919851579   0.000003223756461  -0.000025258812507 1
force Al  -0.000124519079715   0.000042781662528  -0.000007275501018 1
force Al   0.000069247436403   0.000047678699738   0.000158745283043 1
force Al  -0.000202615476328  -0.000078038833511   0.000053548544265 1
force Al   0.000168122164025   0.000073671624062   0.000076597201563 1
force Al  -0.000096027858681   0.000018373774701   0.000083493147403 1
force Al   0.000164149044719   0.000036912905598  -0.000395119669419 1
force Al   0.000096429884914   0.000073187641470   0.000013623150090 1
force Al  -0.000052988288871   0.000095397852624   0.000047474435843 1
force Al   0.000066077603138   0.000054488878742   0.000090223678098 1
force Al  -0.000004517976737   0.000050081463506  -0.000093725655361 1
force Al   0.000156555629929  -0.000076754351726  -0.000007435679885 1
force Al  -0.000112300519198  -0.000123608071901   0.000012410051342 1
force Al   0.000219374762502  -0.000075963972168  -0.000052254811767 1
force Al  -0.000064361259136  -0.000025325655554   0.000095403580259 1
force Al  -0.000121428400876   0.000113598467127   0.000094351320993 1
force Al   0.000497243951207  -0.000085913802855  -0.000200116962862 1
force Al  -0.000141108198439  -0.000079095839885   0.000044803026305 1
force Al   0.000108862206939   0.000063865501922  -0.000166254319111 1
force Al  -0.000102664642204  -0.000026144563754  -0.000015854157346 1
force Al  -0.000046251099617  -0.000022250259535  -0.000057237328060 1
force Al   0.000004788505885  -0.000101862686902   0.000060629049221 1
force Al   0.000079500981674  -0.000002433069108   0.000158757028922 1
force Al   0.000082933998330  -0.000008145180421  -0.000043795870203 1
force Al  -0.000098881784691   0.000036511669922  -0.000010701319699 1
force Al   0.000128803702552   0.000133502354218   0.000019008112799 1
force Al  -0.000078894169656   0.000030749851079  -0.000092914415921 1
force Al  -0.000061601655123  -0.000059642913977  -0.000016664008109 1
force Al   0.000049027618819   0.000042581189983   0.000001267881171 1
force Al   0.000009779615118   0.000075553798642  -0.000053194712589 1
force Al  -0.000097237671529  -0.000086688835234   0.000113255945439 1
force O  -0.000217855154220   0.000068542447295   0.000239510769867 1

# Energy components:
   Eewald =      -93.0642775229935069
       EH =       10.1257526589085032
     Eloc =      -20.5526423052117693
      Enl =       16.9395954776578037
      Exc =      -72.4690618916237810
 Exc_core =       40.1356363324706678
       KE =       35.5046101195773929
-------------------------------------
     Etot =      -83.3803871312146754
       TS =        0.0170069405942707
-------------------------------------
        F =      -83.3973940718089466

IonicMinimize: Iter:  27  F: -83.397394071808947  |grad|_K:  1.115e-04  alpha:  1.000e+00  linmin: -5.565e-01  t[s]:  50566.69

#--- Lowdin population analysis ---
# oxidation-state Al +0.038 +0.022 +0.022 +0.022 +0.055 +0.055 +0.055 +0.287 +0.055 +0.055 +0.288 +0.055 +0.022 +0.038 +0.022 +0.022 +0.055 +0.289 +0.055 +0.055 +0.022 +0.022 +0.038 +0.022 +0.022 +0.022 +0.022 +0.038 +0.287 +0.055 +0.055 +0.055
# oxidation-state O -0.790


-------- Electronic minimization -----------
	FillingsUpdate:  mu: +0.296686273  nElectrons: 102.000000
ElecMinimize: Iter:   0  F: -83.397252147111615  |grad|_K:  1.058e-06  alpha:  1.000e+00
	FillingsUpdate:  mu: +0.296675563  nElectrons: 102.000000
	SubspaceRotationAdjust: set factor to 0.159
ElecMinimize: Iter:   1  F: -83.397388544674627  |grad|_K:  3.773e-07  alpha:  1.667e+00  linmin: -2.820e-05  t[s]:  50747.76
	FillingsUpdate:  mu: +0.296678941  nElectrons: 102.000000
	SubspaceRotationAdjust: set factor to 0.104
ElecMinimize: Iter:   2  F: -83.397402575146998  |grad|_K:  2.205e-07  alpha:  1.347e+00  linmin:  1.967e-06  t[s]:  50845.02
	FillingsUpdate:  mu: +0.296678774  nElectrons: 102.000000
	SubspaceRotationAdjust: set factor to 0.124
ElecMinimize: Iter:   3  F: -83.397409584376419  |grad|_K:  1.228e-07  alpha:  1.971e+00  linmin: -4.282e-06  t[s]:  50943.05
	FillingsUpdate:  mu: +0.296677889  nElectrons: 102.000000
	SubspaceRotationAdjust: set factor to 0.179
ElecMinimize: Iter:   4  F: -83.397411819210816  |grad|_K:  6.634e-08  alpha:  2.026e+00  linmin: -4.139e-07  t[s]:  51039.49
	FillingsUpdate:  mu: +0.296678001  nElectrons: 102.000000
	SubspaceRotationAdjust: set factor to 0.141
ElecMinimize: Iter:   5  F: -83.397412360979359  |grad|_K:  3.474e-08  alpha:  1.683e+00  linmin: -9.752e-08  t[s]:  51138.10
	FillingsUpdate:  mu: +0.296678087  nElectrons: 102.000000
	SubspaceRotationAdjust: set factor to 0.109
ElecMinimize: Iter:   6  F: -83.397412483123517  |grad|_K:  1.567e-08  alpha:  1.384e+00  linmin:  2.249e-06  t[s]:  51236.61
	FillingsUpdate:  mu: +0.296678042  nElectrons: 102.000000
	SubspaceRotationAdjust: set factor to 0.176
ElecMinimize: Iter:   7  F: -83.397412515836123  |grad|_K:  6.581e-09  alpha:  1.823e+00  linmin:  2.835e-05  t[s]:  51334.28
	FillingsUpdate:  mu: +0.296678080  nElectrons: 102.000000
	SubspaceRotationAdjust: set factor to 0.182
ElecMinimize: Iter:   8  F: -83.397412521332328  |grad|_K:  3.608e-09  alpha:  1.729e+00  linmin: -4.187e-05  t[s]:  51432.02
	FillingsUpdate:  mu: +0.296678054  nElectrons: 102.000000
	SubspaceRotationAdjust: set factor to 0.178
ElecMinimize: Iter:   9  F: -83.397412523237378  |grad|_K:  2.421e-09  alpha:  1.986e+00  linmin: -2.651e-05  t[s]:  51528.76
ElecMinimize: Converged (|Delta F|<1.000000e-08 for 2 iters).
Setting wave functions to eigenvectors of Hamiltonian

# Ionic positions in cartesian coordinates:
ion Al  -0.054315761468499  -0.056603568896394  -0.056788595279544 1
ion Al  -0.080580082351922   3.773419425409029   3.773458964175782 1
ion Al   3.774152081518011  -0.078451895524147   3.773609132934354 1
ion Al   3.772142659470033   3.770614552274077  -0.078107615664033 1
ion Al  -0.079451516333041  -0.083261778529262   7.589105485680432 1
ion Al  -0.086187711755311   3.778938357859988  11.452874877023586 1
ion Al   3.780255443626242  -0.084866287010224  11.451129318362430 1
ion Al   3.615019330142202   3.619178928904749   7.753536102303434 1
ion Al  -0.084461112176812   7.589203780491581  -0.087790383231216 1
ion Al  -0.084358640506923  11.451845923671565   3.775787993282406 1
ion Al   3.614987425705814   7.748984337116383   3.616276619073149 1
ion Al   3.780023464580565  11.452516016376471  -0.084491022446803 1
ion Al  -0.076292567656737   7.595371740257435   7.595714477279018 1
ion Al  -0.049121953437758  11.422201501889113  11.420396122628009 1
ion Al   3.779424819872563   7.593949186403232  11.446470555816267 1
ion Al   3.778266879979065  11.444220638136590   7.591558170186477 1
ion Al   7.592085717383565  -0.086981187693226  -0.086725433422685 1
ion Al   7.752269871918782   3.610123544625652   3.615778429968982 1
ion Al  11.455924732081188  -0.087070239945826   3.776656325410905 1
ion Al  11.451638759457788   3.776396345336833  -0.084685465835653 1
ion Al   7.596507301187179  -0.077626372586244   7.594452781662985 1
ion Al   7.595975657266042   3.772389211573881  11.445379073501870 1
ion Al  11.427158326633609  -0.055120084307136  11.420679289923440 1
ion Al  11.446264827051708   3.774500084646513   7.593846063325917 1
ion Al   7.594446511244178   7.592565125803519  -0.075845879675662 1
ion Al   7.597021159670357  11.445828811952644   3.772667350270792 1
ion Al  11.446938147296024   7.593862533305769   3.773086079268146 1
ion Al  11.424650348928903  11.420331175378392  -0.058118401457663 1
ion Al   7.753886549427052   7.753024140221094   7.746713065911250 1
ion Al   7.593537813269034  11.451382184345896  11.450021210629277 1
ion Al  11.450338574074150   7.590315443470335  11.451109010895069 1
ion Al  11.456815773342910  11.453781350802048   7.589713086651288 1
ion O   5.683006170560047   5.682006074239679   5.679502210848005 1

# Forces in Cartesian coordinates:
force Al   0.000032997329421   0.000031540521585   0.000032407336269 1
force Al   0.000107467841580   0.000015401379845  -0.000011380042451 1
force Al   0.000027615252937  -0.000020259082773  -0.000009318384298 1
force Al   0.000063390107768   0.000059666244430  -0.000034504244713 1
force Al  -0.000092954917942  -0.000062306848955  -0.000006759666688 1
force Al   0.000065623468619  -0.000011671734836   0.000008217119603 1
force Al  -0.000002043866377  -0.000022877795110   0.000022620155036 1
force Al   0.000089660975262  -0.000050168744264  -0.000022874371009 1
force Al   0.000034198940578   0.000016310201779   0.000047118564234 1
force Al   0.000076904953439  -0.000015005443086   0.000032712590360 1
force Al  -0.000139700333941   0.000198651156274  -0.000221288284671 1
force Al   0.000006379504595  -0.000034406368480  -0.000007844720428 1
force Al  -0.000013213927661  -0.000019296814894  -0.000048016154761 1
force Al  -0.000066898336571  -0.000004523523951   0.000038528435809 1
force Al  -0.000085464255777  -0.000010107917026  -0.000032369586471 1
force Al  -0.000065371732962   0.000057069881750   0.000036299328580 1
force Al   0.000011156812307  -0.000004860634111  -0.000018920496401 1
force Al  -0.000008076459966   0.000106893058588   0.000005053334779 1
force Al  -0.000040202065420   0.000023274648848   0.000015547359763 1
force Al   0.000043481213617   0.000033993957220  -0.000020817940300 1
force Al  -0.000014609606536  -0.000007089565712  -0.000031379939041 1
force Al  -0.000033568304050   0.000056616734045  -0.000026532895521 1
force Al  -0.000056111365885  -0.000009721980308   0.000033298663353 1
force Al   0.000012675772925  -0.000022607547846  -0.000021398953532 1
force Al   0.000009401966452   0.000000118679867  -0.000073765311823 1
force Al  -0.000020441250378  -0.000011685253758  -0.000009721242047 1
force Al   0.000000041748420  -0.000008043476786   0.000000839518801 1
force Al  -0.000001609757663   0.000045351524451   0.000034117890567 1
force Al  -0.000065880225477  -0.000137280763201  -0.000012985423287 1
force Al  -0.000033382096998   0.000044262821772   0.000077271339749 1
force Al   0.000110440775307  -0.000000934826634   0.000035429460299 1
force Al  -0.000010559693793   0.000006034635229   0.000002039967143 1
force O   0.000226622180044  -0.000063413246883   0.000320142089517 1

# Energy components:
   Eewald =      -93.0635431613164741
       EH =       10.1263494933378162
     Eloc =      -20.5539821547183728
      Enl =       16.9395398771518657
      Exc =      -72.4690684714862670
 Exc_core =       40.1356361449721817
       KE =       35.5046670048306794
-------------------------------------
     Etot =      -83.3804012672285637
       TS =        0.0170112560088143
-------------------------------------
        F =      -83.3974125232373780

IonicMinimize: Iter:  28  F: -83.397412523237378  |grad|_K:  6.676e-05  alpha:  1.000e+00  linmin:  7.875e-02  t[s]:  51546.03
IonicMinimize: Converged (|grad|_K<1.000000e-04).

#--- Lowdin population analysis ---
# oxidation-state Al +0.038 +0.022 +0.022 +0.022 +0.055 +0.055 +0.055 +0.288 +0.055 +0.055 +0.288 +0.055 +0.022 +0.038 +0.022 +0.022 +0.055 +0.288 +0.055 +0.055 +0.022 +0.022 +0.038 +0.022 +0.022 +0.022 +0.022 +0.038 +0.287 +0.055 +0.055 +0.055
# oxidation-state O -0.790


Dumping 'Al32O_oct.Ecomponents' ... done
End date and time: Mon Jan 29 01:45:46 2024  (Duration: 0-14:19:22.14)
Done!
