--------------------------------------------------------------------------
Initialization of PSM library failed.

  Error: PSM is in the finalized state
--------------------------------------------------------------------------

*************** JDFTx 1.7.0  ***************

Start date and time: Sun Jan 28 11:26:31 2024
Executable jdftx with command-line: -i /home/cam559/Valla_project/Al/Al32O_tet.in
Running on hosts (process indices):  node3205.physics.cornell.edu (0-35)
Divided in process groups (process indices):  0 (0)  1 (1)  2 (2)  3 (3)  4 (4)  5 (5)  6 (6)  7 (7)  8 (8)  9 (9)  10 (10)  11 (11)  12 (12)  13 (13)  14 (14)  15 (15)  16 (16)  17 (17)  18 (18)  19 (19)  20 (20)  21 (21)  22 (22)  23 (23)  24 (24)  25 (25)  26 (26)  27 (27)  28 (28)  29 (29)  30 (30)  31 (31)  32 (32)  33 (33)  34 (34)  35 (35)
Resource initialization completed at t[s]:      0.00
Run totals: 36 processes, 36 threads, 0 GPUs


Input parsed successfully to the following command list (including defaults):

basis kpoint-dependent
coords-type Cartesian
core-overlap-check vector
coulomb-interaction Periodic
davidson-band-ratio 1.1
dump End Ecomponents
dump-name Al32O_tet.$VAR
elec-cutoff 20 100
elec-eigen-algo Davidson
elec-ex-corr gga-PBE
elec-smearing Fermi 0.004
electronic-minimize  \
	dirUpdateScheme      FletcherReeves \
	linminMethod         DirUpdateRecommended \
	nIterations          100 \
	history              15 \
	knormThreshold       0 \
	energyDiffThreshold  1e-08 \
	nEnergyDiff          2 \
	alphaTstart          1 \
	alphaTmin            1e-10 \
	updateTestStepSize   yes \
	alphaTreduceFactor   0.1 \
	alphaTincreaseFactor 3 \
	nAlphaAdjustMax      3 \
	wolfeEnergy          0.0001 \
	wolfeGradient        0.9 \
	fdTest               no
exchange-regularization WignerSeitzTruncated
fluid None
fluid-ex-corr lda-TF lda-PZ
fluid-gummel-loop 10 1.000000e-05
fluid-minimize  \
	dirUpdateScheme      PolakRibiere \
	linminMethod         DirUpdateRecommended \
	nIterations          100 \
	history              15 \
	knormThreshold       0 \
	energyDiffThreshold  0 \
	nEnergyDiff          2 \
	alphaTstart          1 \
	alphaTmin            1e-10 \
	updateTestStepSize   yes \
	alphaTreduceFactor   0.1 \
	alphaTincreaseFactor 3 \
	nAlphaAdjustMax      3 \
	wolfeEnergy          0.0001 \
	wolfeGradient        0.9 \
	fdTest               no
fluid-solvent H2O 55.338 ScalarEOS \
	epsBulk 78.4 \
	pMol 0.92466 \
	epsInf 1.77 \
	Pvap 1.06736e-10 \
	sigmaBulk 4.62e-05 \
	Rvdw 2.61727 \
	Res 1.42 \
	tauNuc 343133 \
	poleEl 15 7 1
forces-output-coords Positions
initial-state Al32O_tet.$VAR
ion Al   0.001000000000000   0.000000000000000   0.000000000000000 1
ion Al   0.000000000000000   3.836695000000000   3.826695000000000 1
ion Al   3.826695000000000   0.000000000000000   3.836695000000000 1
ion Al   3.826695000000000   3.826695000000000   0.000000000000000 1
ion Al   0.000000000000000   0.000000000000000   7.653391000000000 1
ion Al   0.000000000000000   3.826695000000000  11.480086000000000 1
ion Al   3.826695000000000   0.000000000000000  11.480086000000000 1
ion Al   3.826695000000000   3.826695000000000   7.653391000000000 1
ion Al   0.000000000000000   7.653391000000000   0.000000000000000 1
ion Al   0.000000000000000  11.480086000000000   3.826695000000000 1
ion Al   3.826695000000000   7.653391000000000   3.826695000000000 1
ion Al   3.826695000000000  11.480086000000000   0.000000000000000 1
ion Al   0.000000000000000   7.653391000000000   7.653391000000000 1
ion Al   0.000000000000000  11.480086000000000  11.480086000000000 1
ion Al   3.926695000000000   7.653391000000000  11.480086000000000 1
ion Al   3.826695000000000  11.480086000000000   7.653391000000000 1
ion Al   7.653391000000000   0.010000000000000   0.000000000000000 1
ion Al   7.653391000000000   3.826695000000000   3.826695000000000 1
ion Al  11.480086000000000   0.000000000000000   3.836695000000000 1
ion Al  11.480086000000000   3.826695000000000   0.000000000000000 1
ion Al   7.653391000000000   0.000000000000000   7.653391000000000 1
ion Al   7.653391000000000   3.826695000000000  11.480086000000000 1
ion Al  11.480086000000000   0.000000000000000  11.480086000000000 1
ion Al  11.480086000000000   3.826695000000000   7.653391000000000 1
ion Al   7.653391000000000   7.653391000000000   0.000000000000000 1
ion Al   7.653391000000000  11.480086000000000   3.816695000000000 1
ion Al  11.480086000000000   7.653391000000000   3.826695000000000 1
ion Al  11.480086000000000  11.480086000000000   0.000000000000000 1
ion Al   7.653391000000000   7.653391000000000   7.653391000000000 1
ion Al   7.643391000000000  11.480086000000000  11.480086000000000 1
ion Al  11.480086000000000   7.653391000000000  11.480086000000000 1
ion Al  11.480086000000000  11.480086000000000   7.653391000000000 1
ion O   1.913347500000000   1.913347500000000   1.913347500000000 1
ion-species GBRV/$ID_pbe.uspp
ion-width 0
ionic-minimize  \
	dirUpdateScheme      L-BFGS \
	linminMethod         DirUpdateRecommended \
	nIterations          30 \
	history              15 \
	knormThreshold       0.0001 \
	energyDiffThreshold  1e-06 \
	nEnergyDiff          2 \
	alphaTstart          1 \
	alphaTmin            1e-10 \
	updateTestStepSize   yes \
	alphaTreduceFactor   0.1 \
	alphaTincreaseFactor 3 \
	nAlphaAdjustMax      3 \
	wolfeEnergy          0.0001 \
	wolfeGradient        0.9 \
	fdTest               no
kpoint   0.000000000000   0.000000000000   0.000000000000  1.00000000000000
kpoint-folding 4 4 4 
latt-move-scale 1 1 1
latt-scale 1 1 1 
lattice  \
	  15.306782000000000    0.000000000000000    0.000000000000000  \
	   0.000000000000000   15.306782000000000    0.000000000000000  \
	   0.000000000000000    0.000000000000000   15.306782000000000 
lattice-minimize  \
	dirUpdateScheme      L-BFGS \
	linminMethod         DirUpdateRecommended \
	nIterations          0 \
	history              15 \
	knormThreshold       0 \
	energyDiffThreshold  1e-06 \
	nEnergyDiff          2 \
	alphaTstart          1 \
	alphaTmin            1e-10 \
	updateTestStepSize   yes \
	alphaTreduceFactor   0.1 \
	alphaTincreaseFactor 3 \
	nAlphaAdjustMax      3 \
	wolfeEnergy          0.0001 \
	wolfeGradient        0.9 \
	fdTest               no
lcao-params -1 1e-06 0.004
pcm-variant GLSSA13
spintype no-spin
subspace-rotation-factor 1 yes
symmetries automatic
symmetry-threshold 0.0001



---------- Setting up symmetries ----------

Found 48 point-group symmetries of the bravais lattice
Found 1 space-group symmetries with basis
Applied RMS atom displacement 0 bohrs to make symmetries exact.

---------- Initializing the Grid ----------
R = 
[      15.3068            0            0  ]
[            0      15.3068            0  ]
[            0            0      15.3068  ]
unit cell volume = 3586.34
G =
[   0.410484          0          0  ]
[          0   0.410484          0  ]
[          0          0   0.410484  ]
Minimum fftbox size, Smin = [  72  72  72  ]
Chosen fftbox size, S = [  72  72  72  ]

---------- Initializing tighter grid for wavefunction operations ----------
R = 
[      15.3068            0            0  ]
[            0      15.3068            0  ]
[            0            0      15.3068  ]
unit cell volume = 3586.34
G =
[   0.410484          0          0  ]
[          0   0.410484          0  ]
[          0          0   0.410484  ]
Minimum fftbox size, Smin = [  64  64  64  ]
Chosen fftbox size, S = [  64  64  64  ]

---------- Exchange Correlation functional ----------
Initalized PBE GGA exchange.
Initalized PBE GGA correlation.

---------- Setting up pseudopotentials ----------
Width of ionic core gaussian charges (only for fluid interactions / plotting) set to 0

Reading pseudopotential file '/home/cam559/JDFTx/build/pseudopotentials/GBRV/al_pbe.uspp':
  Title: Al.  Created by USPP 7.3.6 on 14-9-2013
  Reference state energy: -3.216414.  3 valence electrons in orbitals:
    |300>  occupation: 2  eigenvalue: -0.284914
    |310>  occupation: 1  eigenvalue: -0.099667
  lMax: 2  lLocal: 3  QijEcut: 5
  3 projectors sampled on a log grid with 623 points:
    l: 0  eig: -0.284914  rCut: 1.7
    l: 1  eig: -0.099668  rCut: 1.7
    l: 2  eig: 0.500000  rCut: 1.9
  Partial core density with radius 1.45
  Transforming core density to a uniform radial grid of dG=0.02 with 1285 points.
  Transforming local potential to a uniform radial grid of dG=0.02 with 1285 points.
  Transforming nonlocal projectors to a uniform radial grid of dG=0.02 with 432 points.
  Transforming density augmentations to a uniform radial grid of dG=0.02 with 1285 points.
  Transforming atomic orbitals to a uniform radial grid of dG=0.02 with 432 points.
  Core radius for overlap checks: 1.90 bohrs.

Reading pseudopotential file '/home/cam559/JDFTx/build/pseudopotentials/GBRV/o_pbe.uspp':
  Title: O.  Created by USPP 7.3.6 on 3-2-2014
  Reference state energy: -15.894388.  6 valence electrons in orbitals:
    |200>  occupation: 2  eigenvalue: -0.878823
    |210>  occupation: 4  eigenvalue: -0.332131
  lMax: 2  lLocal: 2  QijEcut: 6
  5 projectors sampled on a log grid with 511 points:
    l: 0  eig: -0.878823  rCut: 1.25
    l: 0  eig: 0.000000  rCut: 1.25
    l: 1  eig: -0.332132  rCut: 1.25
    l: 1  eig: 0.000000  rCut: 1.25
    l: 2  eig: 1.000000  rCut: 1.25
  Partial core density with radius 0.7
  Transforming core density to a uniform radial grid of dG=0.02 with 1285 points.
  Transforming local potential to a uniform radial grid of dG=0.02 with 1285 points.
  Transforming nonlocal projectors to a uniform radial grid of dG=0.02 with 432 points.
  Transforming density augmentations to a uniform radial grid of dG=0.02 with 1285 points.
  Transforming atomic orbitals to a uniform radial grid of dG=0.02 with 432 points.
  Core radius for overlap checks: 1.25 bohrs.

Initialized 2 species with 33 total atoms.

Folded 1 k-points by 4x4x4 to 64 k-points.

---------- Setting up k-points, bands, fillings ----------
Adding inversion symmetry to k-mesh for non-inversion-symmetric unit cell.
Reduced to 36 k-points under symmetry. 
Computing the number of bands and number of electrons
Calculating initial fillings.
nElectrons: 102.000000   nBands: 132   nStates: 36

----- Setting up reduced wavefunction bases (one per k-point) -----
average nbasis = 15325.672 , ideal nbasis = 15321.126

---------- Setting up ewald sum ----------
Optimum gaussian width for ewald sums = 3.409638 bohr.
Real space sum over 729 unit cells with max indices [  4  4  4  ]
Reciprocal space sum over 4913 terms with max indices [  8  8  8  ]

---------- Allocating electronic variables ----------
Initializing wave functions:  linear combination of atomic orbitals
Al pseudo-atom occupations:   s ( 2 )  p ( 1 )
O pseudo-atom occupations:   s ( 2 )  p ( 4 )
	FillingsUpdate:  mu: +0.334503880  nElectrons: 102.000000
LCAOMinimize: Iter:   0  F: -81.9986043853718201  |grad|_K:  1.161e-03  alpha:  1.000e+00
	FillingsUpdate:  mu: +0.332440848  nElectrons: 102.000000
LCAOMinimize: Iter:   1  F: -82.1075098173802331  |grad|_K:  7.143e-04  alpha:  1.501e-01  linmin: -4.206e-01  cgtest:  8.822e-01  t[s]:     91.81
LCAOMinimize: Encountered beta<0, resetting CG.
	FillingsUpdate:  mu: +0.331114287  nElectrons: 102.000000
LCAOMinimize: Iter:   2  F: -82.1597905799839054  |grad|_K:  3.310e-04  alpha:  4.091e-01  linmin:  2.592e-01  cgtest: -6.255e-01  t[s]:    118.60
	FillingsUpdate:  mu: +0.331087404  nElectrons: 102.000000
LCAOMinimize: Iter:   3  F: -82.1598889077154269  |grad|_K:  3.276e-04  alpha:  3.772e-02  linmin: -4.675e-04  cgtest:  9.934e-01  t[s]:    145.48
LCAOMinimize: Encountered beta<0, resetting CG.
LCAOMinimize: 	Predicted alpha/alphaT>3.000000, increasing alphaT to 1.131664e-01.
	FillingsUpdate:  mu: +0.331285586  nElectrons: 102.000000
LCAOMinimize: Iter:   4  F: -82.1678904356929110  |grad|_K:  6.956e-05  alpha:  2.311e-01  linmin: -3.372e-02  cgtest:  1.270e-01  t[s]:    178.46
	FillingsUpdate:  mu: +0.331144214  nElectrons: 102.000000
LCAOMinimize: Iter:   5  F: -82.1682609568317019  |grad|_K:  2.438e-05  alpha:  2.380e-01  linmin: -4.279e-04  cgtest: -3.199e-02  t[s]:    205.11
	FillingsUpdate:  mu: +0.331190362  nElectrons: 102.000000
LCAOMinimize: Iter:   6  F: -82.1683495195202482  |grad|_K:  1.222e-05  alpha:  4.687e-01  linmin:  2.514e-03  cgtest: -1.190e-03  t[s]:    232.07
	FillingsUpdate:  mu: +0.331176908  nElectrons: 102.000000
LCAOMinimize: Iter:   7  F: -82.1683658115570097  |grad|_K:  3.526e-06  alpha:  3.437e-01  linmin:  8.555e-05  cgtest:  1.396e-02  t[s]:    258.79
	FillingsUpdate:  mu: +0.331174243  nElectrons: 102.000000
LCAOMinimize: Iter:   8  F: -82.1683672372288072  |grad|_K:  1.392e-06  alpha:  3.603e-01  linmin:  2.429e-05  cgtest: -1.060e-03  t[s]:    285.63
	FillingsUpdate:  mu: +0.331171042  nElectrons: 102.000000
LCAOMinimize: Iter:   9  F: -82.1683674123597001  |grad|_K:  5.723e-07  alpha:  2.841e-01  linmin: -9.574e-06  cgtest:  4.892e-05  t[s]:    312.15
	FillingsUpdate:  mu: +0.331172825  nElectrons: 102.000000
LCAOMinimize: Iter:  10  F: -82.1683674530908803  |grad|_K:  1.650e-07  alpha:  3.906e-01  linmin: -5.638e-05  cgtest:  5.174e-05  t[s]:    338.94
LCAOMinimize: Converged (|Delta F|<1.000000e-06 for 2 iters).


---- Citations for features of the code used in this run ----

   Software package:
      R. Sundararaman, K. Letchworth-Weaver, K.A. Schwarz, D. Gunceler, Y. Ozhabes and T.A. Arias, 'JDFTx: software for joint density-functional theory', SoftwareX 6, 278 (2017)

   gga-PBE exchange-correlation functional:
      J.P. Perdew, K. Burke and M. Ernzerhof, Phys. Rev. Lett. 77, 3865 (1996)

   Pseudopotentials:
      KF Garrity, JW Bennett, KM Rabe and D Vanderbilt, Comput. Mater. Sci. 81, 446 (2014)

   Total energy minimization with Auxiliary Hamiltonian:
      C. Freysoldt, S. Boeck, and J. Neugebauer, Phys. Rev. B 79, 241103(R) (2009)

This list may not be complete. Please suggest additional citations or
report any other bugs at https://github.com/shankar1729/jdftx/issues

Initialization completed successfully at t[s]:    358.57


-------- Electronic minimization -----------
	FillingsUpdate:  mu: +0.331172825  nElectrons: 102.000000
ElecMinimize: Iter:   0  F: -82.168367453090937  |grad|_K:  9.457e-05  alpha:  1.000e+00
	FillingsUpdate:  mu: +0.305372143  nElectrons: 102.000000
	SubspaceRotationAdjust: set factor to 1
ElecMinimize: Iter:   1  F: -83.066647016923426  |grad|_K:  5.303e-05  alpha:  1.371e+00  linmin:  1.033e-02  t[s]:    505.98
	FillingsUpdate:  mu: +0.300699673  nElectrons: 102.000000
	SubspaceRotationAdjust: set factor to 0.729
ElecMinimize: Iter:   2  F: -83.255425045686209  |grad|_K:  4.739e-05  alpha:  9.558e-01  linmin: -3.796e-05  t[s]:    607.22
	FillingsUpdate:  mu: +0.298415653  nElectrons: 102.000000
	SubspaceRotationAdjust: set factor to 0.548
ElecMinimize: Iter:   3  F: -83.323423734028339  |grad|_K:  2.743e-05  alpha:  3.387e-01  linmin: -3.131e-03  t[s]:    707.19
	FillingsUpdate:  mu: +0.298201307  nElectrons: 102.000000
	SubspaceRotationAdjust: set factor to 0.36
ElecMinimize: Iter:   4  F: -83.351713528870462  |grad|_K:  1.380e-05  alpha:  4.386e-01  linmin:  1.173e-03  t[s]:    808.58
	FillingsUpdate:  mu: +0.297569463  nElectrons: 102.000000
	SubspaceRotationAdjust: set factor to 0.431
ElecMinimize: Iter:   5  F: -83.362246698664507  |grad|_K:  8.016e-06  alpha:  8.086e-01  linmin:  1.531e-04  t[s]:    907.91
	FillingsUpdate:  mu: +0.297262494  nElectrons: 102.000000
	SubspaceRotationAdjust: set factor to 0.383
ElecMinimize: Iter:   6  F: -83.365993859764032  |grad|_K:  5.697e-06  alpha:  8.013e-01  linmin:  8.791e-06  t[s]:   1008.33
	FillingsUpdate:  mu: +0.297442126  nElectrons: 102.000000
	SubspaceRotationAdjust: set factor to 0.361
ElecMinimize: Iter:   7  F: -83.367558153640545  |grad|_K:  2.957e-06  alpha:  6.593e-01  linmin:  5.203e-06  t[s]:   1108.72
	FillingsUpdate:  mu: +0.297401325  nElectrons: 102.000000
	SubspaceRotationAdjust: set factor to 0.389
ElecMinimize: Iter:   8  F: -83.368065657907152  |grad|_K:  1.762e-06  alpha:  7.936e-01  linmin:  2.156e-06  t[s]:   1208.85
	FillingsUpdate:  mu: +0.297317679  nElectrons: 102.000000
	SubspaceRotationAdjust: set factor to 0.41
ElecMinimize: Iter:   9  F: -83.368260162873682  |grad|_K:  1.159e-06  alpha:  8.573e-01  linmin:  2.492e-05  t[s]:   1310.17
	FillingsUpdate:  mu: +0.297342124  nElectrons: 102.000000
	SubspaceRotationAdjust: set factor to 0.373
ElecMinimize: Iter:  10  F: -83.368331405435001  |grad|_K:  7.424e-07  alpha:  7.275e-01  linmin: -6.269e-06  t[s]:   1410.31
	FillingsUpdate:  mu: +0.297356220  nElectrons: 102.000000
	SubspaceRotationAdjust: set factor to 0.491
ElecMinimize: Iter:  11  F: -83.368361922519640  |grad|_K:  3.734e-07  alpha:  7.565e-01  linmin:  4.214e-06  t[s]:   1510.47
	FillingsUpdate:  mu: +0.297355171  nElectrons: 102.000000
	SubspaceRotationAdjust: set factor to 0.378
ElecMinimize: Iter:  12  F: -83.368370279995247  |grad|_K:  2.669e-07  alpha:  8.204e-01  linmin:  1.509e-06  t[s]:   1612.02
	FillingsUpdate:  mu: +0.297354961  nElectrons: 102.000000
	SubspaceRotationAdjust: set factor to 0.418
ElecMinimize: Iter:  13  F: -83.368373653636610  |grad|_K:  1.497e-07  alpha:  6.476e-01  linmin:  8.825e-07  t[s]:   1712.14
	FillingsUpdate:  mu: +0.297348390  nElectrons: 102.000000
	SubspaceRotationAdjust: set factor to 0.341
ElecMinimize: Iter:  14  F: -83.368374838371665  |grad|_K:  9.176e-08  alpha:  7.235e-01  linmin:  1.136e-06  t[s]:   1814.13
	FillingsUpdate:  mu: +0.297350089  nElectrons: 102.000000
	SubspaceRotationAdjust: set factor to 0.459
ElecMinimize: Iter:  15  F: -83.368375404773587  |grad|_K:  4.928e-08  alpha:  9.207e-01  linmin:  1.643e-06  t[s]:   1915.33
	FillingsUpdate:  mu: +0.297352379  nElectrons: 102.000000
	SubspaceRotationAdjust: set factor to 0.358
ElecMinimize: Iter:  16  F: -83.368375537709539  |grad|_K:  3.170e-08  alpha:  7.499e-01  linmin:  3.882e-08  t[s]:   2016.91
	FillingsUpdate:  mu: +0.297351132  nElectrons: 102.000000
	SubspaceRotationAdjust: set factor to 0.336
ElecMinimize: Iter:  17  F: -83.368375599068798  |grad|_K:  2.041e-08  alpha:  8.351e-01  linmin:  8.820e-08  t[s]:   2117.29
	FillingsUpdate:  mu: +0.297351160  nElectrons: 102.000000
	SubspaceRotationAdjust: set factor to 0.308
ElecMinimize: Iter:  18  F: -83.368375622848077  |grad|_K:  9.533e-09  alpha:  7.814e-01  linmin:  4.921e-07  t[s]:   2219.11
	FillingsUpdate:  mu: +0.297351260  nElectrons: 102.000000
	SubspaceRotationAdjust: set factor to 0.404
ElecMinimize: Iter:  19  F: -83.368375629843101  |grad|_K:  5.777e-09  alpha:  1.054e+00  linmin:  1.326e-07  t[s]:   2319.00
	FillingsUpdate:  mu: +0.297351230  nElectrons: 102.000000
	SubspaceRotationAdjust: set factor to 0.339
ElecMinimize: Iter:  20  F: -83.368375632095649  |grad|_K:  3.558e-09  alpha:  9.279e-01  linmin:  2.087e-07  t[s]:   2419.82
ElecMinimize: Converged (|Delta F|<1.000000e-08 for 2 iters).
Setting wave functions to eigenvectors of Hamiltonian

# Ionic positions in cartesian coordinates:
ion Al   0.001000000000000   0.000000000000000   0.000000000000000 1
ion Al   0.000000000000000   3.836695000000000   3.826695000000000 1
ion Al   3.826695000000000   0.000000000000000   3.836695000000000 1
ion Al   3.826695000000000   3.826695000000000   0.000000000000000 1
ion Al   0.000000000000000   0.000000000000000   7.653391000000000 1
ion Al   0.000000000000000   3.826695000000000  11.480086000000000 1
ion Al   3.826695000000000   0.000000000000000  11.480086000000000 1
ion Al   3.826695000000000   3.826695000000000   7.653391000000000 1
ion Al   0.000000000000000   7.653391000000000   0.000000000000000 1
ion Al   0.000000000000000  11.480086000000000   3.826695000000000 1
ion Al   3.826695000000000   7.653391000000000   3.826695000000000 1
ion Al   3.826695000000000  11.480086000000000   0.000000000000000 1
ion Al   0.000000000000000   7.653391000000000   7.653391000000000 1
ion Al   0.000000000000000  11.480086000000000  11.480086000000000 1
ion Al   3.926695000000000   7.653391000000000  11.480086000000000 1
ion Al   3.826695000000000  11.480086000000000   7.653391000000000 1
ion Al   7.653391000000000   0.010000000000000   0.000000000000000 1
ion Al   7.653391000000000   3.826695000000000   3.826695000000000 1
ion Al  11.480086000000000   0.000000000000000   3.836695000000000 1
ion Al  11.480086000000000   3.826695000000000   0.000000000000000 1
ion Al   7.653391000000000   0.000000000000000   7.653391000000000 1
ion Al   7.653391000000000   3.826695000000000  11.480086000000000 1
ion Al  11.480086000000000   0.000000000000000  11.480086000000000 1
ion Al  11.480086000000000   3.826695000000000   7.653391000000000 1
ion Al   7.653391000000000   7.653391000000000   0.000000000000000 1
ion Al   7.653391000000000  11.480086000000000   3.816695000000000 1
ion Al  11.480086000000000   7.653391000000000   3.826695000000000 1
ion Al  11.480086000000000  11.480086000000000   0.000000000000000 1
ion Al   7.653391000000000   7.653391000000000   7.653391000000000 1
ion Al   7.643391000000000  11.480086000000000  11.480086000000000 1
ion Al  11.480086000000000   7.653391000000000  11.480086000000000 1
ion Al  11.480086000000000  11.480086000000000   7.653391000000000 1
ion O   1.913347500000000   1.913347500000000   1.913347500000000 1

# Forces in Cartesian coordinates:
force Al  -0.034598761775337  -0.034544138109341  -0.034378566445509 1
force Al  -0.033882641743375   0.033598756350723   0.033865123602667 1
force Al   0.033760454740452  -0.033837650064652   0.033623866779067 1
force Al   0.034256412279373   0.034534807907236  -0.034492434552318 1
force Al   0.000569054869302   0.000639621945943   0.001798899440923 1
force Al   0.001193082867646   0.000038093310356  -0.001724570054651 1
force Al  -0.000681919268266   0.000616603742508  -0.001720353065244 1
force Al  -0.000756787568763  -0.000522423606143   0.001822561435808 1
force Al   0.001205875718734   0.001793313119069  -0.000106918208067 1
force Al   0.000554401920721  -0.001721756770856  -0.000608157553437 1
force Al  -0.000568759049522   0.001802270324177  -0.000568494071637 1
force Al  -0.000817945967857  -0.001654126434268   0.000620787736455 1
force Al   0.001020236671268   0.000419582920416   0.001020872671845 1
force Al   0.000996626242179  -0.000942132679723  -0.000371139387983 1
force Al  -0.005187017397840   0.000250336547559  -0.000318792876300 1
force Al  -0.000597567027637  -0.000407967746750   0.000279861709373 1
force Al   0.001803237647911   0.000170677280457   0.000605990653943 1
force Al   0.001763212644012  -0.000499444201682  -0.000538189205533 1
force Al  -0.001712387443346   0.000632224102386  -0.001042584764856 1
force Al  -0.001707876224049  -0.000607679011914   0.000649507147909 1
force Al   0.000364273532829   0.000360766195253   0.000442095601927 1
force Al   0.001018646820693  -0.001099056438019  -0.000435284502538 1
force Al  -0.000293537413001   0.000348882795306  -0.000316308608672 1
force Al  -0.000325767847686  -0.000391490917356   0.000393518785583 1
force Al   0.001028467217107   0.000317862206466   0.001096201424543 1
force Al   0.000341121460135  -0.000288539141995  -0.000073173906734 1
force Al  -0.000302677450463   0.000421885289025  -0.000425361594584 1
force Al  -0.000389766873742  -0.000202514201522   0.000373173578053 1
force Al   0.000758144294485   0.000133139744146  -0.000722217365232 1
force Al   0.001216648489403   0.000725607308700  -0.000021764574288 1
force Al   0.000145332198164   0.000136763936959  -0.000063599125665 1
force Al  -0.000166594711552  -0.000135157396443   0.000138756397457 1
force O  -0.000004629863773  -0.000097409086724   0.001194115951103 1

# Energy components:
   Eewald =      -91.5076683998439364
       EH =       11.2979352392304619
     Eloc =      -23.4668440301014627
      Enl =       16.9974448972210297
      Exc =      -72.5487837909950883
 Exc_core =       40.1356392846424157
       KE =       35.7411101967216638
-------------------------------------
     Etot =      -83.3511666031248950
       TS =        0.0172090289707500
-------------------------------------
        F =      -83.3683756320956491

IonicMinimize: Iter:   0  F: -83.368375632095649  |grad|_K:  1.192e-02  t[s]:   2438.18

#--- Lowdin population analysis ---
# oxidation-state Al +0.326 +0.324 +0.324 +0.325 +0.019 +0.018 +0.018 +0.018 +0.018 +0.019 +0.018 +0.018 +0.052 +0.052 +0.053 +0.053 +0.018 +0.018 +0.018 +0.018 +0.053 +0.054 +0.053 +0.053 +0.054 +0.053 +0.053 +0.053 +0.041 +0.041 +0.040 +0.040
# oxidation-state O -0.862


-------- Electronic minimization -----------
	FillingsUpdate:  mu: +0.297265106  nElectrons: 102.000000
ElecMinimize: Iter:   0  F: -83.373029414027499  |grad|_K:  1.030e-05  alpha:  1.000e+00
	FillingsUpdate:  mu: +0.297087699  nElectrons: 102.000000
	SubspaceRotationAdjust: set factor to 0.207
ElecMinimize: Iter:   1  F: -83.378632824546415  |grad|_K:  5.204e-06  alpha:  7.210e-01  linmin:  3.433e-05  t[s]:   2618.39
	FillingsUpdate:  mu: +0.297334804  nElectrons: 102.000000
	SubspaceRotationAdjust: set factor to 0.109
ElecMinimize: Iter:   2  F: -83.380100694531379  |grad|_K:  1.898e-06  alpha:  7.417e-01  linmin:  1.029e-04  t[s]:   2719.47
	FillingsUpdate:  mu: +0.297282432  nElectrons: 102.000000
	SubspaceRotationAdjust: set factor to 0.199
ElecMinimize: Iter:   3  F: -83.380373015331898  |grad|_K:  6.865e-07  alpha:  1.035e+00  linmin:  7.851e-06  t[s]:   2820.77
	FillingsUpdate:  mu: +0.297246553  nElectrons: 102.000000
	SubspaceRotationAdjust: set factor to 0.185
ElecMinimize: Iter:   4  F: -83.380413130768005  |grad|_K:  2.973e-07  alpha:  1.164e+00  linmin: -3.142e-05  t[s]:   2921.99
	FillingsUpdate:  mu: +0.297257816  nElectrons: 102.000000
	SubspaceRotationAdjust: set factor to 0.231
ElecMinimize: Iter:   5  F: -83.380424942184618  |grad|_K:  1.866e-07  alpha:  1.826e+00  linmin: -4.693e-06  t[s]:   3023.36
	FillingsUpdate:  mu: +0.297254419  nElectrons: 102.000000
	SubspaceRotationAdjust: set factor to 0.284
ElecMinimize: Iter:   6  F: -83.380429241797600  |grad|_K:  1.170e-07  alpha:  1.687e+00  linmin:  2.025e-06  t[s]:   3123.42
	FillingsUpdate:  mu: +0.297254250  nElectrons: 102.000000
	SubspaceRotationAdjust: set factor to 0.289
ElecMinimize: Iter:   7  F: -83.380430556469889  |grad|_K:  5.072e-08  alpha:  1.315e+00  linmin: -1.640e-07  t[s]:   3225.08
	FillingsUpdate:  mu: +0.297255158  nElectrons: 102.000000
	SubspaceRotationAdjust: set factor to 0.312
ElecMinimize: Iter:   8  F: -83.380430806990361  |grad|_K:  2.483e-08  alpha:  1.332e+00  linmin:  1.896e-07  t[s]:   3326.03
	FillingsUpdate:  mu: +0.297254255  nElectrons: 102.000000
	SubspaceRotationAdjust: set factor to 0.202
ElecMinimize: Iter:   9  F: -83.380430848671381  |grad|_K:  1.541e-08  alpha:  9.251e-01  linmin: -5.617e-08  t[s]:   3427.55
	FillingsUpdate:  mu: +0.297254879  nElectrons: 102.000000
	SubspaceRotationAdjust: set factor to 0.141
ElecMinimize: Iter:  10  F: -83.380430864673841  |grad|_K:  6.205e-09  alpha:  9.201e-01  linmin: -1.880e-08  t[s]:   3527.36
	FillingsUpdate:  mu: +0.297254730  nElectrons: 102.000000
	SubspaceRotationAdjust: set factor to 0.216
ElecMinimize: Iter:  11  F: -83.380430868447036  |grad|_K:  2.705e-09  alpha:  1.323e+00  linmin: -1.838e-06  t[s]:   3627.92
	FillingsUpdate:  mu: +0.297254649  nElectrons: 102.000000
	SubspaceRotationAdjust: set factor to 0.198
ElecMinimize: Iter:  12  F: -83.380430869271777  |grad|_K:  1.528e-09  alpha:  1.481e+00  linmin: -2.248e-06  t[s]:   3728.24
ElecMinimize: Converged (|Delta F|<1.000000e-08 for 2 iters).
Setting wave functions to eigenvectors of Hamiltonian

# Ionic positions in cartesian coordinates:
ion Al  -0.033598779714374  -0.034543826267501  -0.034378488356218 1
ion Al  -0.033882659682412   3.870294068192563   3.860560201691957 1
ion Al   3.860455436801415  -0.033837338222813   3.870318944868358 1
ion Al   3.860951394340336   3.861230119749075  -0.034492356463027 1
ion Al   0.000569036930266   0.000639933787783   7.655189977530214 1
ion Al   0.001193064928610   3.826733405152195  11.478361508034642 1
ion Al   3.826013062792697   0.000616915584348  11.478365725024048 1
ion Al   3.825938194492200   3.826172888235696   7.655213639525098 1
ion Al   0.001205857779697   7.655184624960907  -0.000106840118777 1
ion Al   0.000554383981685  11.478364555070986   3.826086920535854 1
ion Al   3.826126223011442   7.655193582166016   3.826126584017653 1
ion Al   3.825877036093106  11.478432185407572   0.000620865825745 1
ion Al   0.001020218732231   7.653810894762256   7.654411950761136 1
ion Al   0.000996608303143  11.479144179162118  11.479714938701308 1
ion Al   3.921507964663124   7.653641648389399  11.479767285212990 1
ion Al   3.826097415033326  11.479678344095092   7.653670939798663 1
ion Al   7.655194219708875   0.010170989122296   0.000606068743234 1
ion Al   7.655154194704974   3.826195867640157   3.826156888883757 1
ion Al  11.478373594617619   0.000632535944225   3.835652493324434 1
ion Al  11.478378105836914   3.826087632829925   0.000649585237200 1
ion Al   7.653755255593792   0.000361078037093   7.653833173691218 1
ion Al   7.654409628881657   3.825596255403820  11.479650793586753 1
ion Al  11.479792444647963   0.000349194637146  11.479769769480619 1
ion Al  11.479760214213279   3.826303820924483   7.653784596874873 1
ion Al   7.654419449278070   7.653709174048306   0.001096279513834 1
ion Al   7.653732103521099  11.479797772699845   3.816621904182557 1
ion Al  11.479783304610502   7.653813197130863   3.826269716494707 1
ion Al  11.479696215187221  11.479883797640317   0.000373251667344 1
ion Al   7.654149126355449   7.653524451585985   7.652668860724058 1
ion Al   7.644607630550367  11.480811919150540  11.480064313515003 1
ion Al  11.480231314259129   7.653528075778798  11.480022478963626 1
ion Al  11.479919387349412  11.479951154445397   7.653529834486747 1
ion O   1.913342852197190   1.913250402755116   1.914541694040394 1

# Forces in Cartesian coordinates:
force Al  -0.024836185715201  -0.024773157144887  -0.024658263622964 1
force Al  -0.024479748665022   0.024179865186912   0.024447603152449 1
force Al   0.024393809414164  -0.024455055986517   0.024189917660940 1
force Al   0.024521491332132   0.024777881320556  -0.024752682993530 1
force Al   0.000439844104345   0.000512812938703   0.001754295974710 1
force Al   0.001015603294151   0.000093459312952  -0.001658449218170 1
force Al  -0.000553520444941   0.000494836853008  -0.001657992958657 1
force Al  -0.000600471025082  -0.000403050651272   0.001769080313401 1
force Al   0.001027770115303   0.001732004149001  -0.000157383324402 1
force Al   0.000427617043775  -0.001681419144185  -0.000480552322556 1
force Al  -0.000448748951952   0.001746221156559  -0.000450183693375 1
force Al  -0.000657381125079  -0.001606387740807   0.000497773150680 1
force Al   0.001103140609621   0.000778566523776   0.001317086070852 1
force Al   0.001082892467318  -0.001246799467613  -0.000738983772129 1
force Al  -0.005010518150233   0.000641327403992  -0.000700461891778 1
force Al  -0.000700522958813  -0.000770385841181   0.000653131672301 1
force Al   0.001732691820215   0.000070816808048   0.000493887725909 1
force Al   0.001703918759354  -0.000393153162884  -0.000418179082402 1
force Al  -0.001666012992432   0.000507399567857  -0.000893125205696 1
force Al  -0.001638834543298  -0.000480945240441   0.000521652192904 1
force Al   0.000726055951271   0.000503501207324   0.000789757845289 1
force Al   0.001320605106763  -0.001156616089767  -0.000797164544967 1
force Al  -0.000634523924893   0.000495686582252  -0.000685750745095 1
force Al  -0.000671488402409  -0.000530624470792   0.000745994029444 1
force Al   0.001327686875605   0.000689831041758   0.001152700535809 1
force Al   0.000694578988419  -0.000639633837373  -0.000224760733386 1
force Al  -0.000642532571817   0.000783359394613  -0.000564072815483 1
force Al  -0.000740730431758  -0.000583987185178   0.000514739310032 1
force Al   0.000697338475332   0.000139047511510  -0.000621820206913 1
force Al   0.001128377281644   0.000623987485378  -0.000032219872849 1
force Al   0.000112039148247   0.000139517210042  -0.000071614087868 1
force Al  -0.000155309191981  -0.000135569491489   0.000138984098909 1
force O  -0.000021806228879  -0.000061095141110   0.000578172529194 1

# Energy components:
   Eewald =      -91.8717878850982856
       EH =       11.0345983783562538
     Eloc =      -22.7896142501997723
      Enl =       16.9774342605473585
      Exc =      -72.5272996186723589
 Exc_core =       40.1356350690266197
       KE =       35.6777623788197502
-------------------------------------
     Etot =      -83.3632716672204594
       TS =        0.0171592020513182
-------------------------------------
        F =      -83.3804308692717768

IonicMinimize: Iter:   1  F: -83.380430869271777  |grad|_K:  8.599e-03  alpha:  1.000e+00  linmin: -9.993e-01  t[s]:   3745.35

#--- Lowdin population analysis ---
# oxidation-state Al +0.318 +0.317 +0.316 +0.317 +0.019 +0.018 +0.019 +0.019 +0.018 +0.019 +0.018 +0.018 +0.053 +0.053 +0.053 +0.054 +0.018 +0.018 +0.019 +0.018 +0.054 +0.054 +0.054 +0.054 +0.054 +0.054 +0.054 +0.054 +0.040 +0.040 +0.040 +0.040
# oxidation-state O -0.844


-------- Electronic minimization -----------
	FillingsUpdate:  mu: +0.296899749  nElectrons: 102.000000
ElecMinimize: Iter:   0  F: -83.371856521921075  |grad|_K:  1.549e-05  alpha:  1.000e+00
	FillingsUpdate:  mu: +0.296788199  nElectrons: 102.000000
	SubspaceRotationAdjust: set factor to 0.125
ElecMinimize: Iter:   1  F: -83.389677652589995  |grad|_K:  5.948e-06  alpha:  1.015e+00  linmin:  2.751e-05  t[s]:   3922.66
	FillingsUpdate:  mu: +0.297101405  nElectrons: 102.000000
	SubspaceRotationAdjust: set factor to 0.0978
ElecMinimize: Iter:   2  F: -83.392395688119052  |grad|_K:  1.693e-06  alpha:  1.051e+00  linmin:  1.036e-04  t[s]:   4023.12
	FillingsUpdate:  mu: +0.297024235  nElectrons: 102.000000
	SubspaceRotationAdjust: set factor to 0.136
ElecMinimize: Iter:   3  F: -83.392757995342990  |grad|_K:  7.839e-07  alpha:  1.731e+00  linmin:  2.070e-05  t[s]:   4123.82
	FillingsUpdate:  mu: +0.296999459  nElectrons: 102.000000
	SubspaceRotationAdjust: set factor to 0.177
ElecMinimize: Iter:   4  F: -83.392860036723519  |grad|_K:  6.044e-07  alpha:  2.271e+00  linmin:  5.795e-06  t[s]:   4224.35
	FillingsUpdate:  mu: +0.297024629  nElectrons: 102.000000
	SubspaceRotationAdjust: set factor to 0.229
ElecMinimize: Iter:   5  F: -83.392909139462830  |grad|_K:  3.714e-07  alpha:  1.838e+00  linmin: -3.372e-06  t[s]:   4323.47
	FillingsUpdate:  mu: +0.297027211  nElectrons: 102.000000
	SubspaceRotationAdjust: set factor to 0.221
ElecMinimize: Iter:   6  F: -83.392924605020895  |grad|_K:  1.754e-07  alpha:  1.533e+00  linmin:  7.699e-07  t[s]:   4424.56
	FillingsUpdate:  mu: +0.297019101  nElectrons: 102.000000
	SubspaceRotationAdjust: set factor to 0.208
ElecMinimize: Iter:   7  F: -83.392928067734545  |grad|_K:  1.106e-07  alpha:  1.539e+00  linmin: -8.809e-07  t[s]:   4524.38
	FillingsUpdate:  mu: +0.297023657  nElectrons: 102.000000
	SubspaceRotationAdjust: set factor to 0.17
ElecMinimize: Iter:   8  F: -83.392929114550711  |grad|_K:  5.269e-08  alpha:  1.171e+00  linmin:  8.147e-08  t[s]:   4625.62
	FillingsUpdate:  mu: +0.297023217  nElectrons: 102.000000
	SubspaceRotationAdjust: set factor to 0.187
ElecMinimize: Iter:   9  F: -83.392929390001228  |grad|_K:  2.489e-08  alpha:  1.357e+00  linmin:  4.055e-07  t[s]:   4725.39
	FillingsUpdate:  mu: +0.297023154  nElectrons: 102.000000
	SubspaceRotationAdjust: set factor to 0.256
ElecMinimize: Iter:  10  F: -83.392929443986077  |grad|_K:  1.179e-08  alpha:  1.192e+00  linmin: -1.857e-07  t[s]:   4825.41
	FillingsUpdate:  mu: +0.297023100  nElectrons: 102.000000
	SubspaceRotationAdjust: set factor to 0.284
ElecMinimize: Iter:  11  F: -83.392929459486453  |grad|_K:  6.472e-09  alpha:  1.526e+00  linmin:  1.604e-06  t[s]:   4924.81
	FillingsUpdate:  mu: +0.297022943  nElectrons: 102.000000
	SubspaceRotationAdjust: set factor to 0.274
ElecMinimize: Iter:  12  F: -83.392929463273376  |grad|_K:  4.106e-09  alpha:  1.246e+00  linmin: -2.978e-07  t[s]:   5025.04
	FillingsUpdate:  mu: +0.297023120  nElectrons: 102.000000
	SubspaceRotationAdjust: set factor to 0.225
ElecMinimize: Iter:  13  F: -83.392929464463478  |grad|_K:  2.061e-09  alpha:  9.627e-01  linmin:  4.071e-07  t[s]:   5124.99
ElecMinimize: Converged (|Delta F|<1.000000e-08 for 2 iters).
Setting wave functions to eigenvectors of Hamiltonian

# Ionic positions in cartesian coordinates:
ion Al  -0.091606909694059  -0.092263493308331  -0.091854543309179 1
ion Al  -0.091994215490324   3.927135963006930   3.918480651875502 1
ion Al   3.918378376950000  -0.091936553478763   3.927135748554713 1
ion Al   3.917816707794965   3.919029875364753  -0.092264242598978 1
ion Al   0.001783358766321   0.002157002107834   7.662036013119607 1
ion Al   0.004511105512614   3.827344900323192  11.471990422809037 1
ion Al   3.824340899788711   0.002083370952353  11.471980439767222 1
ion Al   3.824196704627248   3.825065630449797   7.662081136406066 1
ion Al   0.004570033031778   7.661871265434643  -0.000953851339956 1
ion Al   0.001730001439493  11.471792660909456   3.824702652413429 1
ion Al   3.824838558712053   7.661959669386590   3.824824510044657 1
ion Al   3.823925378850496  11.472192801749056   0.002092552323930 1
ion Al   0.005799274289976   7.658464642371038   7.660957001836042 1
ion Al   0.005708777011668  11.472845030198247  11.475182198469419 1
ion Al   3.902163076371289   7.657881338580690  11.475330134922965 1
ion Al   3.822849447804224  11.475044003134634   7.657881214782832 1
ion Al   7.661844427400790   0.010030006456742   0.002108681253778 1
ion Al   7.661736950460699   3.825072548465823   3.824990435878137 1
ion Al  11.471889410212420   0.002136349182160   3.832706481596104 1
ion Al  11.472099558063137   3.824699302563194   0.002196422376970 1
ion Al   7.658210485700130   0.002989730596677   7.658482325562633 1
ion Al   7.660994692663486   3.820712144470817  11.474910103754098 1
ion Al  11.475794601784022   0.002963844654232  11.475443745272042 1
ion Al  11.475593921800689   3.823582955887463   7.658278720333488 1
ion Al   7.661021245766392   7.658062338712900   0.005960167567596 1
ion Al   7.658025589369866  11.475736165770648   3.815073598347309 1
ion Al  11.475758160308761   7.658496785536673   3.823415256298275 1
ion Al  11.475229833182844  11.475915910748538   0.003040769518495 1
ion Al   7.656687877680336   7.654107992136043   7.650601968994632 1
ion Al   7.648758278126555  11.482882296188329  11.479889895977740 1
ion Al  11.480539606863285   7.654100054291497  11.479700446690346 1
ion Al  11.479345318372177  11.479406222332960   7.654087680796340 1
ion O   1.913182966477963   1.913160744823187   1.914234759704717 1

# Forces in Cartesian coordinates:
force Al  -0.011257652562390  -0.011200638026968  -0.011139569851227 1
force Al  -0.010971087508623   0.010710573345719   0.010973745099859 1
force Al   0.010919698015921  -0.010939686440158   0.010690441732621 1
force Al   0.011094473513439   0.011215025506475  -0.011181088428794 1
force Al   0.000187251788472   0.000251985668773   0.001266683496570 1
force Al   0.000569058690451   0.000129926115026  -0.001186281111544 1
force Al  -0.000271378761644   0.000235141621847  -0.001189595836709 1
force Al  -0.000255165243212  -0.000175921447908   0.001252441323084 1
force Al   0.000585675207181   0.001246366023119  -0.000170150036593 1
force Al   0.000173021941159  -0.001223005071939  -0.000221403913752 1
force Al  -0.000206170876990   0.001244227172813  -0.000214013947448 1
force Al  -0.000291064342613  -0.001156553466229   0.000235030469000 1
force Al   0.000929990135603   0.001145818201528   0.001492821628359 1
force Al   0.000920239107502  -0.001426320098007  -0.001107905752285 1
force Al  -0.003977177935587   0.001079834435986  -0.001104715758081 1
force Al  -0.000598908930094  -0.001150116659566   0.001080331345401 1
force Al   0.001221363500178  -0.000096783475947   0.000260015778721 1
force Al   0.001200510924893  -0.000189888452751  -0.000182433479648 1
force Al  -0.001201836754104   0.000247921398820  -0.000556044318779 1
force Al  -0.001134949100287  -0.000218921972732   0.000250771175548 1
force Al   0.001110433729690   0.000523393452166   0.001141871128372 1
force Al   0.001475176315033  -0.000890995544872  -0.001142289650780 1
force Al  -0.000944888394225   0.000524677896566  -0.001072480213051 1
force Al  -0.001026576372373  -0.000535204002262   0.001124235969424 1
force Al   0.001473756227132   0.001073916300185   0.000883684190817 1
force Al   0.001079860370350  -0.001020136048296  -0.000272260331833 1
force Al  -0.000966817999663   0.001166382159197  -0.000567798888763 1
force Al  -0.001073091682144  -0.001011216857609   0.000527007826009 1
force Al   0.000416472630836   0.000065029326576  -0.000398824658577 1
force Al   0.000756121827340   0.000395396202981   0.000019173782913 1
force Al   0.000096305058009   0.000058212268070  -0.000010092333153 1
force Al  -0.000030224875715  -0.000048560722878   0.000050770264763 1
force O  -0.000020600871835  -0.000034589959043   0.000467729104236 1

# Energy components:
   Eewald =      -92.4541855351168778
       EH =       10.6016384003130444
     Eloc =      -21.7014692604514181
      Enl =       16.9533313811128608
      Exc =      -72.4960578452268294
 Exc_core =       40.1356328406800813
       KE =       35.5852412078976528
-------------------------------------
     Etot =      -83.3758688107914878
       TS =        0.0170606536719963
-------------------------------------
        F =      -83.3929294644634780

IonicMinimize: Iter:   2  F: -83.392929464463478  |grad|_K:  3.935e-03  alpha:  6.501e-01  linmin: -9.993e-01  t[s]:   5142.42

#--- Lowdin population analysis ---
# oxidation-state Al +0.304 +0.303 +0.303 +0.303 +0.020 +0.019 +0.020 +0.020 +0.020 +0.020 +0.020 +0.020 +0.054 +0.054 +0.054 +0.055 +0.020 +0.020 +0.020 +0.020 +0.054 +0.055 +0.055 +0.055 +0.055 +0.054 +0.055 +0.055 +0.039 +0.039 +0.039 +0.039
# oxidation-state O -0.816


-------- Electronic minimization -----------
	FillingsUpdate:  mu: +0.296549318  nElectrons: 102.000000
ElecMinimize: Iter:   0  F: -83.380499373416214  |grad|_K:  1.443e-05  alpha:  1.000e+00
	FillingsUpdate:  mu: +0.296517681  nElectrons: 102.000000
	SubspaceRotationAdjust: set factor to 0.127
ElecMinimize: Iter:   1  F: -83.394135938384835  |grad|_K:  5.891e-06  alpha:  8.959e-01  linmin:  1.314e-05  t[s]:   5320.56
	FillingsUpdate:  mu: +0.296849312  nElectrons: 102.000000
	SubspaceRotationAdjust: set factor to 0.0766
ElecMinimize: Iter:   2  F: -83.396672800947556  |grad|_K:  1.615e-06  alpha:  9.998e-01  linmin:  9.726e-05  t[s]:   5421.15
	FillingsUpdate:  mu: +0.296765805  nElectrons: 102.000000
	SubspaceRotationAdjust: set factor to 0.118
ElecMinimize: Iter:   3  F: -83.396975636883226  |grad|_K:  6.226e-07  alpha:  1.589e+00  linmin:  2.994e-05  t[s]:   5520.55
	FillingsUpdate:  mu: +0.296736409  nElectrons: 102.000000
	SubspaceRotationAdjust: set factor to 0.154
ElecMinimize: Iter:   4  F: -83.397027788115523  |grad|_K:  4.841e-07  alpha:  1.840e+00  linmin:  1.316e-05  t[s]:   5621.81
	FillingsUpdate:  mu: +0.296744236  nElectrons: 102.000000
	SubspaceRotationAdjust: set factor to 0.214
ElecMinimize: Iter:   5  F: -83.397064684397435  |grad|_K:  3.744e-07  alpha:  2.153e+00  linmin: -1.904e-05  t[s]:   5721.75
	FillingsUpdate:  mu: +0.296757140  nElectrons: 102.000000
	SubspaceRotationAdjust: set factor to 0.211
ElecMinimize: Iter:   6  F: -83.397083308545376  |grad|_K:  1.952e-07  alpha:  1.814e+00  linmin:  4.588e-06  t[s]:   5821.38
	FillingsUpdate:  mu: +0.296750033  nElectrons: 102.000000
	SubspaceRotationAdjust: set factor to 0.197
ElecMinimize: Iter:   7  F: -83.397086944483178  |grad|_K:  1.106e-07  alpha:  1.305e+00  linmin: -4.293e-07  t[s]:   5922.10
	FillingsUpdate:  mu: +0.296752547  nElectrons: 102.000000
	SubspaceRotationAdjust: set factor to 0.234
ElecMinimize: Iter:   8  F: -83.397088108697375  |grad|_K:  5.624e-08  alpha:  1.300e+00  linmin: -5.119e-07  t[s]:   6023.33
	FillingsUpdate:  mu: +0.296752369  nElectrons: 102.000000
	SubspaceRotationAdjust: set factor to 0.3
ElecMinimize: Iter:   9  F: -83.397088453946267  |grad|_K:  3.113e-08  alpha:  1.493e+00  linmin:  1.675e-07  t[s]:   6123.46
	FillingsUpdate:  mu: +0.296752238  nElectrons: 102.000000
	SubspaceRotationAdjust: set factor to 0.388
ElecMinimize: Iter:  10  F: -83.397088544973428  |grad|_K:  1.423e-08  alpha:  1.285e+00  linmin: -9.022e-08  t[s]:   6223.91
	FillingsUpdate:  mu: +0.296752426  nElectrons: 102.000000
	SubspaceRotationAdjust: set factor to 0.287
ElecMinimize: Iter:  11  F: -83.397088565186806  |grad|_K:  1.056e-08  alpha:  1.365e+00  linmin:  4.230e-07  t[s]:   6325.41
	FillingsUpdate:  mu: +0.296752081  nElectrons: 102.000000
	SubspaceRotationAdjust: set factor to 0.194
ElecMinimize: Iter:  12  F: -83.397088570273425  |grad|_K:  5.396e-09  alpha:  6.253e-01  linmin:  1.106e-07  t[s]:   6426.32
	FillingsUpdate:  mu: +0.296752219  nElectrons: 102.000000
	SubspaceRotationAdjust: set factor to 0.295
ElecMinimize: Iter:  13  F: -83.397088572955539  |grad|_K:  2.561e-09  alpha:  1.248e+00  linmin: -4.735e-06  t[s]:   6528.14
ElecMinimize: Converged (|Delta F|<1.000000e-08 for 2 iters).
Setting wave functions to eigenvectors of Hamiltonian

# Ionic positions in cartesian coordinates:
ion Al  -0.141740525024131  -0.141931912990576  -0.141240834540783 1
ion Al  -0.141200460155311   3.974285678241686   3.967665630814952 1
ion Al   3.967331219128036  -0.140975012053875   3.974070576823355 1
ion Al   3.966822260336590   3.968862395413845  -0.141893636353091 1
ion Al   0.002735187650547   0.003612009774386   7.671580004058845 1
ion Al   0.008208788553591   3.828551136048264  11.463140350862536 1
ion Al   3.822750755276653   0.003426349104808  11.463090833026429 1
ion Al   3.822840961341042   3.824167816364273   7.671478963783063 1
ion Al   0.008394542488932   7.671200658323649  -0.002449016206263 1
ion Al   0.002580209576773  11.462566572121791   3.823486826918526 1
ion Al   3.823715809008953   7.671288513135128   3.823629080196986 1
ion Al   3.822310883096066  11.463504698139532   0.003428595361136 1
ion Al   0.013251190187294   7.668645478194729   7.673562790745858 1
ion Al   0.013099013602666  11.460722698825640  11.465262945875130 1
ion Al   3.872248164057920   7.667677623140542  11.465380783956189 1
ion Al   3.817880978397176  11.464817403606800   7.667615556186489 1
ion Al   7.670947719630011   0.008902346641260   0.003681030655203 1
ion Al   7.670720362890830   3.824016643058778   3.824044834738193 1
ion Al  11.462853003371524   0.003567221028943   3.828996557003203 1
ion Al  11.463666454731769   3.823501184898038   0.003635547453807 1
ion Al   7.668134662390568   0.007541281101826   7.668588946668573 1
ion Al   7.673486167751313   3.813671731519129  11.464750332866544 1
ion Al  11.467243967256497   0.007541210915823  11.465789499972576 1
ion Al  11.466388402697932   3.818957084955239   7.668270464535290 1
ion Al   7.673490667088029   7.667736665325281   0.012940280202303 1
ion Al   7.667684322635888  11.466553314152208   3.812426006865905 1
ion Al  11.467039916489242   7.668847816961007   3.818538150470384 1
ion Al  11.465650235089106  11.466686704020619   0.007613686865592 1
ion Al   7.659647559392901   7.654619855328760   7.647913754815166 1
ion Al   7.654228668053232  11.485539262415216  11.480008955299468 1
ion Al  11.481167506370932   7.654546911040679  11.479603797578754 1
ion Al  11.479176977344377  11.479044753041737   7.654465834570507 1
ion O   1.912967929293058   1.913027408204843   1.915646367929183 1

# Forces in Cartesian coordinates:
force Al  -0.001792706690603  -0.001779081736096  -0.001784872844164 1
force Al  -0.001770600276833   0.001625701312319   0.001806790272769 1
force Al   0.001773373268311  -0.001763550299001   0.001584058267970 1
force Al   0.001861450637916   0.001785511136379  -0.001770862175380 1
force Al  -0.000026816739879  -0.000000693708363   0.000467179546011 1
force Al   0.000082840970184   0.000060035228406  -0.000387949141129 1
force Al  -0.000000204088106  -0.000000407598781  -0.000395821148843 1
force Al   0.000089795936521   0.000023936913428   0.000429054590533 1
force Al   0.000094341340229   0.000432982994635  -0.000067409248939 1
force Al  -0.000037791599659  -0.000445923325974   0.000020732708209 1
force Al   0.000016213515082   0.000429875766523   0.000002092914060 1
force Al   0.000075914212849  -0.000395060083146  -0.000006254723966 1
force Al   0.000349811532819   0.000973228104093   0.001046470775105 1
force Al   0.000355304404869  -0.001023213297551  -0.000971448282679 1
force Al  -0.002169609677405   0.001020357368525  -0.001007978273687 1
force Al  -0.000143948893131  -0.000987218046245   0.000982441920666 1
force Al   0.000396944209819  -0.000198568594992   0.000033357667363 1
force Al   0.000404122132371  -0.000006469294257   0.000027628669318 1
force Al  -0.000429095127590   0.000006340252871  -0.000194428805115 1
force Al  -0.000326844417472   0.000019410757675   0.000002650435427 1
force Al   0.000977787083309   0.000219109384384   0.000966954356375 1
force Al   0.001059962267689  -0.000229808174130  -0.000977047884486 1
force Al  -0.000788298767056   0.000231383369424  -0.000978220662076 1
force Al  -0.000880904267507  -0.000210793938204   0.000985487864230 1
force Al   0.001052554375184   0.000964390362576   0.000223934931819 1
force Al   0.000966985760876  -0.000910797665462  -0.000016311896833 1
force Al  -0.000792584718466   0.001021399227408  -0.000238315327029 1
force Al  -0.000912870443688  -0.000963921925794   0.000216423849291 1
force Al   0.000041003634646  -0.000042945054612  -0.000119619879882 1
force Al   0.000244561183132   0.000114948947388   0.000089138295203 1
force Al   0.000088843046536  -0.000055431095869   0.000075143548459 1
force Al   0.000133591478903   0.000068897511439  -0.000064749129869 1
force O  -0.000026764778013   0.000010453541982   0.000018290936910 1

# Energy components:
   Eewald =      -92.9234225390580235
       EH =       10.2406733729790815
     Eloc =      -20.8199678056543434
      Enl =       16.9413677719256377
      Exc =      -72.4741042465265082
 Exc_core =       40.1356322883297238
       KE =       35.5197041479256370
-------------------------------------
     Etot =      -83.3801170100787772
       TS =        0.0169715628767571
-------------------------------------
        F =      -83.3970885729555391

IonicMinimize: Iter:   3  F: -83.397088572955539  |grad|_K:  8.249e-04  alpha:  1.000e+00  linmin: -9.288e-01  t[s]:   6545.14

#--- Lowdin population analysis ---
# oxidation-state Al +0.291 +0.291 +0.291 +0.291 +0.022 +0.022 +0.022 +0.022 +0.022 +0.022 +0.022 +0.022 +0.055 +0.055 +0.055 +0.055 +0.022 +0.022 +0.022 +0.022 +0.055 +0.055 +0.055 +0.055 +0.055 +0.055 +0.055 +0.055 +0.038 +0.038 +0.038 +0.038
# oxidation-state O -0.795


-------- Electronic minimization -----------
	FillingsUpdate:  mu: +0.296629924  nElectrons: 102.000000
ElecMinimize: Iter:   0  F: -83.395673539392433  |grad|_K:  5.146e-06  alpha:  1.000e+00
	FillingsUpdate:  mu: +0.296584504  nElectrons: 102.000000
	SubspaceRotationAdjust: set factor to 0.159
ElecMinimize: Iter:   1  F: -83.396964027556621  |grad|_K:  2.294e-06  alpha:  6.662e-01  linmin:  1.722e-06  t[s]:   6724.22
	FillingsUpdate:  mu: +0.296719792  nElectrons: 102.000000
	SubspaceRotationAdjust: set factor to 0.0864
ElecMinimize: Iter:   2  F: -83.397325423880801  |grad|_K:  6.694e-07  alpha:  9.391e-01  linmin: -2.273e-05  t[s]:   6823.45
	FillingsUpdate:  mu: +0.296683434  nElectrons: 102.000000
	SubspaceRotationAdjust: set factor to 0.173
ElecMinimize: Iter:   3  F: -83.397372135227471  |grad|_K:  2.076e-07  alpha:  1.425e+00  linmin:  1.395e-05  t[s]:   6924.05
	FillingsUpdate:  mu: +0.296673030  nElectrons: 102.000000
	SubspaceRotationAdjust: set factor to 0.209
ElecMinimize: Iter:   4  F: -83.397376741263486  |grad|_K:  1.379e-07  alpha:  1.461e+00  linmin: -1.036e-07  t[s]:   7024.36
	FillingsUpdate:  mu: +0.296672141  nElectrons: 102.000000
	SubspaceRotationAdjust: set factor to 0.264
ElecMinimize: Iter:   5  F: -83.397379398616053  |grad|_K:  9.690e-08  alpha:  1.912e+00  linmin: -3.191e-06  t[s]:   7125.69
	FillingsUpdate:  mu: +0.296675898  nElectrons: 102.000000
	SubspaceRotationAdjust: set factor to 0.292
ElecMinimize: Iter:   6  F: -83.397380672389815  |grad|_K:  5.586e-08  alpha:  1.854e+00  linmin:  6.385e-07  t[s]:   7225.30
	FillingsUpdate:  mu: +0.296674225  nElectrons: 102.000000
	SubspaceRotationAdjust: set factor to 0.219
ElecMinimize: Iter:   7  F: -83.397380916630297  |grad|_K:  3.327e-08  alpha:  1.070e+00  linmin: -5.611e-08  t[s]:   7325.40
	FillingsUpdate:  mu: +0.296674794  nElectrons: 102.000000
	SubspaceRotationAdjust: set factor to 0.183
ElecMinimize: Iter:   8  F: -83.397380992422171  |grad|_K:  1.575e-08  alpha:  9.365e-01  linmin: -1.314e-07  t[s]:   7426.40
	FillingsUpdate:  mu: +0.296674535  nElectrons: 102.000000
	SubspaceRotationAdjust: set factor to 0.265
ElecMinimize: Iter:   9  F: -83.397381018281081  |grad|_K:  8.227e-09  alpha:  1.427e+00  linmin:  1.303e-06  t[s]:   7527.30
	FillingsUpdate:  mu: +0.296674592  nElectrons: 102.000000
	SubspaceRotationAdjust: set factor to 0.25
ElecMinimize: Iter:  10  F: -83.397381025409004  |grad|_K:  4.977e-09  alpha:  1.447e+00  linmin:  3.569e-06  t[s]:   7627.19
	FillingsUpdate:  mu: +0.296674782  nElectrons: 102.000000
	SubspaceRotationAdjust: set factor to 0.216
ElecMinimize: Iter:  11  F: -83.397381027497460  |grad|_K:  3.504e-09  alpha:  1.156e+00  linmin:  1.992e-06  t[s]:   7726.65
ElecMinimize: Converged (|Delta F|<1.000000e-08 for 2 iters).
Setting wave functions to eigenvectors of Hamiltonian

# Ionic positions in cartesian coordinates:
ion Al  -0.153567207052277  -0.153631402276946  -0.152980302031118 1
ion Al  -0.152974214697896   3.984917069895898   3.979681910453148 1
ion Al   3.979133853401999  -0.152703544305058   3.984396722897469 1
ion Al   3.979047253480602   3.980627037916349  -0.153549885322544 1
ion Al   0.002581973687860   0.003670687033960   7.675484715244012 1
ion Al   0.008996201350576   3.829078467230406  11.459838037157803 1
ion Al   3.822683566717836   0.003480515157236  11.459730504547810 1
ion Al   3.823412093645339   3.824310022299121   7.675111065982818 1
ion Al   0.009269257650862   7.674849747773508  -0.003045520386069 1
ion Al   0.002346012619616  11.458831321489207   3.823584734340896 1
ion Al   3.823793655537959   7.674919576509943   3.823598846478352 1
ion Al   3.822769155637018  11.460159504534971   0.003441654959554 1
ion Al   0.016254910489162   7.676188238472776   7.681767175364616 1
ion Al   0.016136293888363  11.452711536651170  11.457750463516515 1
ion Al   3.855282571542708   7.675521817167028  11.457613448645738 1
ion Al   3.816471190183544  11.457177561341354   7.675189880321850 1
ion Al   7.674337485912841   0.007429757017478   0.003984827409655 1
ion Al   7.674154349965946   3.823935321254102   3.824207748231131 1
ion Al  11.459254914558107   0.003672463513695   3.827451335072256 1
ion Al  11.460816786362422   3.823591566844479   0.003714877464173 1
ion Al   7.675694592522674   0.009449723130824   7.676077991571214 1
ion Al   7.681782461129960   3.811529093411291  11.457183156749753 1
ion Al  11.461094816481308   0.009536330991447  11.458251882374176 1
ion Al  11.459560707799781   3.817102614370096   7.675877256459049 1
ion Al   7.681734096700383   7.675185473517996   0.015039894553309 1
ion Al   7.675146324510983  11.459517766370448   3.812037103661640 1
ion Al  11.460849573096118   7.676730372388546   3.816477470144612 1
ion Al  11.458573740299649  11.459275277422622   0.009504808558858 1
ion Al   7.660144493653637   7.654376102934819   7.646934934278549 1
ion Al   7.656289323954998  11.486485467075248  11.480615074263431 1
ion Al  11.481809162703415   7.654212341662729  11.480099160000805 1
ion Al  11.480075377937624  11.479480392989615   7.654061340254173 1
ion O   1.912768724326888   1.913105278213654   1.915591186782372 1

# Forces in Cartesian coordinates:
force Al   0.000035010643852   0.000015415236920   0.000008622570044 1
force Al   0.000030267799232  -0.000111426892025   0.000028016674484 1
force Al  -0.000009827092634   0.000015757421949  -0.000131904136023 1
force Al   0.000102974640217  -0.000024100957729   0.000031882307565 1
force Al  -0.000016917792075  -0.000030400199437   0.000111662970162 1
force Al  -0.000043979984738  -0.000034305057816  -0.000071864451176 1
force Al   0.000052451522091  -0.000023454185352  -0.000081474001966 1
force Al   0.000132827872961   0.000026904999458   0.000088316779836 1
force Al  -0.000037668199459   0.000098775965814   0.000044850090379 1
force Al  -0.000024690291586  -0.000102413338262   0.000043537069962 1
force Al   0.000044559275393   0.000095965209836   0.000017364653297 1
force Al   0.000132198022725  -0.000087262998534  -0.000027795568163 1
force Al  -0.000042618760576   0.000467613565116   0.000422215809597 1
force Al  -0.000034331776800  -0.000414429427891  -0.000473800684132 1
force Al  -0.001120112874491   0.000531587455719  -0.000508227048387 1
force Al   0.000156588780226  -0.000472399129736   0.000497618080283 1
force Al   0.000087963841084  -0.000145258336334  -0.000011511968928 1
force Al   0.000101433740238   0.000016401518724   0.000034869320508 1
force Al  -0.000104245357133  -0.000018159798628  -0.000101019029406 1
force Al  -0.000030835251004   0.000039782566377  -0.000024888603726 1
force Al   0.000506181217661  -0.000036653283857   0.000479730206009 1
force Al   0.000462850062256   0.000147884512959  -0.000473379912591 1
force Al  -0.000357207029574  -0.000024617366740  -0.000498520125107 1
force Al  -0.000416648880536   0.000053904434076   0.000493857286021 1
force Al   0.000454056142278   0.000488351038594  -0.000146668651045 1
force Al   0.000509452241847  -0.000464580100050   0.000197420087419 1
force Al  -0.000357537633883   0.000516927230031   0.000033067969083 1
force Al  -0.000426494001611  -0.000501167485462  -0.000043110833173 1
force Al  -0.000082367442204  -0.000064958330914   0.000008387559894 1
force Al   0.000043560244353  -0.000008960936631   0.000083843269741 1
force Al   0.000070963893054  -0.000073670929271   0.000076595632969 1
force Al   0.000154916522253   0.000086679220192  -0.000079184806882 1
force O  -0.000012238652808   0.000028604141782  -0.000028806348234 1

# Energy components:
   Eewald =      -93.0417969032709493
       EH =       10.1459016181198738
     Eloc =      -20.5960472310452829
      Enl =       16.9395921882499501
      Exc =      -72.4694672216134990
 Exc_core =       40.1356323147992811
       KE =       35.5057701578891383
-------------------------------------
     Etot =      -83.3804150768714862
       TS =        0.0169659506259781
-------------------------------------
        F =      -83.3973810274974596

IonicMinimize: Iter:   4  F: -83.397381027497460  |grad|_K:  2.650e-04  alpha:  1.000e+00  linmin: -6.652e-01  t[s]:   7744.68

#--- Lowdin population analysis ---
# oxidation-state Al +0.288 +0.288 +0.288 +0.288 +0.022 +0.022 +0.022 +0.022 +0.022 +0.022 +0.022 +0.022 +0.055 +0.055 +0.055 +0.055 +0.022 +0.022 +0.022 +0.022 +0.055 +0.055 +0.055 +0.055 +0.055 +0.055 +0.055 +0.055 +0.038 +0.038 +0.038 +0.038
# oxidation-state O -0.790


-------- Electronic minimization -----------
	FillingsUpdate:  mu: +0.296670842  nElectrons: 102.000000
ElecMinimize: Iter:   0  F: -83.397333889082958  |grad|_K:  9.557e-07  alpha:  1.000e+00
	FillingsUpdate:  mu: +0.296649351  nElectrons: 102.000000
	SubspaceRotationAdjust: set factor to 0.132
ElecMinimize: Iter:   1  F: -83.397402418732597  |grad|_K:  4.618e-07  alpha:  1.026e+00  linmin:  8.877e-06  t[s]:   7929.74
	FillingsUpdate:  mu: +0.296670181  nElectrons: 102.000000
	SubspaceRotationAdjust: set factor to 0.124
ElecMinimize: Iter:   2  F: -83.397419329280808  |grad|_K:  1.508e-07  alpha:  1.085e+00  linmin: -9.923e-06  t[s]:   8030.16
	FillingsUpdate:  mu: +0.296665029  nElectrons: 102.000000
	SubspaceRotationAdjust: set factor to 0.167
ElecMinimize: Iter:   3  F: -83.397422366527380  |grad|_K:  8.496e-08  alpha:  1.826e+00  linmin: -1.331e-06  t[s]:   8131.70
	FillingsUpdate:  mu: +0.296662946  nElectrons: 102.000000
	SubspaceRotationAdjust: set factor to 0.191
ElecMinimize: Iter:   4  F: -83.397423395406634  |grad|_K:  6.004e-08  alpha:  1.949e+00  linmin:  4.268e-07  t[s]:   8230.93
	FillingsUpdate:  mu: +0.296664636  nElectrons: 102.000000
	SubspaceRotationAdjust: set factor to 0.234
ElecMinimize: Iter:   5  F: -83.397423861178964  |grad|_K:  3.429e-08  alpha:  1.767e+00  linmin:  2.596e-07  t[s]:   8330.50
	FillingsUpdate:  mu: +0.296664996  nElectrons: 102.000000
	SubspaceRotationAdjust: set factor to 0.211
ElecMinimize: Iter:   6  F: -83.397423997124065  |grad|_K:  1.716e-08  alpha:  1.581e+00  linmin: -3.646e-07  t[s]:   8430.53
	FillingsUpdate:  mu: +0.296664091  nElectrons: 102.000000
	SubspaceRotationAdjust: set factor to 0.142
ElecMinimize: Iter:   7  F: -83.397424020736679  |grad|_K:  9.940e-09  alpha:  1.096e+00  linmin: -1.011e-06  t[s]:   8529.39
	FillingsUpdate:  mu: +0.296664372  nElectrons: 102.000000
	SubspaceRotationAdjust: set factor to 0.201
ElecMinimize: Iter:   8  F: -83.397424029877058  |grad|_K:  3.350e-09  alpha:  1.261e+00  linmin: -6.906e-06  t[s]:   8628.98
	FillingsUpdate:  mu: +0.296664471  nElectrons: 102.000000
	SubspaceRotationAdjust: set factor to 0.222
ElecMinimize: Iter:   9  F: -83.397424031122100  |grad|_K:  1.760e-09  alpha:  1.519e+00  linmin:  7.166e-06  t[s]:   8728.36
ElecMinimize: Converged (|Delta F|<1.000000e-08 for 2 iters).
Setting wave functions to eigenvectors of Hamiltonian

# Ionic positions in cartesian coordinates:
ion Al  -0.155113872447127  -0.155377634886682  -0.154782252692939 1
ion Al  -0.154531032611131   3.985666162012675   3.981823083964309 1
ion Al   3.980908651449958  -0.154413500767431   3.984948898124299 1
ion Al   3.981943726968953   3.982291097016638  -0.155132749185207 1
ion Al   0.002478257476641   0.003425945724745   7.676723762055711 1
ion Al   0.008665991680574   3.828740528182929  11.458989935034666 1
ion Al   3.823159988848488   0.003302423313286  11.458787722524344 1
ion Al   3.824667617571488   3.824532706895064   7.676126696196889 1
ion Al   0.009001659310346   7.675968437269209  -0.002605495465649 1
ion Al   0.002165213901254  11.457690446686522   3.823963394306925 1
ion Al   3.824199591467111   7.676011708349361   3.823722680042668 1
ion Al   3.824015104435158  11.459167387730963   0.003219724138321 1
ion Al   0.015913674159308   7.680784812403177   7.685955387466163 1
ion Al   0.015874233002520  11.448609158887381  11.453100643785843 1
ion Al   3.843927928230106   7.680730591030589  11.452631613121966 1
ion Al   3.817981025778586  11.452542006700178   7.680067503731797 1
ion Al   7.675365435594907   0.006023742917322   0.003916882044824 1
ion Al   7.675311343869748   3.824060857616122   3.824505376129893 1
ion Al  11.458103292086442   0.003547763120258   3.826379037946639 1
ion Al  11.460380953052315   3.823935434144364   0.003522458080767 1
ion Al   7.680679764100277   0.009115951515906   7.680796152634422 1
ion Al   7.686384895577673   3.812906605650499  11.452531620499789 1
ion Al  11.457597511440987   0.009319438233231  11.453363408756932 1
ion Al  11.455483005929384   3.817608853513685   7.680726422741469 1
ion Al   7.686250584356758   7.679979314288655   0.013677739740608 1
ion Al   7.680161692768150  11.454960606113636   3.813972985493040 1
ion Al  11.457346788470204   7.681810173373397   3.816774654342929 1
ion Al  11.454397388959753  11.454371281285118   0.009105734859738 1
ion Al   7.659408006269579   7.653756462516577   7.646974222535358 1
ion Al   7.656821665824017  11.486443968473328  11.481428944956830 1
ion Al  11.482523217752965   7.653508215681610  11.480838629978917 1
ion Al  11.481588477687783  11.480317185449548   7.653301454401846 1
ion O   1.912661717036829   1.913385369558146   1.915367227705897 1

# Forces in Cartesian coordinates:
force Al   0.000185836060785   0.000145881040084   0.000152344434526 1
force Al   0.000161567008660  -0.000206890515441  -0.000099798498834 1
force Al  -0.000126688923533   0.000130463512301  -0.000202608826257 1
force Al  -0.000059365471822  -0.000163846575802   0.000167514230256 1
force Al   0.000042444577343  -0.000004541353846  -0.000016576507826 1
force Al  -0.000046210080438  -0.000090876265747   0.000015265544608 1
force Al   0.000044248230158   0.000005023020914   0.000008007743163 1
force Al   0.000081379421731  -0.000008880987382  -0.000013675385997 1
force Al  -0.000046805680077  -0.000004742503691   0.000110161321306 1
force Al   0.000040703364638   0.000020156518156   0.000012129560728 1
force Al   0.000026698764645  -0.000004266233868  -0.000009071605258 1
force Al   0.000087601636462   0.000003789899520   0.000004722400969 1
force Al  -0.000180523405225   0.000096695829089   0.000006091782818 1
force Al  -0.000175814425795  -0.000007449060535  -0.000102611866378 1
force Al  -0.000535203014947   0.000135764296515  -0.000115345294593 1
force Al   0.000221381739518  -0.000086754025777   0.000120200680603 1
force Al   0.000012580919630  -0.000067394254099  -0.000008726231290 1
force Al   0.000024940232487   0.000004728404154  -0.000002046172836 1
force Al   0.000006436219904   0.000008120131711  -0.000077719805893 1
force Al   0.000028717570700   0.000009698950171   0.000000396623869 1
force Al   0.000147089105025  -0.000116152211409   0.000117696959259 1
force Al   0.000058669274677   0.000245223315330  -0.000098929726221 1
force Al  -0.000072747506805  -0.000108330768198  -0.000123479347050 1
force Al  -0.000078583676142   0.000136917097851   0.000114630573535 1
force Al   0.000051902950961   0.000125087639158  -0.000235418578910 1
force Al   0.000155217980296  -0.000126749773555   0.000231088005048 1
force Al  -0.000069670520590   0.000121737929681   0.000123817553008 1
force Al  -0.000072974737956  -0.000132209011373  -0.000124459816732 1
force Al  -0.000088430507928  -0.000037266667394   0.000080165533340 1
force Al  -0.000015622605388  -0.000074905262430   0.000035377029752 1
force Al   0.000034261142072  -0.000038504623795   0.000033060624441 1
force Al   0.000099824216771   0.000050511976094  -0.000039418806502 1
force O   0.000018356302549   0.000033465350164  -0.000064142170131 1

# Energy components:
   Eewald =      -93.0670703651852875
       EH =       10.1241492038610179
     Eloc =      -20.5475633953172263
      Enl =       16.9394162210392594
      Exc =      -72.4688081619405011
 Exc_core =       40.1356323691377952
       KE =       35.5038069122319087
-------------------------------------
     Etot =      -83.3804372161730214
       TS =        0.0169868149490821
-------------------------------------
        F =      -83.3974240311220996

IonicMinimize: Iter:   5  F: -83.397424031122100  |grad|_K:  1.147e-04  alpha:  1.000e+00  linmin: -5.590e-01  t[s]:   8745.67

#--- Lowdin population analysis ---
# oxidation-state Al +0.288 +0.288 +0.288 +0.287 +0.022 +0.022 +0.022 +0.022 +0.022 +0.022 +0.022 +0.022 +0.055 +0.055 +0.055 +0.055 +0.022 +0.022 +0.022 +0.022 +0.055 +0.055 +0.055 +0.055 +0.055 +0.055 +0.055 +0.055 +0.038 +0.038 +0.038 +0.038
# oxidation-state O -0.789


-------- Electronic minimization -----------
	FillingsUpdate:  mu: +0.296686650  nElectrons: 102.000000
ElecMinimize: Iter:   0  F: -83.397407995687317  |grad|_K:  4.803e-07  alpha:  1.000e+00
	FillingsUpdate:  mu: +0.296663421  nElectrons: 102.000000
	SubspaceRotationAdjust: set factor to 0.142
ElecMinimize: Iter:   1  F: -83.397428604926247  |grad|_K:  2.582e-07  alpha:  1.222e+00  linmin:  1.556e-05  t[s]:   8929.22
	FillingsUpdate:  mu: +0.296672445  nElectrons: 102.000000
	SubspaceRotationAdjust: set factor to 0.117
ElecMinimize: Iter:   2  F: -83.397433480738627  |grad|_K:  8.659e-08  alpha:  9.999e-01  linmin: -2.734e-06  t[s]:   9030.86
	FillingsUpdate:  mu: +0.296673156  nElectrons: 102.000000
	SubspaceRotationAdjust: set factor to 0.177
ElecMinimize: Iter:   3  F: -83.397434510080117  |grad|_K:  5.410e-08  alpha:  1.877e+00  linmin: -1.059e-06  t[s]:   9129.87
	FillingsUpdate:  mu: +0.296672561  nElectrons: 102.000000
	SubspaceRotationAdjust: set factor to 0.219
ElecMinimize: Iter:   4  F: -83.397434884118354  |grad|_K:  3.663e-08  alpha:  1.747e+00  linmin:  4.471e-07  t[s]:   9229.92
	FillingsUpdate:  mu: +0.296671920  nElectrons: 102.000000
	SubspaceRotationAdjust: set factor to 0.283
ElecMinimize: Iter:   5  F: -83.397435054143699  |grad|_K:  2.005e-08  alpha:  1.733e+00  linmin: -4.191e-07  t[s]:   9330.94
	FillingsUpdate:  mu: +0.296672365  nElectrons: 102.000000
	SubspaceRotationAdjust: set factor to 0.216
ElecMinimize: Iter:   6  F: -83.397435097835441  |grad|_K:  1.112e-08  alpha:  1.486e+00  linmin:  8.585e-07  t[s]:   9430.75
	FillingsUpdate:  mu: +0.296672080  nElectrons: 102.000000
	SubspaceRotationAdjust: set factor to 0.127
ElecMinimize: Iter:   7  F: -83.397435105114269  |grad|_K:  5.372e-09  alpha:  8.053e-01  linmin:  5.356e-07  t[s]:   9529.44
	FillingsUpdate:  mu: +0.296672218  nElectrons: 102.000000
	SubspaceRotationAdjust: set factor to 0.221
ElecMinimize: Iter:   8  F: -83.397435108041250  |grad|_K:  2.115e-09  alpha:  1.372e+00  linmin: -1.516e-05  t[s]:   9630.01
ElecMinimize: Converged (|Delta F|<1.000000e-08 for 2 iters).
Setting wave functions to eigenvectors of Hamiltonian

# Ionic positions in cartesian coordinates:
ion Al  -0.154293079978139  -0.155211871309274  -0.154500158920420 1
ion Al  -0.154062717714785   3.984460334083505   3.982367038961952 1
ion Al   3.981036045266707  -0.154460487015106   3.983813010975293 1
ion Al   3.983159539144602   3.981842645356548  -0.154617394344019 1
ion Al   0.003231927423001   0.003408345791388   7.676635088542088 1
ion Al   0.008043066483123   3.827289164721384  11.459060442334973 1
ion Al   3.823839328904091   0.003436785624456  11.458742514432757 1
ion Al   3.825930497926769   3.824351575059072   7.676091145627143 1
ion Al   0.008369084400276   7.676075913028495  -0.000844727174402 1
ion Al   0.002891098853923  11.457846887142745   3.824109912110804 1
ion Al   3.824605766309479   7.676128240325533   3.823532703100303 1
ion Al   3.825373491311770  11.459062982053027   0.003348116887535 1
ion Al   0.013162270640270   7.682430212860932   7.686188891467160 1
ion Al   0.013195304489590  11.448364478711014  11.451369611192634 1
ion Al   3.834843375637755   7.682982951865873  11.450705060102608 1
ion Al   3.821459304469895  11.451066990155708   7.682073384226333 1
ion Al   7.675771310408343   0.004953309273291   0.003823805958568 1
ion Al   7.675912153561017   3.824103354175438   3.824429594263915 1
ion Al  11.458056277660992   0.003732846639082   3.825043359024821 1
ion Al  11.460685301418838   3.824046680956383   0.003581472828915 1
ion Al   7.683145800726136   0.007328908184173   7.682776642293654 1
ion Al   7.687481483636910   3.816713606271548  11.450856018977916 1
ion Al  11.456363143450679   0.007656832371527  11.451306089991636 1
ion Al  11.454161036937688   3.819734984561243   7.682649265469495 1
ion Al   7.687239352077333   7.682070382440989   0.010033994915960 1
ion Al   7.682754393162859  11.452851538971792   3.817637495686627 1
ion Al  11.456160971791910   7.683850632229717   3.818685008949621 1
ion Al  11.453161162721006  11.452184703616570   0.007182940217787 1
ion Al   7.658078630107620   7.653183164964599   7.648217439364754 1
ion Al   7.656703033911471  11.485290728865408  11.481983266204391 1
ion Al  11.483095733563349   7.652916620176959  11.481352704073469 1
ion Al  11.483184511455498  11.481109501864903   7.652693007792720 1
ion O   1.912984899840031   1.913920555981083   1.914396754463013 1

# Forces in Cartesian coordinates:
force Al   0.000081686327393   0.000045348217838   0.000056303339294 1
force Al   0.000091788882361  -0.000111819036480  -0.000047938292520 1
force Al  -0.000031519875944   0.000062017708806  -0.000093584449555 1
force Al   0.000004711646453  -0.000044754389399   0.000049157605415 1
force Al   0.000062271829897   0.000008793140998  -0.000045923602690 1
force Al  -0.000039626491842  -0.000079661786478   0.000009184495837 1
force Al   0.000043663260402   0.000011561381986   0.000009915673813 1
force Al   0.000026904542568  -0.000017217825714  -0.000028322743531 1
force Al  -0.000044984002031  -0.000016625941354   0.000100006086084 1
force Al   0.000065694228228   0.000044232828942  -0.000004273104880 1
force Al   0.000024877793032  -0.000018431362731  -0.000009107562972 1
force Al   0.000037016033912   0.000012001097454   0.000013338246339 1
force Al  -0.000092914829805  -0.000018100373133  -0.000105935139223 1
force Al  -0.000094517018069   0.000105315363427   0.000024537139026 1
force Al  -0.000243505142224  -0.000025276294821   0.000037402286502 1
force Al   0.000073862294819   0.000035932013453  -0.000008030247247 1
force Al   0.000019349104611  -0.000020400594373  -0.000012449503312 1
force Al   0.000020498127875   0.000005209736101  -0.000015243572723 1
force Al   0.000036675764336   0.000011900738430  -0.000040334388619 1
force Al   0.000009163631504  -0.000000986575947   0.000004096533842 1
force Al   0.000019942124533  -0.000017607969574  -0.000011818585858 1
force Al  -0.000074065990695   0.000111554143958   0.000036319851755 1
force Al  -0.000016911293203  -0.000015581104138   0.000022433930472 1
force Al   0.000017445460261   0.000036106285122  -0.000019410018788 1
force Al  -0.000076254038271  -0.000008621246857  -0.000096551927783 1
force Al   0.000027547964187  -0.000009115984526   0.000078908620929 1
force Al  -0.000017858835991  -0.000030936012822   0.000034102562141 1
force Al   0.000036868442547   0.000008494997629  -0.000025757809812 1
force Al  -0.000067794239578  -0.000016081290641   0.000086336674029 1
force Al  -0.000037985717453  -0.000076649264705  -0.000000256590090 1
force Al   0.000024996445388  -0.000010814146155   0.000003875713069 1
force Al   0.000039692247838   0.000021831750044  -0.000010505118921 1
force O   0.000037122253721   0.000016258605708   0.000003057550241 1

# Energy components:
   Eewald =      -93.0691150851841087
       EH =       10.1218563160401711
     Eloc =      -20.5434702322462392
      Enl =       16.9394766082985342
      Exc =      -72.4688805646585763
 Exc_core =       40.1356323368139698
       KE =       35.5040750127250462
-------------------------------------
     Etot =      -83.3804256082111976
       TS =        0.0170094998300580
-------------------------------------
        F =      -83.3974351080412504

IonicMinimize: Iter:   6  F: -83.397435108041250  |grad|_K:  5.322e-05  alpha:  1.000e+00  linmin: -5.877e-01  t[s]:   9647.12
IonicMinimize: Converged (|grad|_K<1.000000e-04).

#--- Lowdin population analysis ---
# oxidation-state Al +0.288 +0.288 +0.288 +0.287 +0.022 +0.022 +0.022 +0.022 +0.022 +0.022 +0.022 +0.022 +0.055 +0.055 +0.055 +0.055 +0.022 +0.022 +0.022 +0.022 +0.055 +0.055 +0.055 +0.055 +0.055 +0.055 +0.055 +0.055 +0.038 +0.038 +0.038 +0.038
# oxidation-state O -0.790


Dumping 'Al32O_tet.Ecomponents' ... done
End date and time: Sun Jan 28 14:07:34 2024  (Duration: 0-2:41:03.22)
Done!
