--------------------------------------------------------------------------
[[6542,1],2]: A high-performance Open MPI point-to-point messaging module
was unable to find any relevant network interfaces:

Module: OpenFabrics (openib)
  Host: node3221

Another transport will be used instead, although this may result in
lower performance.
--------------------------------------------------------------------------

*************** JDFTx 1.7.0 (git hash 3664913) ***************

Start date and time: Wed Jul 10 14:02:06 2024
Executable jdftx with command-line: -i TiO2_vac.in
Running on hosts (process indices):  node3221.physics.cornell.edu (0-15)
Divided in process groups (process indices):  0 (0)  1 (1)  2 (2)  3 (3)  4 (4)  5 (5)  6 (6)  7 (7)  8 (8)  9 (9)  10 (10)  11 (11)  12 (12)  13 (13)  14 (14)  15 (15)
Resource initialization completed at t[s]:      0.00
Run totals: 16 processes, 32 threads, 0 GPUs


Input parsed successfully to the following command list (including defaults):

basis kpoint-dependent
coords-type Lattice
core-overlap-check vector
coulomb-interaction Periodic
davidson-band-ratio 1.1
dump End Ecomponents
dump-name /data/rc652/TiO2/vac/TiO2_vac.$VAR
elec-cutoff 20 100
elec-eigen-algo Davidson
elec-ex-corr gga-PBEsol
elec-smearing Fermi 0.01
electronic-minimize  \
	dirUpdateScheme      FletcherReeves \
	linminMethod         DirUpdateRecommended \
	nIterations          100 \
	history              15 \
	knormThreshold       0 \
	maxThreshold         no \
	energyDiffThreshold  1e-08 \
	nEnergyDiff          2 \
	alphaTstart          1 \
	alphaTmin            1e-10 \
	updateTestStepSize   yes \
	alphaTreduceFactor   0.1 \
	alphaTincreaseFactor 3 \
	nAlphaAdjustMax      3 \
	wolfeEnergy          0.0001 \
	wolfeGradient        0.9 \
	fdTest               no
electronic-scf  \
	nIterations	50 \
	energyDiffThreshold	1e-08 \
	residualThreshold	1e-07 \
	mixFraction	0.5 \
	qMetric	0.8 \
	history	10 \
	nEigSteps	2 \
	eigDiffThreshold	1e-08 \
	mixedVariable	Density \
	qKerker	0.8 \
	qKappa	-1 \
	verbose	no \
	mixFractionMag	1.5
exchange-regularization WignerSeitzTruncated
fluid None
fluid-ex-corr lda-TF lda-PZ
fluid-gummel-loop 10 1.000000e-05
fluid-minimize  \
	dirUpdateScheme      PolakRibiere \
	linminMethod         DirUpdateRecommended \
	nIterations          100 \
	history              15 \
	knormThreshold       0 \
	maxThreshold         no \
	energyDiffThreshold  0 \
	nEnergyDiff          2 \
	alphaTstart          1 \
	alphaTmin            1e-10 \
	updateTestStepSize   yes \
	alphaTreduceFactor   0.1 \
	alphaTincreaseFactor 3 \
	nAlphaAdjustMax      3 \
	wolfeEnergy          0.0001 \
	wolfeGradient        0.9 \
	fdTest               no
fluid-solvent H2O 55.338 ScalarEOS \
	epsBulk 78.4 \
	pMol 0.92466 \
	epsInf 1.77 \
	Pvap 1.06736e-10 \
	sigmaBulk 4.62e-05 \
	Rvdw 2.61727 \
	Res 1.42 \
	tauNuc 343133 \
	poleEl 15 7 1
forces-output-coords Positions
ion Ti   0.066670000000000   0.423340000000000   0.132520000000000 1
ion Ti   0.431540000000000   0.049100000000000   0.372230000000000 1
ion Ti   0.054390000000000   0.444570000000000   0.620200000000000 1
ion Ti   0.425450000000000   0.069230000000000   0.874120000000000 1
ion Ti   0.079290000000000   0.935000000000000   0.134420000000000 1
ion Ti   0.419850000000000   0.580400000000000   0.380330000000000 1
ion Ti   0.073870000000000   0.941930000000000   0.621840000000000 1
ion Ti   0.424970000000000   0.547890000000000   0.875040000000000 1
ion Ti   0.565030000000000   0.441870000000000   0.120480000000000 1
ion Ti   0.949420000000000   0.072920000000000   0.382300000000000 1
ion Ti   0.547860000000000   0.430510000000000   0.615120000000000 1
ion Ti   0.934160000000000   0.063730000000000   0.868890000000000 1
ion Ti   0.562910000000000   0.916390000000000   0.102090000000000 1
ion Ti   0.944210000000000   0.545290000000000   0.384820000000000 1
ion Ti   0.556580000000000   0.906260000000000   0.636870000000000 1
ion Ti   0.930510000000000   0.574680000000000   0.878300000000000 1
ion O   0.047280000000000   0.153870000000000   0.387850000000000 1
ion O   0.149350000000000   0.025460000000000   0.120800000000000 1
ion O   0.319410000000000   0.460630000000000   0.384650000000000 1
ion O   0.445110000000000   0.332880000000000   0.124120000000000 1
ion O   0.031490000000000   0.177710000000000   0.879730000000000 1
ion O   0.158610000000000   0.046050000000000   0.648730000000000 1
ion O   0.325460000000000   0.460140000000000   0.890240000000000 1
ion O   0.461770000000000   0.343740000000000   0.636060000000000 1
ion O   0.054700000000000   0.679730000000000   0.364940000000000 1
ion O   0.171160000000000   0.542610000000000   0.111650000000000 1
ion O   0.338300000000000   0.963440000000000   0.384240000000000 1
ion O   0.472410000000000   0.817370000000000   0.122890000000000 1
ion O   0.033950000000000   0.655720000000000   0.872290000000000 1
ion O   0.165510000000000   0.529830000000000   0.627820000000000 1
ion O   0.325580000000000   0.936140000000000   0.891550000000000 1
ion O   0.471840000000000   0.820870000000000   0.629060000000000 1
ion O   0.514620000000000   0.166670000000000   0.381130000000000 1
ion O   0.690200000000000   0.023430000000000   0.115030000000000 1
ion O   0.846120000000000   0.457360000000000   0.365720000000000 1
ion O   0.983260000000000   0.346470000000000   0.116870000000000 1
ion O   0.532810000000000   0.169700000000000   0.888190000000000 1
ion O   0.672420000000000   0.031090000000000   0.635000000000000 1
ion O   0.841300000000000   0.461190000000000   0.871600000000000 1
ion O   0.960390000000000   0.321080000000000   0.644570000000000 1
ion O   0.540070000000000   0.665980000000000   0.375940000000000 1
ion O   0.656110000000000   0.532860000000000   0.121660000000000 1
ion O   0.837460000000000   0.961390000000000   0.382050000000000 1
ion O   0.948030000000000   0.826890000000000   0.109310000000000 1
ion O   0.520070000000000   0.665620000000000   0.874150000000000 1
ion O   0.654090000000000   0.546730000000000   0.632600000000000 1
ion O   0.829390000000000   0.940930000000000   0.856560000000000 1
ion-species GBRV/$ID_pbesol.uspp
ion-width 0
ionic-minimize  \
	dirUpdateScheme      L-BFGS \
	linminMethod         DirUpdateRecommended \
	nIterations          30 \
	history              15 \
	knormThreshold       0.0001 \
	maxThreshold         no \
	energyDiffThreshold  1e-06 \
	nEnergyDiff          2 \
	alphaTstart          1 \
	alphaTmin            1e-10 \
	updateTestStepSize   yes \
	alphaTreduceFactor   0.1 \
	alphaTincreaseFactor 3 \
	nAlphaAdjustMax      3 \
	wolfeEnergy          0.0001 \
	wolfeGradient        0.9 \
	fdTest               no
kpoint   0.500000000000   0.500000000000   0.500000000000  1.00000000000000
kpoint-folding 3 3 3 
latt-move-scale 1 1 1
latt-scale 1 1 1 
lattice  \
	  -7.131561084831314    7.131561084831314    7.131561084831314  \
	   7.131561084831314   -7.131561084831314    7.131561084831314  \
	  18.043228312520839   18.043228312520839  -18.043228312520839 
lattice-minimize  \
	dirUpdateScheme      L-BFGS \
	linminMethod         DirUpdateRecommended \
	nIterations          0 \
	history              15 \
	knormThreshold       0 \
	maxThreshold         no \
	energyDiffThreshold  1e-06 \
	nEnergyDiff          2 \
	alphaTstart          1 \
	alphaTmin            1e-10 \
	updateTestStepSize   yes \
	alphaTreduceFactor   0.1 \
	alphaTincreaseFactor 3 \
	nAlphaAdjustMax      3 \
	wolfeEnergy          0.0001 \
	wolfeGradient        0.9 \
	fdTest               no
lcao-params -1 1e-06 0.01
pcm-variant GLSSA13
perturb-minimize  \
	nIterations            0 \
	algorithm              MINRES \
	residualTol            0.0001 \
	residualDiffThreshold  0.0001 \
	CGBypass               no \
	recomputeResidual      no
spintype no-spin
subspace-rotation-factor 1 yes
symmetries automatic
symmetry-threshold 0.0001



---------- Setting up symmetries ----------

Non-trivial transmission matrix:
[   1   0   0  ]
[   0   1   0  ]
[   1   1   1  ]
with reduced lattice vectors:
[      0.000000     14.263122      7.131561  ]
[     14.263122      0.000000      7.131561  ]
[      0.000000      0.000000    -18.043228  ]

Found 16 point-group symmetries of the bravais lattice
Found 1 space-group symmetries with basis
Applied RMS atom displacement 0 bohrs to make symmetries exact.

---------- Initializing the Grid ----------
R = 
[     -7.13156      7.13156      7.13156  ]
[      7.13156     -7.13156      7.13156  ]
[      18.0432      18.0432     -18.0432  ]
unit cell volume = 3670.65
G =
[          0    0.44052   0.174115  ]
[    0.44052          0   0.174115  ]
[    0.44052    0.44052          0  ]
Minimum fftbox size, Smin = [  96  96  96  ]
Chosen fftbox size, S = [  96  96  96  ]

---------- Initializing tighter grid for wavefunction operations ----------
R = 
[     -7.13156      7.13156      7.13156  ]
[      7.13156     -7.13156      7.13156  ]
[      18.0432      18.0432     -18.0432  ]
unit cell volume = 3670.65
G =
[          0    0.44052   0.174115  ]
[    0.44052          0   0.174115  ]
[    0.44052    0.44052          0  ]
Minimum fftbox size, Smin = [  84  84  84  ]
Chosen fftbox size, S = [  84  84  84  ]

---------- Exchange Correlation functional ----------
Initalized PBEsol GGA exchange.
Initalized PBEsol GGA correlation.

---------- Setting up pseudopotentials ----------
Width of ionic core gaussian charges (only for fluid interactions / plotting) set to 0

Reading pseudopotential file '/home/rc652/build/pseudopotentials/GBRV/ti_pbesol.uspp':
  Title: Ti.  Created by USPP 7.3.6 on 22-9-15
  Reference state energy: -58.948951.  12 valence electrons in orbitals:
    |300>  occupation: 2  eigenvalue: -2.770853
    |310>  occupation: 6  eigenvalue: -1.891454
    |400>  occupation: 2  eigenvalue: -0.439215
    |320>  occupation: 1  eigenvalue: -0.583785
  lMax: 2  lLocal: 3  QijEcut: 6
  6 projectors sampled on a log grid with 597 points:
    l: 0  eig: -2.770853  rCut: 1.8
    l: 0  eig: -0.439215  rCut: 1.8
    l: 1  eig: -1.891454  rCut: 1.8
    l: 1  eig: 0.500000  rCut: 1.8
    l: 2  eig: -0.583785  rCut: 1.8
    l: 2  eig: 0.150000  rCut: 1.8
  Partial core density with radius 0.8
  Transforming core density to a uniform radial grid of dG=0.02 with 3110 points.
  Transforming local potential to a uniform radial grid of dG=0.02 with 3110 points.
  Transforming nonlocal projectors to a uniform radial grid of dG=0.02 with 432 points.
  Transforming density augmentations to a uniform radial grid of dG=0.02 with 3110 points.
  Transforming atomic orbitals to a uniform radial grid of dG=0.02 with 432 points.
  Core radius for overlap checks: 1.80 bohrs.

Reading pseudopotential file '/home/rc652/build/pseudopotentials/GBRV/o_pbesol.uspp':
  Title: O.  Created by USPP 7.3.6 on 3-2-2014
  Reference state energy: -15.849885.  6 valence electrons in orbitals:
    |200>  occupation: 2  eigenvalue: -0.873214
    |210>  occupation: 4  eigenvalue: -0.330058
  lMax: 2  lLocal: 2  QijEcut: 6
  5 projectors sampled on a log grid with 511 points:
    l: 0  eig: -0.873214  rCut: 1.25
    l: 0  eig: 0.000000  rCut: 1.25
    l: 1  eig: -0.330058  rCut: 1.25
    l: 1  eig: 0.000000  rCut: 1.25
    l: 2  eig: 1.000000  rCut: 1.25
  Partial core density with radius 0.7
  Transforming core density to a uniform radial grid of dG=0.02 with 3110 points.
  Transforming local potential to a uniform radial grid of dG=0.02 with 3110 points.
  Transforming nonlocal projectors to a uniform radial grid of dG=0.02 with 432 points.
  Transforming density augmentations to a uniform radial grid of dG=0.02 with 3110 points.
  Transforming atomic orbitals to a uniform radial grid of dG=0.02 with 432 points.
  Core radius for overlap checks: 1.25 bohrs.

Initialized 2 species with 47 total atoms.

Folded 1 k-points by 3x3x3 to 27 k-points.

---------- Setting up k-points, bands, fillings ----------
Adding inversion symmetry to k-mesh for non-inversion-symmetric unit cell.
Reduced to 14 k-points under symmetry. 
Computing the number of bands and number of electrons
Calculating initial fillings.
nElectrons: 378.000000   nBands: 284   nStates: 14

----- Setting up reduced wavefunction bases (one per k-point) -----
average nbasis = 15672.148 , ideal nbasis = 15681.314

---------- Setting up ewald sum ----------
Optimum gaussian width for ewald sums = 3.322148 bohr.
Real space sum over 891 unit cells with max indices [  4  4  5  ]
Reciprocal space sum over 12167 terms with max indices [  11  11  11  ]

---------- Allocating electronic variables ----------
Initializing wave functions:  linear combination of atomic orbitals
Ti pseudo-atom occupations:   s ( 2 0 )  p ( 6 )  d ( 4 )
O pseudo-atom occupations:   s ( 2 )  p ( 4 )
	FillingsUpdate:  mu: +0.463749666  nElectrons: 378.000000
LCAOMinimize: Iter:   0  F: -1409.9222092394995798  |grad|_K:  5.191e-03  alpha:  1.000e+00
	FillingsUpdate:  mu: +0.456937325  nElectrons: 378.000000
LCAOMinimize: Iter:   1  F: -1411.5626674881668805  |grad|_K:  5.090e-03  alpha:  5.269e-02  linmin: -2.299e-01  cgtest:  9.459e-01  t[s]:     70.45
LCAOMinimize: 	Wrong curvature in test step, increasing alphaT to 1.580556e-01.
	FillingsUpdate:  mu: +0.449253784  nElectrons: 378.000000
LCAOMinimize: Iter:   2  F: -1413.2139021897623934  |grad|_K:  5.026e-03  alpha: -1.001e+00  linmin: -2.446e-01  cgtest:  9.343e-01  t[s]:     94.96
	FillingsUpdate:  mu: +0.440678433  nElectrons: 378.000000
LCAOMinimize: Iter:   3  F: -1414.8349503305450980  |grad|_K:  4.991e-03  alpha:  5.154e-02  linmin: -2.588e-01  cgtest:  9.263e-01  t[s]:    120.36
LCAOMinimize: 	Wrong curvature in test step, increasing alphaT to 1.546255e-01.
	FillingsUpdate:  mu: +0.431024664  nElectrons: 378.000000
LCAOMinimize: Iter:   4  F: -1416.4693736434646780  |grad|_K:  4.971e-03  alpha: -6.407e-01  linmin: -2.729e-01  cgtest:  9.183e-01  t[s]:    145.35
	FillingsUpdate:  mu: +0.420349147  nElectrons: 378.000000
LCAOMinimize: Iter:   5  F: -1418.1391290381156978  |grad|_K:  4.952e-03  alpha:  5.213e-02  linmin: -2.879e-01  cgtest:  9.109e-01  t[s]:    170.94
LCAOMinimize: 	Wrong curvature in test step, increasing alphaT to 1.563844e-01.
	FillingsUpdate:  mu: +0.409169679  nElectrons: 378.000000
LCAOMinimize: Iter:   6  F: -1419.8150815264211815  |grad|_K:  4.916e-03  alpha: -5.640e-01  linmin: -3.045e-01  cgtest:  9.062e-01  t[s]:    195.80
	FillingsUpdate:  mu: +0.397986237  nElectrons: 378.000000
LCAOMinimize: Iter:   7  F: -1421.4936243372244462  |grad|_K:  4.845e-03  alpha:  5.289e-02  linmin: -3.248e-01  cgtest:  9.024e-01  t[s]:    220.95
LCAOMinimize: 	Wrong curvature in test step, increasing alphaT to 1.586635e-01.
	FillingsUpdate:  mu: +0.387905506  nElectrons: 378.000000
LCAOMinimize: Iter:   8  F: -1423.1117149347066970  |grad|_K:  4.723e-03  alpha: -6.581e-01  linmin: -3.520e-01  cgtest:  9.017e-01  t[s]:    245.98
	FillingsUpdate:  mu: +0.380141001  nElectrons: 378.000000
LCAOMinimize: Iter:   9  F: -1424.5827340463472410  |grad|_K:  4.540e-03  alpha:  5.164e-02  linmin: -3.679e-01  cgtest:  9.064e-01  t[s]:    271.12
LCAOMinimize: 	Wrong curvature in test step, increasing alphaT to 1.549279e-01.
	FillingsUpdate:  mu: +0.375171995  nElectrons: 378.000000
LCAOMinimize: Iter:  10  F: -1425.8976195168761478  |grad|_K:  4.281e-03  alpha: -1.339e+00  linmin: -3.684e-01  cgtest:  9.116e-01  t[s]:    296.27
	FillingsUpdate:  mu: +0.373186140  nElectrons: 378.000000
LCAOMinimize: Iter:  11  F: -1426.9301189220752804  |grad|_K:  3.971e-03  alpha:  4.762e-02  linmin: -3.720e-01  cgtest:  9.266e-01  t[s]:    321.68
LCAOMinimize: 	Predicted alpha/alphaT>3.000000, increasing alphaT to 1.428738e-01.
LCAOMinimize: 	Predicted alpha/alphaT>3.000000, increasing alphaT to 4.286215e-01.
	FillingsUpdate:  mu: +0.373001789  nElectrons: 378.000000
LCAOMinimize: Iter:  12  F: -1428.0506894609841311  |grad|_K:  3.469e-03  alpha:  6.356e-02  linmin: -3.860e-01  cgtest:  9.134e-01  t[s]:    360.56
LCAOMinimize: Encountered beta<0, resetting CG.
LCAOMinimize: 	Predicted alpha/alphaT>3.000000, increasing alphaT to 1.906711e-01.
LCAOMinimize: 	Step increased F by 1.528775e+01, reducing alpha to 4.500438e-02.
	FillingsUpdate:  mu: +0.373534284  nElectrons: 378.000000
LCAOMinimize: Iter:  13  F: -1428.6508509443767707  |grad|_K:  3.104e-03  alpha:  4.500e-02  linmin: -3.955e-01  cgtest:  9.459e-01  t[s]:    411.76
LCAOMinimize: Encountered beta<0, resetting CG.
LCAOMinimize: 	Predicted alpha/alphaT>3.000000, increasing alphaT to 1.350132e-01.
LCAOMinimize: 	Predicted alpha/alphaT>3.000000, increasing alphaT to 4.050395e-01.
	FillingsUpdate:  mu: +0.377074609  nElectrons: 378.000000
LCAOMinimize: Iter:  14  F: -1429.5655274754897164  |grad|_K:  2.283e-03  alpha:  9.080e-02  linmin: -4.224e-01  cgtest:  8.935e-01  t[s]:    450.37
LCAOMinimize: Encountered beta<0, resetting CG.
LCAOMinimize: 	Predicted alpha/alphaT>3.000000, increasing alphaT to 2.724092e-01.
	FillingsUpdate:  mu: +0.404899011  nElectrons: 378.000000
LCAOMinimize: Iter:  15  F: -1430.3027538345027097  |grad|_K:  1.155e-03  alpha:  2.058e-01  linmin:  3.283e-02  cgtest:  5.640e-02  t[s]:    482.49
	FillingsUpdate:  mu: +0.401511474  nElectrons: 378.000000
LCAOMinimize: Iter:  16  F: -1430.3812540248677578  |grad|_K:  3.646e-04  alpha:  1.221e-01  linmin:  2.477e-03  cgtest:  2.483e-01  t[s]:    507.96
	FillingsUpdate:  mu: +0.409628421  nElectrons: 378.000000
LCAOMinimize: Iter:  17  F: -1430.3921572755996294  |grad|_K:  1.970e-04  alpha:  1.437e-01  linmin: -1.194e-02  cgtest:  7.766e-03  t[s]:    533.38
	FillingsUpdate:  mu: +0.404677511  nElectrons: 378.000000
LCAOMinimize: Iter:  18  F: -1430.3963666072420438  |grad|_K:  1.459e-04  alpha:  1.882e-01  linmin:  5.744e-03  cgtest: -6.069e-02  t[s]:    558.77
	FillingsUpdate:  mu: +0.411597366  nElectrons: 378.000000
LCAOMinimize: Iter:  19  F: -1430.3991521163184188  |grad|_K:  1.028e-04  alpha:  2.371e-01  linmin:  1.222e-02  cgtest:  4.227e-02  t[s]:    584.56
	FillingsUpdate:  mu: +0.411196251  nElectrons: 378.000000
LCAOMinimize: Iter:  20  F: -1430.4003633018771779  |grad|_K:  4.631e-05  alpha:  2.091e-01  linmin:  2.255e-03  cgtest:  8.993e-02  t[s]:    609.75
	FillingsUpdate:  mu: +0.411308947  nElectrons: 378.000000
LCAOMinimize: Iter:  21  F: -1430.4005243673614132  |grad|_K:  2.153e-05  alpha:  1.331e-01  linmin:  2.729e-04  cgtest: -7.145e-03  t[s]:    634.97
	FillingsUpdate:  mu: +0.411513507  nElectrons: 378.000000
LCAOMinimize: Iter:  22  F: -1430.4005716953374758  |grad|_K:  1.143e-05  alpha:  1.797e-01  linmin:  3.368e-04  cgtest: -1.784e-03  t[s]:    660.48
	FillingsUpdate:  mu: +0.411491848  nElectrons: 378.000000
LCAOMinimize: Iter:  23  F: -1430.4005866386637535  |grad|_K:  7.006e-06  alpha:  2.014e-01  linmin:  3.345e-04  cgtest:  1.737e-03  t[s]:    685.75
	FillingsUpdate:  mu: +0.411390746  nElectrons: 378.000000
LCAOMinimize: Iter:  24  F: -1430.4005926071517933  |grad|_K:  4.341e-06  alpha:  2.140e-01  linmin: -2.802e-04  cgtest:  1.326e-03  t[s]:    711.42
	FillingsUpdate:  mu: +0.411430021  nElectrons: 378.000000
LCAOMinimize: Iter:  25  F: -1430.4005944218783952  |grad|_K:  1.690e-06  alpha:  1.693e-01  linmin:  2.272e-06  cgtest: -2.063e-03  t[s]:    737.17
	FillingsUpdate:  mu: +0.411489105  nElectrons: 378.000000
LCAOMinimize: Iter:  26  F: -1430.4005946539052729  |grad|_K:  9.843e-07  alpha:  1.429e-01  linmin:  5.729e-05  cgtest: -5.216e-05  t[s]:    762.61
	FillingsUpdate:  mu: +0.411447639  nElectrons: 378.000000
LCAOMinimize: Iter:  27  F: -1430.4005947346634002  |grad|_K:  5.598e-07  alpha:  1.466e-01  linmin: -1.985e-04  cgtest:  1.380e-03  t[s]:    787.72
LCAOMinimize: Converged (|Delta F|<1.000000e-06 for 2 iters).


---- Citations for features of the code used in this run ----

   Software package:
      R. Sundararaman, K. Letchworth-Weaver, K.A. Schwarz, D. Gunceler, Y. Ozhabes and T.A. Arias, 'JDFTx: software for joint density-functional theory', SoftwareX 6, 278 (2017)

   gga-PBEsol exchange-correlation functional:
      J.P. Perdew et al., Phys. Rev. Lett. 100, 136406 (2008)

   Pseudopotentials:
      KF Garrity, JW Bennett, KM Rabe and D Vanderbilt, Comput. Mater. Sci. 81, 446 (2014)

This list may not be complete. Please suggest additional citations or
report any other bugs at https://github.com/shankar1729/jdftx/issues

Initialization completed successfully at t[s]:    793.64


-------- Electronic minimization -----------
Will mix electronic density at each iteration.
	FillingsUpdate:  mu: +0.411447639  nElectrons: 378.000000
	FillingsUpdate:  mu: +0.383646306  nElectrons: 378.000000
SCF: Cycle:  0   F: -1431.209523080578265   dF: -8.089e-01   |Residual|: 1.458e+00   |deigs|: 4.080e-02  t[s]:    874.46
	FillingsUpdate:  mu: +0.352127962  nElectrons: 378.000000
SCF: Cycle:  1   F: -1432.132135467742728   dF: -9.226e-01   |Residual|: 5.083e-01   |deigs|: 4.606e-02  t[s]:    935.56
	FillingsUpdate:  mu: +0.330766221  nElectrons: 378.000000
SCF: Cycle:  2   F: -1432.345115076759384   dF: -2.130e-01   |Residual|: 3.833e-01   |deigs|: 2.834e-02  t[s]:    998.36
	FillingsUpdate:  mu: +0.332474107  nElectrons: 378.000000
SCF: Cycle:  3   F: -1432.578615598414217   dF: -2.335e-01   |Residual|: 1.066e-01   |deigs|: 7.791e-03  t[s]:   1061.25
	FillingsUpdate:  mu: +0.331892359  nElectrons: 378.000000
SCF: Cycle:  4   F: -1432.603020540574107   dF: -2.440e-02   |Residual|: 4.870e-02   |deigs|: 1.517e-03  t[s]:   1122.60
	FillingsUpdate:  mu: +0.329240004  nElectrons: 378.000000
SCF: Cycle:  5   F: -1432.603836207737004   dF: -8.157e-04   |Residual|: 4.114e-02   |deigs|: 1.252e-03  t[s]:   1184.82
	FillingsUpdate:  mu: +0.329756039  nElectrons: 378.000000
SCF: Cycle:  6   F: -1432.607394893322635   dF: -3.559e-03   |Residual|: 1.936e-02   |deigs|: 6.741e-04  t[s]:   1245.70
	FillingsUpdate:  mu: +0.329676882  nElectrons: 378.000000
SCF: Cycle:  7   F: -1432.608057598742789   dF: -6.627e-04   |Residual|: 6.972e-03   |deigs|: 3.262e-04  t[s]:   1285.86
	FillingsUpdate:  mu: +0.329750874  nElectrons: 378.000000
SCF: Cycle:  8   F: -1432.608145583145870   dF: -8.798e-05   |Residual|: 2.921e-03   |deigs|: 1.612e-04  t[s]:   1326.90
	FillingsUpdate:  mu: +0.329788034  nElectrons: 378.000000
SCF: Cycle:  9   F: -1432.608157772746608   dF: -1.219e-05   |Residual|: 2.049e-03   |deigs|: 7.852e-05  t[s]:   1368.39
	FillingsUpdate:  mu: +0.329728828  nElectrons: 378.000000
SCF: Cycle: 10   F: -1432.608165298080166   dF: -7.525e-06   |Residual|: 1.000e-03   |deigs|: 5.056e-05  t[s]:   1409.40
	FillingsUpdate:  mu: +0.329721720  nElectrons: 378.000000
SCF: Cycle: 11   F: -1432.608166621074361   dF: -1.323e-06   |Residual|: 4.592e-04   |deigs|: 2.826e-05  t[s]:   1450.34
	FillingsUpdate:  mu: +0.329712564  nElectrons: 378.000000
SCF: Cycle: 12   F: -1432.608166990549080   dF: -3.695e-07   |Residual|: 3.201e-04   |deigs|: 1.425e-05  t[s]:   1490.58
	FillingsUpdate:  mu: +0.329707697  nElectrons: 378.000000
SCF: Cycle: 13   F: -1432.608167178291978   dF: -1.877e-07   |Residual|: 1.704e-04   |deigs|: 7.896e-06  t[s]:   1531.12
	FillingsUpdate:  mu: +0.329706147  nElectrons: 378.000000
SCF: Cycle: 14   F: -1432.608167231645666   dF: -5.335e-08   |Residual|: 8.392e-05   |deigs|: 4.586e-06  t[s]:   1572.58
	FillingsUpdate:  mu: +0.329705508  nElectrons: 378.000000
SCF: Cycle: 15   F: -1432.608167243771959   dF: -1.213e-08   |Residual|: 3.738e-05   |deigs|: 1.825e-06  t[s]:   1613.10
	FillingsUpdate:  mu: +0.329705026  nElectrons: 378.000000
SCF: Cycle: 16   F: -1432.608167245730556   dF: -1.959e-09   |Residual|: 2.200e-05   |deigs|: 8.775e-07  t[s]:   1654.15
	FillingsUpdate:  mu: +0.329705667  nElectrons: 378.000000
SCF: Cycle: 17   F: -1432.608167246152107   dF: -4.216e-10   |Residual|: 1.548e-05   |deigs|: 7.009e-07  t[s]:   1694.88
SCF: Converged (|Delta E|<1.000000e-08 for 2 iters).

Setting wave functions to eigenvectors of Hamiltonian

# Ionic positions in lattice coordinates:
ion Ti   0.066670000000000   0.423340000000000   0.132520000000000 1
ion Ti   0.431540000000000   0.049100000000000   0.372230000000000 1
ion Ti   0.054390000000000   0.444570000000000   0.620200000000000 1
ion Ti   0.425450000000000   0.069230000000000   0.874120000000000 1
ion Ti   0.079290000000000   0.935000000000000   0.134420000000000 1
ion Ti   0.419850000000000   0.580400000000000   0.380330000000000 1
ion Ti   0.073870000000000   0.941930000000000   0.621840000000000 1
ion Ti   0.424970000000000   0.547890000000000   0.875040000000000 1
ion Ti   0.565030000000000   0.441870000000000   0.120480000000000 1
ion Ti   0.949420000000000   0.072920000000000   0.382300000000000 1
ion Ti   0.547860000000000   0.430510000000000   0.615120000000000 1
ion Ti   0.934160000000000   0.063730000000000   0.868890000000000 1
ion Ti   0.562910000000000   0.916390000000000   0.102090000000000 1
ion Ti   0.944210000000000   0.545290000000000   0.384820000000000 1
ion Ti   0.556580000000000   0.906260000000000   0.636870000000000 1
ion Ti   0.930510000000000   0.574680000000000   0.878300000000000 1
ion O   0.047280000000000   0.153870000000000   0.387850000000000 1
ion O   0.149350000000000   0.025460000000000   0.120800000000000 1
ion O   0.319410000000000   0.460630000000000   0.384650000000000 1
ion O   0.445110000000000   0.332880000000000   0.124120000000000 1
ion O   0.031490000000000   0.177710000000000   0.879730000000000 1
ion O   0.158610000000000   0.046050000000000   0.648730000000000 1
ion O   0.325460000000000   0.460140000000000   0.890240000000000 1
ion O   0.461770000000000   0.343740000000000   0.636060000000000 1
ion O   0.054700000000000   0.679730000000000   0.364940000000000 1
ion O   0.171160000000000   0.542610000000000   0.111650000000000 1
ion O   0.338300000000000   0.963440000000000   0.384240000000000 1
ion O   0.472410000000000   0.817370000000000   0.122890000000000 1
ion O   0.033950000000000   0.655720000000000   0.872290000000000 1
ion O   0.165510000000000   0.529830000000000   0.627820000000000 1
ion O   0.325580000000000   0.936140000000000   0.891550000000000 1
ion O   0.471840000000000   0.820870000000000   0.629060000000000 1
ion O   0.514620000000000   0.166670000000000   0.381130000000000 1
ion O   0.690200000000000   0.023430000000000   0.115030000000000 1
ion O   0.846120000000000   0.457360000000000   0.365720000000000 1
ion O   0.983260000000000   0.346470000000000   0.116870000000000 1
ion O   0.532810000000000   0.169700000000000   0.888190000000000 1
ion O   0.672420000000000   0.031090000000000   0.635000000000000 1
ion O   0.841300000000000   0.461190000000000   0.871600000000000 1
ion O   0.960390000000000   0.321080000000000   0.644570000000000 1
ion O   0.540070000000000   0.665980000000000   0.375940000000000 1
ion O   0.656110000000000   0.532860000000000   0.121660000000000 1
ion O   0.837460000000000   0.961390000000000   0.382050000000000 1
ion O   0.948030000000000   0.826890000000000   0.109310000000000 1
ion O   0.520070000000000   0.665620000000000   0.874150000000000 1
ion O   0.654090000000000   0.546730000000000   0.632600000000000 1
ion O   0.829390000000000   0.940930000000000   0.856560000000000 1

# Forces in Lattice coordinates:
force Ti   9.418439212090661  10.638286153801966  -9.836839521021325 1
force Ti   1.299427784342034   0.641188948658503  -0.768095010793471 1
force Ti  -1.509371884093174  -2.043908371650178   2.241299189569990 1
force Ti  -0.076774399015940   0.067080667238382   1.111418346978267 1
force Ti  -2.376060168621153  -2.221307842227417   2.070580309533101 1
force Ti  -0.213038820510655  -2.201473449120151  -0.068792508450699 1
force Ti  -3.707686809202613  -3.688893566415887   3.219876180584059 1
force Ti   1.325729877519112   1.230240947441323  -1.116762290106511 1
force Ti  -2.175970243874232  -1.701057651731266   1.947527289975078 1
force Ti  -2.922933296251145  -2.211020219763215   2.509270671587436 1
force Ti   0.974122599750234   0.508719197683001  -0.461608375329264 1
force Ti  -0.643236280074067  -0.058115182525283   0.136840806181119 1
force Ti   0.091719029496898  -0.253619831166414   0.579282125434658 1
force Ti   3.308910251463668   3.531614600847611  -3.668117674475107 1
force Ti   5.628410226160780   5.648368724616623  -5.416512169867323 1
force Ti  -1.388809971606077  -1.636742539634936   1.295076264365619 1
force O   2.415231152350130   2.654555362189309  -2.393823074361568 1
force O   2.273533279613158   2.472925835502298  -2.466642191410133 1
force O   0.894030438750141   0.361541272331072  -0.389695761505196 1
force O   0.171179943093914  -0.418478071745971  -0.009433206342681 1
force O   0.955854269082360  -1.155576230679386  -0.926502691446332 1
force O   3.949942837560406   3.700022353355394  -3.624586336443401 1
force O   0.082039461863362   0.185071242573663  -0.315190904380479 1
force O  -1.429791708997261  -1.305218089787145   1.478561746769016 1
force O  -0.961901475850623  -0.224075037598160   1.020592024498768 1
force O   0.243248731607936  -0.095331170996888   0.396192701451720 1
force O  -0.897063153531172  -1.200770784167799   1.229997127273807 1
force O  -1.042781016828354  -0.461055376452947   1.017407032340767 1
force O   1.669992341989857   1.380440026690374  -1.749545735700509 1
force O   0.539979575089268   0.719148115502479  -0.710862285585473 1
force O   0.387806307013916   1.230438786899889  -1.076825322804018 1
force O  -4.287366752128666  -2.830691671048108   4.233362046050063 1
force O   0.932083754544477   0.359254086566117  -0.921493821215893 1
force O  -0.975345702038791   0.090133044474282   0.099277232426603 1
force O  -2.983863219166938  -2.855346897899636   2.815223134779794 1
force O -11.448177039591915 -10.398372412018965  11.080163280599900 1
force O   0.463214039547929   0.086047264573797  -0.511466677595100 1
force O   0.591970353340651   0.592445937604106  -0.574433743620213 1
force O  -0.862749267331047  -0.688420566981005   0.743374527685091 1
force O   0.875322587260726   0.740585061124253  -1.141661387623046 1
force O   0.012274441055290  -0.169064454414179   0.046236130565172 1
force O   1.321727170775825   0.923383351294025  -0.979466173742047 1
force O  -0.393051517487769  -0.237430952259030   0.243777036377127 1
force O  -0.007048592686258   0.213194522579208   0.263471525570406 1
force O   0.668631409389577  -0.094536548658853  -0.566988894474581 1
force O   0.192574618253496   0.548071310904476  -0.604939890059378 1
force O  -0.371582695068724  -0.358705176443950   0.507398997353786 1

# Energy components:
   Eewald =     -934.4323018856198360
       EH =      429.3255937028751532
     Eloc =    -1284.8623651221519140
      Enl =      157.8092954062856847
      Exc =     -255.5663591089407305
 Exc_core =       22.4219527578590814
       KE =      432.7498072403227525
-------------------------------------
     Etot =    -1432.5543770093697731
       TS =        0.0537902367822410
-------------------------------------
        F =    -1432.6081672461521066

IonicMinimize: Iter:   0  F: -1432.608167246152107  |grad|_K:  9.353e-02  t[s]:   1708.43

#--- Lowdin population analysis ---
# oxidation-state Ti +1.272 +1.565 +1.493 +1.486 +1.500 +1.491 +1.370 +1.504 +1.492 +1.476 +1.560 +1.432 +1.533 +1.277 +1.435 +1.517
# oxidation-state O -0.677 -0.687 -0.746 -0.741 -0.736 -0.526 -0.701 -0.753 -0.806 -0.722 -0.743 -0.745 -0.720 -0.671 -0.764 -0.495 -0.713 -0.773 -0.577 -0.384 -0.726 -0.746 -0.775 -0.758 -0.711 -0.679 -0.799 -0.764 -0.689 -0.804 -0.801


-------- Electronic minimization -----------
Will mix electronic density at each iteration.
	FillingsUpdate:  mu: +0.329705667  nElectrons: 378.000000
	FillingsUpdate:  mu: +0.334702884  nElectrons: 378.000000
SCF: Cycle:  0   F: -1432.153772553657291   dF: +9.669e-02   |Residual|: 6.482e-01   |deigs|: 2.481e-03  t[s]:   1796.84
	FillingsUpdate:  mu: +0.331818065  nElectrons: 378.000000
SCF: Cycle:  1   F: -1432.707005875969799   dF: -5.532e-01   |Residual|: 2.607e-01   |deigs|: 9.807e-03  t[s]:   1859.29
	FillingsUpdate:  mu: +0.332169347  nElectrons: 378.000000
SCF: Cycle:  2   F: -1432.719061596115580   dF: -1.206e-02   |Residual|: 1.413e-01   |deigs|: 3.507e-03  t[s]:   1921.89
	FillingsUpdate:  mu: +0.328906325  nElectrons: 378.000000
SCF: Cycle:  3   F: -1432.741440055923476   dF: -2.238e-02   |Residual|: 1.137e-01   |deigs|: 2.423e-03  t[s]:   1984.36
	FillingsUpdate:  mu: +0.332116345  nElectrons: 378.000000
SCF: Cycle:  4   F: -1432.775720123912151   dF: -3.428e-02   |Residual|: 4.836e-02   |deigs|: 1.664e-03  t[s]:   2046.39
	FillingsUpdate:  mu: +0.330646264  nElectrons: 378.000000
SCF: Cycle:  5   F: -1432.778328752082871   dF: -2.609e-03   |Residual|: 2.928e-02   |deigs|: 8.391e-04  t[s]:   2108.47
	FillingsUpdate:  mu: +0.331002736  nElectrons: 378.000000
SCF: Cycle:  6   F: -1432.780551236211068   dF: -2.222e-03   |Residual|: 1.047e-02   |deigs|: 5.395e-04  t[s]:   2161.30
	FillingsUpdate:  mu: +0.330896714  nElectrons: 378.000000
SCF: Cycle:  7   F: -1432.780859579002936   dF: -3.083e-04   |Residual|: 4.858e-03   |deigs|: 2.495e-04  t[s]:   2201.97
	FillingsUpdate:  mu: +0.330882661  nElectrons: 378.000000
SCF: Cycle:  8   F: -1432.780909635053604   dF: -5.006e-05   |Residual|: 2.663e-03   |deigs|: 1.091e-04  t[s]:   2242.65
	FillingsUpdate:  mu: +0.330859412  nElectrons: 378.000000
SCF: Cycle:  9   F: -1432.780931018971387   dF: -2.138e-05   |Residual|: 1.220e-03   |deigs|: 6.383e-05  t[s]:   2283.09
	FillingsUpdate:  mu: +0.330834617  nElectrons: 378.000000
SCF: Cycle: 10   F: -1432.780936113748339   dF: -5.095e-06   |Residual|: 7.392e-04   |deigs|: 3.475e-05  t[s]:   2324.42
	FillingsUpdate:  mu: +0.330838596  nElectrons: 378.000000
SCF: Cycle: 11   F: -1432.780936845494807   dF: -7.317e-07   |Residual|: 4.559e-04   |deigs|: 1.738e-05  t[s]:   2365.17
	FillingsUpdate:  mu: +0.330832283  nElectrons: 378.000000
SCF: Cycle: 12   F: -1432.780937391431962   dF: -5.459e-07   |Residual|: 2.186e-04   |deigs|: 9.801e-06  t[s]:   2406.35
	FillingsUpdate:  mu: +0.330831836  nElectrons: 378.000000
SCF: Cycle: 13   F: -1432.780937457445134   dF: -6.601e-08   |Residual|: 1.054e-04   |deigs|: 4.135e-06  t[s]:   2448.16
	FillingsUpdate:  mu: +0.330832582  nElectrons: 378.000000
SCF: Cycle: 14   F: -1432.780937477022917   dF: -1.958e-08   |Residual|: 4.892e-05   |deigs|: 1.905e-06  t[s]:   2489.06
	FillingsUpdate:  mu: +0.330831011  nElectrons: 378.000000
SCF: Cycle: 15   F: -1432.780937479790737   dF: -2.768e-09   |Residual|: 2.656e-05   |deigs|: 1.095e-06  t[s]:   2531.44
	FillingsUpdate:  mu: +0.330831820  nElectrons: 378.000000
SCF: Cycle: 16   F: -1432.780937481018327   dF: -1.228e-09   |Residual|: 1.256e-05   |deigs|: 6.389e-07  t[s]:   2572.41
SCF: Converged (|Delta E|<1.000000e-08 for 2 iters).

Setting wave functions to eigenvectors of Hamiltonian

# Ionic positions in lattice coordinates:
ion Ti   0.068865445586100   0.426521905772847   0.132829795573669 1
ion Ti   0.432214798850489   0.049242477362700   0.372557085593761 1
ion Ti   0.054532950216549   0.444280665085827   0.620951557930028 1
ion Ti   0.426285428800824   0.070181749422028   0.875909769103302 1
ion Ti   0.078462109662168   0.934297242745083   0.134051102843587 1
ion Ti   0.419317003049437   0.578258970846963   0.378266186028654 1
ion Ti   0.072541025299848   0.940616210175309   0.621066257954841 1
ion Ti   0.425461846853340   0.548304613335583   0.875300789138114 1
ion Ti   0.564355411861072   0.441579454068579   0.120494609301562 1
ion Ti   0.948436834718380   0.072512535899514   0.382206699165932 1
ion Ti   0.548461747961123   0.430735369788757   0.615572592314754 1
ion Ti   0.933661831826773   0.063704998109657   0.868544180753902 1
ion Ti   0.563432127019448   0.916632843360784   0.102896019152155 1
ion Ti   0.944783657025670   0.546043741958233   0.384419157235742 1
ion Ti   0.558175952274342   0.907872079475749   0.637228889515591 1
ion Ti   0.930051919733494   0.574021407179973   0.877947929504157 1
ion O   0.047937750788740   0.154721275969771   0.388078194338114 1
ion O   0.149793426620964   0.026064659632498   0.120648948395915 1
ion O   0.319976421310216   0.460765791819436   0.385035111625768 1
ion O   0.445209511505271   0.332502650367150   0.123904787836097 1
ion O   0.031488455886701   0.176000958645197   0.878070019509487 1
ion O   0.159839514217289   0.047077394063787   0.649054146672451 1
ion O   0.325305150261936   0.460068457663657   0.889946259118124 1
ion O   0.461463865973953   0.343534593958878   0.636239651609613 1
ion O   0.054597584304115   0.680224241258116   0.365631625735201 1
ion O   0.171695745743363   0.542871927959454   0.112410441216441 1
ion O   0.338304162420230   0.963198545354442   0.384532905352216 1
ion O   0.472199445945926   0.817629866370131   0.123319425583359 1
ion O   0.034270991337656   0.655806821477203   0.871927207039273 1
ion O   0.165530831703483   0.529995709836843   0.627688541553380 1
ion O   0.325227190907377   0.936468603039937   0.891117056400459 1
ion O   0.470897024900876   0.821105004688281   0.630150678419131 1
ion O   0.514791655330800   0.166378403041186   0.380683919903209 1
ion O   0.689379654508975   0.023471279297457   0.114474740507241 1
ion O   0.845245883046558   0.456589799439438   0.365551206973574 1
ion O   0.980202379270977   0.344261328618912   0.117123778529881 1
ion O   0.532840320583283   0.169425298135915   0.887806979418131 1
ion O   0.672583765171142   0.031254136812607   0.635028779194174 1
ion O   0.841007449022797   0.461038413245256   0.871547935192286 1
ion O   0.960378711180854   0.320959737872954   0.644030302105186 1
ion O   0.540097460126664   0.665860800943814   0.375888018508547 1
ion O   0.656670367105766   0.533098219078988   0.121891459657536 1
ion O   0.837259583745475   0.961315418960980   0.381934447180693 1
ion O   0.948263360274222   0.827301454841211   0.109902870169854 1
ion O   0.520224676020356   0.665157499820343   0.873697261888753 1
ion O   0.653850046201587   0.546777518443026   0.632220568528423 1
ion O   0.829407523843391   0.940957924755544   0.856790110727729 1

# Forces in Lattice coordinates:
force Ti   5.419173962263391   6.588455935600265  -6.024709720818246 1
force Ti   1.152360649344029   0.565148945234819  -0.680744766088252 1
force Ti  -1.361936404635030  -1.876074865170504   2.018838534054057 1
force Ti  -0.056449795416618   0.027292710505406   1.009865171721401 1
force Ti  -2.030329004168462  -1.864830457343551   1.752295772368420 1
force Ti  -0.052009150380318  -1.834714307283196  -0.092193621606841 1
force Ti  -2.896375242973272  -2.831134817998579   2.468184753113791 1
force Ti   1.251542398331599   1.150533285000374  -1.049066331917798 1
force Ti  -1.953153970475504  -1.537183153907428   1.763899460408608 1
force Ti  -2.523112983582676  -1.865161280968757   2.145985115782333 1
force Ti   0.887352524301115   0.390321730013977  -0.354016312023213 1
force Ti  -0.600647224511230   0.000467074326627   0.181876202216759 1
force Ti   0.027351389216554  -0.250576008678389   0.559854782833940 1
force Ti   2.831388810426346   2.952608209269514  -3.195889356077848 1
force Ti   4.518292193313647   4.513932358175113  -4.339180027956921 1
force Ti  -1.254805619571808  -1.444009217594810   1.122042833785271 1
force O   2.029644489003619   2.282245720050183  -2.023324267044527 1
force O   1.988473461307027   2.128505277972264  -2.140788540572146 1
force O   0.838518394922531   0.412410205285645  -0.455710930749775 1
force O   0.154727535103631  -0.378761983542996   0.014630805880784 1
force O   0.813532450221851  -0.992985757691237  -0.766431982897757 1
force O   3.201564126124407   2.899590035222970  -2.893095493689180 1
force O   0.097383640282453   0.192194402823379  -0.316087834819619 1
force O  -1.297906059911089  -1.202554048491224   1.345487999423763 1
force O  -0.930094920129866  -0.304792003002820   0.988248871444123 1
force O   0.110169087547142  -0.186642133524353   0.458658995535241 1
force O  -0.829644363331383  -1.114062100752118   1.132966026088628 1
force O  -0.979568216221046  -0.412066077612542   0.957784721153351 1
force O   1.486764955057891   1.229901218099942  -1.563989039703863 1
force O   0.462197185256673   0.669728783773571  -0.642933503535907 1
force O   0.406882110943844   1.185943185568421  -1.042558581551878 1
force O  -3.304022915177135  -2.006466325069781   3.221333960313117 1
force O   0.940125630560026   0.403559038641011  -0.924592128921461 1
force O  -0.973023639881472   0.048785159756504   0.152948885477618 1
force O  -2.470036113700171  -2.369893428981472   2.351159927609054 1
force O  -7.391004108923986  -6.526419964257630   7.214898845536563 1
force O   0.453746086986352   0.101953419254978  -0.498225464698253 1
force O   0.510901014890818   0.541395133741688  -0.539438983632180 1
force O  -0.801685339343213  -0.669258839681967   0.723032130367633 1
force O   0.834891386527410   0.745115224290493  -1.102827592891549 1
force O  -0.004886272593115  -0.179476898872825   0.058443732372691 1
force O   1.170255103250131   0.797828184864291  -0.839424506895908 1
force O  -0.369933160968145  -0.227397537215675   0.229795456275935 1
force O   0.002730525567842   0.169479312565161   0.248625958949023 1
force O   0.668087260384467  -0.060924919624338  -0.566084057228492 1
force O   0.193935423753029   0.492597987928903  -0.564166389547165 1
force O  -0.363269636334146  -0.346135220565427   0.485673213807738 1

# Energy components:
   Eewald =     -937.7679011309717225
       EH =      426.1415324946302690
     Eloc =    -1277.8711013777274275
      Enl =      157.5875031546091805
      Exc =     -255.3848573735633067
 Exc_core =       22.4219513040497382
       KE =      432.1429340392710969
-------------------------------------
     Etot =    -1432.7299388897019981
       TS =        0.0509985913163501
-------------------------------------
        F =    -1432.7809374810183272

IonicMinimize: Iter:   1  F: -1432.780937481018327  |grad|_K:  6.809e-02  alpha:  1.645e-01  linmin: -9.866e-01  t[s]:   2585.92

#--- Lowdin population analysis ---
# oxidation-state Ti +1.365 +1.568 +1.502 +1.493 +1.509 +1.498 +1.387 +1.508 +1.499 +1.486 +1.564 +1.441 +1.536 +1.305 +1.460 +1.520
# oxidation-state O -0.689 -0.699 -0.737 -0.743 -0.741 -0.555 -0.704 -0.753 -0.798 -0.727 -0.746 -0.746 -0.723 -0.677 -0.766 -0.539 -0.713 -0.772 -0.602 -0.500 -0.726 -0.748 -0.775 -0.758 -0.713 -0.686 -0.797 -0.763 -0.691 -0.803 -0.795


-------- Electronic minimization -----------
Will mix electronic density at each iteration.
	FillingsUpdate:  mu: +0.330831820  nElectrons: 378.000000
	FillingsUpdate:  mu: +0.331975993  nElectrons: 378.000000
SCF: Cycle:  0   F: -1431.469866146921731   dF: +3.590e-01   |Residual|: 9.614e-01   |deigs|: 4.603e-03  t[s]:   2674.97
	FillingsUpdate:  mu: +0.335717103  nElectrons: 378.000000
SCF: Cycle:  1   F: -1432.797785498383291   dF: -1.328e+00   |Residual|: 3.850e-01   |deigs|: 1.012e-02  t[s]:   2736.84
	FillingsUpdate:  mu: +0.332563850  nElectrons: 378.000000
SCF: Cycle:  2   F: -1432.887690059812940   dF: -8.990e-02   |Residual|: 1.558e-01   |deigs|: 4.616e-03  t[s]:   2798.89
	FillingsUpdate:  mu: +0.332578941  nElectrons: 378.000000
SCF: Cycle:  3   F: -1432.934773560708663   dF: -4.708e-02   |Residual|: 1.016e-01   |deigs|: 2.565e-03  t[s]:   2860.96
	FillingsUpdate:  mu: +0.334253156  nElectrons: 378.000000
SCF: Cycle:  4   F: -1432.942332359006059   dF: -7.559e-03   |Residual|: 7.656e-02   |deigs|: 1.234e-03  t[s]:   2923.43
	FillingsUpdate:  mu: +0.332294508  nElectrons: 378.000000
SCF: Cycle:  5   F: -1432.956118277658561   dF: -1.379e-02   |Residual|: 3.087e-02   |deigs|: 9.358e-04  t[s]:   2986.33
	FillingsUpdate:  mu: +0.332951758  nElectrons: 378.000000
SCF: Cycle:  6   F: -1432.958892738213535   dF: -2.774e-03   |Residual|: 1.245e-02   |deigs|: 5.243e-04  t[s]:   3038.75
	FillingsUpdate:  mu: +0.332558023  nElectrons: 378.000000
SCF: Cycle:  7   F: -1432.959175670827335   dF: -2.829e-04   |Residual|: 8.521e-03   |deigs|: 2.946e-04  t[s]:   3079.87
	FillingsUpdate:  mu: +0.332526965  nElectrons: 378.000000
SCF: Cycle:  8   F: -1432.959445644199832   dF: -2.700e-04   |Residual|: 3.897e-03   |deigs|: 2.166e-04  t[s]:   3120.87
	FillingsUpdate:  mu: +0.332484618  nElectrons: 378.000000
SCF: Cycle:  9   F: -1432.959493985681547   dF: -4.834e-05   |Residual|: 1.970e-03   |deigs|: 1.029e-04  t[s]:   3162.43
	FillingsUpdate:  mu: +0.332465213  nElectrons: 378.000000
SCF: Cycle: 10   F: -1432.959502297708241   dF: -8.312e-06   |Residual|: 9.712e-04   |deigs|: 4.240e-05  t[s]:   3204.04
	FillingsUpdate:  mu: +0.332463650  nElectrons: 378.000000
SCF: Cycle: 11   F: -1432.959503699169318   dF: -1.401e-06   |Residual|: 6.216e-04   |deigs|: 1.989e-05  t[s]:   3245.29
	FillingsUpdate:  mu: +0.332461265  nElectrons: 378.000000
SCF: Cycle: 12   F: -1432.959504288480503   dF: -5.893e-07   |Residual|: 2.440e-04   |deigs|: 1.140e-05  t[s]:   3287.44
	FillingsUpdate:  mu: +0.332457267  nElectrons: 378.000000
SCF: Cycle: 13   F: -1432.959504383377634   dF: -9.490e-08   |Residual|: 1.461e-04   |deigs|: 5.667e-06  t[s]:   3328.82
	FillingsUpdate:  mu: +0.332458399  nElectrons: 378.000000
SCF: Cycle: 14   F: -1432.959504419459563   dF: -3.608e-08   |Residual|: 6.269e-05   |deigs|: 2.749e-06  t[s]:   3370.95
	FillingsUpdate:  mu: +0.332456999  nElectrons: 378.000000
SCF: Cycle: 15   F: -1432.959504425296018   dF: -5.836e-09   |Residual|: 2.893e-05   |deigs|: 1.190e-06  t[s]:   3412.03
	FillingsUpdate:  mu: +0.332457117  nElectrons: 378.000000
SCF: Cycle: 16   F: -1432.959504426699141   dF: -1.403e-09   |Residual|: 1.723e-05   |deigs|: 6.093e-07  t[s]:   3452.96
SCF: Converged (|Delta E|<1.000000e-08 for 2 iters).

Setting wave functions to eigenvectors of Hamiltonian

# Ionic positions in lattice coordinates:
ion Ti   0.069259611658368   0.429384471755516   0.132039327216340 1
ion Ti   0.433673773955386   0.049536936367724   0.373254364522296 1
ion Ti   0.054820119038548   0.443479440119317   0.622483234754457 1
ion Ti   0.428217300121650   0.072197411127541   0.879887325714361 1
ion Ti   0.076753189791316   0.932967163437297   0.133306887692044 1
ion Ti   0.418721345447407   0.574111691503945   0.374538344226542 1
ion Ti   0.070181353850375   0.938475360335809   0.619612590474912 1
ion Ti   0.426672285680655   0.549285536595550   0.875933647884396 1
ion Ti   0.562916426781713   0.440951184117228   0.120608395509514 1
ion Ti   0.946369698347784   0.071792370024571   0.382028039769097 1
ion Ti   0.550042653775853   0.431179576083064   0.616832211873845 1
ion Ti   0.932713582435477   0.064094838657910   0.868343087690266 1
ion Ti   0.564483697943708   0.917188874971988   0.104687493890374 1
ion Ti   0.945679613876878   0.547037169582853   0.382908404542055 1
ion Ti   0.561014788681100   0.910661367507395   0.637853178975186 1
ion Ti   0.928861880487001   0.572515151907580   0.876923833853172 1
ion O   0.049201737193192   0.156558346676540   0.388629239181425 1
ion O   0.150769796477628   0.027248893482213   0.120326389130888 1
ion O   0.321036967523361   0.461071581963767   0.385551059609634 1
ion O   0.445521183180055   0.331742581279258   0.123597310646844 1
ion O   0.031564448042028   0.172636627462942   0.874893744701798 1
ion O   0.162166485792843   0.048659700691870   0.649600229021742 1
ion O   0.324956124757886   0.459912794156661   0.889232707926480 1
ion O   0.460773584170561   0.343004286412735   0.636603431774097 1
ion O   0.054289999792312   0.681095981602403   0.367063042412414 1
ion O   0.172737005463155   0.543334229246647   0.114081682835331 1
ion O   0.338294296192553   0.962599763970226   0.385170382619013 1
ion O   0.471712207331699   0.818357628915453   0.124451222402364 1
ion O   0.034946573460271   0.655975672967851   0.871091152151523 1
ion O   0.165473336624134   0.530437779879020   0.627366899713390 1
ion O   0.324464239008179   0.937301090774893   0.890113777033553 1
ion O   0.469323741645615   0.822101356746465   0.632265036068507 1
ion O   0.515305185550879   0.165780711507093   0.379656816689871 1
ion O   0.687357075013588   0.023606629627628   0.113237881705984 1
ion O   0.843675327432112   0.455191068255207   0.365368081721066 1
ion O   0.977428346663999   0.343069121011178   0.118568845888851 1
ion O   0.532940524479838   0.168799574662733   0.886899394295655 1
ion O   0.672770366969270   0.031556692861965   0.634868543141293 1
ion O   0.840421968363926   0.460672938384345   0.871558773517514 1
ion O   0.960320750495379   0.320779871654040   0.642733790651297 1
ion O   0.540136196788940   0.665529645469619   0.375735617055403 1
ion O   0.657973158152739   0.533630947629001   0.122527709182294 1
ion O   0.836773657512972   0.961118994739923   0.381642452772301 1
ion O   0.948853475998852   0.828167393690157   0.111259095521907 1
ion O   0.520663312802637   0.664061486124149   0.872609035283380 1
ion O   0.653331563773126   0.546817227306932   0.631301665864676 1
ion O   0.829416041473054   0.941010836751799   0.857324620890649 1

# Forces in Lattice coordinates:
force Ti   3.142363211217581   4.088507328681260  -3.758186697720854 1
force Ti   0.860622265482789   0.425607213682665  -0.517598692364913 1
force Ti  -1.067900827225154  -1.529475423243435   1.578713080250417 1
force Ti  -0.019105973662424  -0.056011873531442   0.813998749262165 1
force Ti  -1.437104028621030  -1.270511787307108   1.223599948748602 1
force Ti   0.076375041602740  -1.279498739599076  -0.060709948771085 1
force Ti  -1.785479635575539  -1.699743162194105   1.492908849992885 1
force Ti   1.081427025988132   0.983837511204739  -0.906859696628611 1
force Ti  -1.536011008833823  -1.226158328421771   1.418560234337073 1
force Ti  -1.830274250909745  -1.294356293443424   1.525482346326756 1
force Ti   0.687806073868146   0.229059152379241  -0.207967381365999 1
force Ti  -0.505028091824089  -0.020043352397987   0.251005768588468 1
force Ti  -0.108786488753998  -0.240927530097280   0.516658035136248 1
force Ti   1.964877518765236   2.004908024049758  -2.310897672447734 1
force Ti   2.993301781280741   2.999519014559747  -2.890936154189946 1
force Ti  -0.971004095702115  -1.097981457815821   0.821771278595616 1
force O   1.374984240710734   1.641946757646942  -1.396638810542405 1
force O   1.508784100971265   1.567087170189257  -1.600518195777578 1
force O   0.724634733920417   0.440639636045855  -0.508883182549446 1
force O   0.136645902319859  -0.294075479605039   0.044854381227487 1
force O   0.593031486386926  -0.807649156624107  -0.535812623316467 1
force O   2.183190298029474   1.839242268120419  -1.921331953758478 1
force O   0.137272712105268   0.203759123268548  -0.316354189881320 1
force O  -1.040062428477629  -1.014778029576339   1.089824872650076 1
force O  -0.904826013829204  -0.432917565233820   0.951032204086383 1
force O  -0.054253900452133  -0.247262077323997   0.473623960690198 1
force O  -0.681861037750498  -0.918855068252396   0.917535101461521 1
force O  -0.842364395551257  -0.313765821981595   0.828620961886450 1
force O   1.128066946608367   0.943538120027232  -1.202149053544248 1
force O   0.327882509406265   0.572145171557519  -0.523810350082581 1
force O   0.452373805803288   1.089633481270669  -0.967260864657609 1
force O  -2.012695802355546  -1.014465480694984   1.886500402626205 1
force O   0.933426099031349   0.452888389951292  -0.900816950746391 1
force O  -0.954042859656755  -0.029147337324616   0.251861200212621 1
force O  -1.677389335724677  -1.616276620766245   1.631960643983145 1
force O  -4.826788678834902  -4.132531981116112   4.760026302171646 1
force O   0.421655421976211   0.124902218590843  -0.456539039700646 1
force O   0.392976145071047   0.467158611927362  -0.474842346976562 1
force O  -0.727101336381029  -0.638883171932290   0.690126137370630 1
force O   0.745585763266702   0.744692985846915  -1.014570635189397 1
force O  -0.020494352291881  -0.193687466830374   0.071097392566759 1
force O   0.904419638548910   0.567964757889511  -0.592493028565464 1
force O  -0.317953842490741  -0.181502535569478   0.179160369071011 1
force O   0.011995365698100   0.088602058961483   0.222387556666608 1
force O   0.646742473467296   0.003350205432226  -0.537498427178294 1
force O   0.213288930580839   0.383150218211219  -0.478623868364421 1
force O  -0.315952934823131  -0.304475756280961   0.432238720636777 1

# Energy components:
   Eewald =     -942.3326868309137581
       EH =      421.6839955987416033
     Eloc =    -1268.2654663689943391
      Enl =      157.3456469649391920
      Exc =     -255.1616969459384450
 Exc_core =       22.4219690528080591
       KE =      431.3967292359622547
-------------------------------------
     Etot =    -1432.9115092933957385
       TS =        0.0479951333035073
-------------------------------------
        F =    -1432.9595044266991408

IonicMinimize: Iter:   2  F: -1432.959504426699141  |grad|_K:  4.665e-02  alpha:  4.425e-01  linmin: -9.879e-01  t[s]:   3466.40

#--- Lowdin population analysis ---
# oxidation-state Ti +1.430 +1.574 +1.518 +1.506 +1.525 +1.510 +1.408 +1.516 +1.513 +1.503 +1.568 +1.446 +1.542 +1.340 +1.493 +1.528
# oxidation-state O -0.711 -0.723 -0.732 -0.742 -0.749 -0.599 -0.709 -0.756 -0.784 -0.728 -0.752 -0.748 -0.727 -0.689 -0.769 -0.604 -0.716 -0.770 -0.645 -0.572 -0.727 -0.749 -0.771 -0.757 -0.718 -0.701 -0.791 -0.762 -0.694 -0.798 -0.785


-------- Electronic minimization -----------
Will mix electronic density at each iteration.
	FillingsUpdate:  mu: +0.332457117  nElectrons: 378.000000
	FillingsUpdate:  mu: +0.330704741  nElectrons: 378.000000
SCF: Cycle:  0   F: -1431.222288434891198   dF: +5.299e-01   |Residual|: 1.042e+00   |deigs|: 5.439e-03  t[s]:   3556.45
	FillingsUpdate:  mu: +0.339835290  nElectrons: 378.000000
SCF: Cycle:  1   F: -1432.857503513785559   dF: -1.635e+00   |Residual|: 4.448e-01   |deigs|: 9.989e-03  t[s]:   3618.87
	FillingsUpdate:  mu: +0.332468402  nElectrons: 378.000000
SCF: Cycle:  2   F: -1432.987278724538555   dF: -1.298e-01   |Residual|: 1.919e-01   |deigs|: 5.342e-03  t[s]:   3681.85
	FillingsUpdate:  mu: +0.337714694  nElectrons: 378.000000
SCF: Cycle:  3   F: -1433.047467123874640   dF: -6.019e-02   |Residual|: 1.239e-01   |deigs|: 3.449e-03  t[s]:   3744.13
	FillingsUpdate:  mu: +0.334667390  nElectrons: 378.000000
SCF: Cycle:  4   F: -1433.072007580107993   dF: -2.454e-02   |Residual|: 8.480e-02   |deigs|: 1.481e-03  t[s]:   3807.53
	FillingsUpdate:  mu: +0.335681979  nElectrons: 378.000000
SCF: Cycle:  5   F: -1433.088085989423462   dF: -1.608e-02   |Residual|: 4.078e-02   |deigs|: 1.082e-03  t[s]:   3870.29
	FillingsUpdate:  mu: +0.334990908  nElectrons: 378.000000
SCF: Cycle:  6   F: -1433.092325863594624   dF: -4.240e-03   |Residual|: 1.447e-02   |deigs|: 6.328e-04  t[s]:   3926.00
	FillingsUpdate:  mu: +0.335235227  nElectrons: 378.000000
SCF: Cycle:  7   F: -1433.092885945742637   dF: -5.601e-04   |Residual|: 1.005e-02   |deigs|: 2.958e-04  t[s]:   3967.15
	FillingsUpdate:  mu: +0.334839788  nElectrons: 378.000000
SCF: Cycle:  8   F: -1433.093162642219113   dF: -2.767e-04   |Residual|: 5.306e-03   |deigs|: 2.261e-04  t[s]:   4008.01
	FillingsUpdate:  mu: +0.334902573  nElectrons: 378.000000
SCF: Cycle:  9   F: -1433.093257706389522   dF: -9.506e-05   |Residual|: 2.587e-03   |deigs|: 1.255e-04  t[s]:   4049.43
	FillingsUpdate:  mu: +0.334861098  nElectrons: 378.000000
SCF: Cycle: 10   F: -1433.093271397352510   dF: -1.369e-05   |Residual|: 1.246e-03   |deigs|: 5.182e-05  t[s]:   4090.18
	FillingsUpdate:  mu: +0.334839458  nElectrons: 378.000000
SCF: Cycle: 11   F: -1433.093273873295857   dF: -2.476e-06   |Residual|: 7.243e-04   |deigs|: 2.695e-05  t[s]:   4131.41
	FillingsUpdate:  mu: +0.334845290  nElectrons: 378.000000
SCF: Cycle: 12   F: -1433.093274623727211   dF: -7.504e-07   |Residual|: 2.865e-04   |deigs|: 1.396e-05  t[s]:   4172.63
	FillingsUpdate:  mu: +0.334840239  nElectrons: 378.000000
SCF: Cycle: 13   F: -1433.093274752736988   dF: -1.290e-07   |Residual|: 1.565e-04   |deigs|: 6.053e-06  t[s]:   4213.50
	FillingsUpdate:  mu: +0.334839845  nElectrons: 378.000000
SCF: Cycle: 14   F: -1433.093274790993064   dF: -3.826e-08   |Residual|: 7.082e-05   |deigs|: 2.499e-06  t[s]:   4254.95
	FillingsUpdate:  mu: +0.334838947  nElectrons: 378.000000
SCF: Cycle: 15   F: -1433.093274795256093   dF: -4.263e-09   |Residual|: 3.932e-05   |deigs|: 1.185e-06  t[s]:   4295.80
	FillingsUpdate:  mu: +0.334839463  nElectrons: 378.000000
SCF: Cycle: 16   F: -1433.093274797321101   dF: -2.065e-09   |Residual|: 2.855e-05   |deigs|: 8.100e-07  t[s]:   4336.73
SCF: Converged (|Delta E|<1.000000e-08 for 2 iters).

Setting wave functions to eigenvectors of Hamiltonian

# Ionic positions in lattice coordinates:
ion Ti   0.068044917310266   0.431495255528804   0.129863999664205 1
ion Ti   0.435367114435962   0.049861152892149   0.374000265157239 1
ion Ti   0.055121151847367   0.442037255090407   0.624109969293545 1
ion Ti   0.430957545378282   0.074466856319153   0.885029578535727 1
ion Ti   0.074846232611853   0.931752589564852   0.132595586565997 1
ion Ti   0.418835560195000   0.569841772947970   0.371272061252114 1
ion Ti   0.068165969217466   0.936906804729536   0.618383259309785 1
ion Ti   0.428490471543308   0.550707473424277   0.876825960079544 1
ion Ti   0.561187185514516   0.440191816877947   0.121013709211896 1
ion Ti   0.943886636069914   0.071171294208289   0.381798370710238 1
ion Ti   0.552335417208244   0.431648331987409   0.618739066171050 1
ion Ti   0.931835666409762   0.064968631431230   0.868919542353416 1
ion Ti   0.565396879521553   0.917946383441865   0.106907021220904 1
ion Ti   0.946042826496686   0.547273413309410   0.380031944573372 1
ion Ti   0.563637751373768   0.913301985015613   0.638307989813615 1
ion Ti   0.927124534229184   0.570460757027679   0.875231587124313 1
ion O   0.050394157928402   0.158881446507161   0.389432360538322 1
ion O   0.152070346788484   0.028546570829471   0.119925720204601 1
ion O   0.322134689177784   0.461436000655896   0.385590497012857 1
ion O   0.446218766526122   0.330968861237673   0.123669783592180 1
ion O   0.031695419000604   0.168278109068712   0.870953960764305 1
ion O   0.164707915794378   0.049653942272720   0.649949103701500 1
ion O   0.324564418805210   0.459723157016023   0.888177015736525 1
ion O   0.459861535134115   0.342015592715153   0.636937428449216 1
ion O   0.053560766255239   0.681833254744399   0.368854740812079 1
ion O   0.173742442775716   0.543819245312740   0.116184709837961 1
ion O   0.338200055810702   0.961663183675725   0.385893946123601 1
ion O   0.471039884585481   0.819736576017478   0.126432564818973 1
ion O   0.035699676054324   0.656167115254050   0.869945882241712 1
ion O   0.165106650061720   0.531173762871732   0.626790614975959 1
ion O   0.323642304570424   0.938700759844665   0.888775859079325 1
ion O   0.467839570754627   0.823866393772338   0.634240117375076 1
ion O   0.516382524532268   0.165064070177474   0.378210142377206 1
ion O   0.684162587686927   0.023919209322372   0.111657436722881 1
ion O   0.842296098103538   0.453945678190394   0.365555155315016 1
ion O   0.975016107358844   0.342904369074945   0.121187584134410 1
ion O   0.533168233874014   0.167965078874358   0.885602257898233 1
ion O   0.672731545085420   0.031945574353997   0.634300004094918 1
ion O   0.839588075155200   0.460056042250228   0.871745168256663 1
ion O   0.960133910255146   0.320826622621937   0.640772703220818 1
ion O   0.540178894565075   0.664879486050860   0.375430005886746 1
ion O   0.659911415699237   0.534307074807690   0.123695808610455 1
ion O   0.835943813363868   0.960815447023257   0.381068179922405 1
ion O   0.949799399728851   0.829174627801930   0.113143627397860 1
ion O   0.521555349069812   0.662555946076569   0.871130178496545 1
ion O   0.652859243081230   0.546701691431920   0.630035014002877 1
ion O   0.829498343054108   0.941133336349541   0.858252517361813 1

# Forces in Lattice coordinates:
force Ti   1.854640392927443   2.521273480357581  -2.343658203216839 1
force Ti   0.543977856336672   0.279682150177229  -0.336687935523442 1
force Ti  -0.714967995953395  -1.110281132750360   1.074055215009680 1
force Ti   0.033393461119335  -0.145613196465804   0.586515433670049 1
force Ti  -0.890956195853751  -0.744750944075635   0.754057920826698 1
force Ti   0.119699561702911  -0.816980830962208   0.001880056141170 1
force Ti  -1.042826689434735  -0.984052390595965   0.905291258965833 1
force Ti   0.838115376285700   0.762776192246143  -0.714829102849607 1
force Ti  -1.070006983081198  -0.877231455527770   1.020554638029702 1
force Ti  -1.209655787596126  -0.836717106145514   0.984404791241547 1
force Ti   0.425876200897726   0.072793259394522  -0.076886821492739 1
force Ti  -0.409631210380212  -0.072477178580620   0.316989006154148 1
force Ti  -0.258875559394763  -0.223557828866682   0.470777712329583 1
force Ti   1.253966511059408   1.243249684804656  -1.547399171311250 1
force Ti   1.924079647004473   2.000567345710596  -1.914664783170251 1
force Ti  -0.617784005883355  -0.693715745354983   0.486520902714308 1
force O   0.811955124047095   1.063770231187714  -0.860158123211747 1
force O   1.079100845516672   1.067720354823721  -1.118249085267473 1
force O   0.599354279253997   0.434999903646200  -0.528343016110346 1
force O   0.116926669823101  -0.187554630939289   0.069115443264404 1
force O   0.360425830064680  -0.634445639799583  -0.306174636280853 1
force O   1.485081052861259   1.170995062641174  -1.301805128445405 1
force O   0.192788247000472   0.211077713337125  -0.311256022822306 1
force O  -0.728499769674857  -0.793101985596672   0.781083364890577 1
force O  -0.847319971890681  -0.544883214493216   0.874093843222148 1
force O  -0.209953460253324  -0.277714338029392   0.456279110552152 1
force O  -0.504737663103451  -0.681010992924830   0.657621698691950 1
force O  -0.658771804043126  -0.198606295916342   0.651537163301286 1
force O   0.721789320644335   0.637347537232266  -0.792162224840143 1
force O   0.207836511643044   0.455998706885001  -0.387571404265686 1
force O   0.501396233952291   0.963769801398370  -0.868253456934903 1
force O  -1.189657027888135  -0.489283110314613   1.037239375832231 1
force O   0.884844811246899   0.474926031888677  -0.829766010562107 1
force O  -0.895359359269507  -0.110321048428249   0.346194863611945 1
force O  -1.106870862289983  -1.063753927396879   1.102590968449777 1
force O  -3.160154075437261  -2.642301776488502   3.141477991600828 1
force O   0.354193925681167   0.126780815084101  -0.374893000698418 1
force O   0.296312172954282   0.392965760263309  -0.406558089549077 1
force O  -0.641200867394822  -0.583286304089198   0.627507642909670 1
force O   0.616530718611532   0.719158684639603  -0.878619350191075 1
force O  -0.041945226518413  -0.213400082914636   0.093344023803372 1
force O   0.627540639160523   0.354421305019858  -0.358246665389147 1
force O  -0.247895365323769  -0.102776700429442   0.097933144957258 1
force O  -0.001523453511292  -0.013169211928849   0.207917200505944 1
force O   0.595901745034558   0.069409973253207  -0.477643566342637 1
force O   0.235632827016107   0.256793751603673  -0.368680041147645 1
force O  -0.239422722444154  -0.245628642799053   0.362617496672132 1

# Energy components:
   Eewald =     -946.3100161349623249
       EH =      417.7288131265943321
     Eloc =    -1259.8527970680413546
      Enl =      157.1613422384261867
      Exc =     -254.9776355311738598
 Exc_core =       22.4219734110369266
       KE =      430.7823341058065125
-------------------------------------
     Etot =    -1433.0459858523136063
       TS =        0.0472889450074248
-------------------------------------
        F =    -1433.0932747973211008

IonicMinimize: Iter:   3  F: -1433.093274797321101  |grad|_K:  3.129e-02  alpha:  4.240e-01  linmin: -9.735e-01  t[s]:   4350.21

#--- Lowdin population analysis ---
# oxidation-state Ti +1.475 +1.579 +1.532 +1.515 +1.540 +1.520 +1.422 +1.527 +1.527 +1.519 +1.572 +1.450 +1.549 +1.370 +1.516 +1.537
# oxidation-state O -0.728 -0.745 -0.731 -0.738 -0.758 -0.634 -0.715 -0.759 -0.772 -0.730 -0.758 -0.750 -0.731 -0.706 -0.772 -0.653 -0.721 -0.767 -0.683 -0.615 -0.728 -0.750 -0.763 -0.755 -0.723 -0.720 -0.785 -0.760 -0.700 -0.791 -0.777


-------- Electronic minimization -----------
Will mix electronic density at each iteration.
	FillingsUpdate:  mu: +0.334839463  nElectrons: 378.000000
	FillingsUpdate:  mu: +0.331514740  nElectrons: 378.000000
SCF: Cycle:  0   F: -1431.437101905829195   dF: +4.372e-01   |Residual|: 9.978e-01   |deigs|: 5.131e-03  t[s]:   4439.11
	FillingsUpdate:  mu: +0.341074084  nElectrons: 378.000000
SCF: Cycle:  1   F: -1432.910887158517880   dF: -1.474e+00   |Residual|: 4.524e-01   |deigs|: 9.277e-03  t[s]:   4501.49
	FillingsUpdate:  mu: +0.331917251  nElectrons: 378.000000
SCF: Cycle:  2   F: -1432.993178068538782   dF: -8.229e-02   |Residual|: 2.477e-01   |deigs|: 5.142e-03  t[s]:   4562.66
	FillingsUpdate:  mu: +0.339517641  nElectrons: 378.000000
SCF: Cycle:  3   F: -1433.085242549522945   dF: -9.206e-02   |Residual|: 1.720e-01   |deigs|: 3.911e-03  t[s]:   4624.76
	FillingsUpdate:  mu: +0.338666506  nElectrons: 378.000000
SCF: Cycle:  4   F: -1433.174484462797182   dF: -8.924e-02   |Residual|: 6.793e-02   |deigs|: 2.275e-03  t[s]:   4686.88
	FillingsUpdate:  mu: +0.336454750  nElectrons: 378.000000
SCF: Cycle:  5   F: -1433.180514370410492   dF: -6.030e-03   |Residual|: 3.891e-02   |deigs|: 1.205e-03  t[s]:   4749.23
	FillingsUpdate:  mu: +0.337423895  nElectrons: 378.000000
SCF: Cycle:  6   F: -1433.183965544004650   dF: -3.451e-03   |Residual|: 1.606e-02   |deigs|: 6.225e-04  t[s]:   4805.75
	FillingsUpdate:  mu: +0.337095888  nElectrons: 378.000000
SCF: Cycle:  7   F: -1433.184436883818762   dF: -4.713e-04   |Residual|: 9.737e-03   |deigs|: 2.278e-04  t[s]:   4846.77
	FillingsUpdate:  mu: +0.337313832  nElectrons: 378.000000
SCF: Cycle:  8   F: -1433.184621625671298   dF: -1.847e-04   |Residual|: 6.983e-03   |deigs|: 2.046e-04  t[s]:   4887.43
	FillingsUpdate:  mu: +0.337182966  nElectrons: 378.000000
SCF: Cycle:  9   F: -1433.184789015726210   dF: -1.674e-04   |Residual|: 2.575e-03   |deigs|: 1.207e-04  t[s]:   4928.25
	FillingsUpdate:  mu: +0.337076011  nElectrons: 378.000000
SCF: Cycle: 10   F: -1433.184806926315332   dF: -1.791e-05   |Residual|: 1.151e-03   |deigs|: 6.649e-05  t[s]:   4969.65
	FillingsUpdate:  mu: +0.337089256  nElectrons: 378.000000
SCF: Cycle: 11   F: -1433.184808697594917   dF: -1.771e-06   |Residual|: 6.075e-04   |deigs|: 2.118e-05  t[s]:   5010.30
	FillingsUpdate:  mu: +0.337082114  nElectrons: 378.000000
SCF: Cycle: 12   F: -1433.184809147314809   dF: -4.497e-07   |Residual|: 2.333e-04   |deigs|: 7.862e-06  t[s]:   5051.39
	FillingsUpdate:  mu: +0.337080469  nElectrons: 378.000000
SCF: Cycle: 13   F: -1433.184809227874666   dF: -8.056e-08   |Residual|: 1.165e-04   |deigs|: 3.628e-06  t[s]:   5091.84
	FillingsUpdate:  mu: +0.337078854  nElectrons: 378.000000
SCF: Cycle: 14   F: -1433.184809242655092   dF: -1.478e-08   |Residual|: 7.292e-05   |deigs|: 2.429e-06  t[s]:   5132.87
	FillingsUpdate:  mu: +0.337078676  nElectrons: 378.000000
SCF: Cycle: 15   F: -1433.184809252844616   dF: -1.019e-08   |Residual|: 2.351e-05   |deigs|: 1.281e-06  t[s]:   5174.27
	FillingsUpdate:  mu: +0.337078810  nElectrons: 378.000000
SCF: Cycle: 16   F: -1433.184809253841195   dF: -9.966e-10   |Residual|: 1.474e-05   |deigs|: 6.655e-07  t[s]:   5214.78
	FillingsUpdate:  mu: +0.337078705  nElectrons: 378.000000
SCF: Cycle: 17   F: -1433.184809254107449   dF: -2.663e-10   |Residual|: 1.091e-05   |deigs|: 4.859e-07  t[s]:   5257.00
SCF: Converged (|Delta E|<1.000000e-08 for 2 iters).

Setting wave functions to eigenvectors of Hamiltonian

# Ionic positions in lattice coordinates:
ion Ti   0.066194531881999   0.432963568711968   0.127050135587644 1
ion Ti   0.436706744076262   0.050156739041556   0.374550868075433 1
ion Ti   0.055439428106623   0.440041387975928   0.625203724010348 1
ion Ti   0.434134005221136   0.075941081275879   0.889958398126113 1
ion Ti   0.073341301364451   0.931159944232341   0.132315468339397 1
ion Ti   0.419919806968076   0.566611807112842   0.369720000497126 1
ion Ti   0.067084615847921   0.936219277347659   0.618190077747740 1
ion Ti   0.430487481927612   0.552265736735430   0.877663361549583 1
ion Ti   0.559695601855559   0.439479051850500   0.121736652068351 1
ion Ti   0.941448418841031   0.070557537350256   0.381340540524151 1
ion Ti   0.554493896644854   0.431783367414627   0.620535642971954 1
ion Ti   0.931475312808506   0.066303661090595   0.870774460783749 1
ion Ti   0.565424610414912   0.918847063864658   0.108976016468215 1
ion Ti   0.945728760973900   0.546567134725724   0.376120493920789 1
ion Ti   0.565581309597139   0.915886582051455   0.638376518094405 1
ion Ti   0.925382748673563   0.568485091473777   0.873259676274711 1
ion O   0.051064543035154   0.161180938610141   0.390211568464119 1
ion O   0.153579145136614   0.029653714722622   0.119503072542553 1
ion O   0.322898298508847   0.461706728920417   0.384665175083776 1
ion O   0.447434625284291   0.330695674725912   0.124657195172135 1
ion O   0.031769056544274   0.163685783543184   0.867039276292997 1
ion O   0.167148242790404   0.050017745413271   0.649730942568953 1
ion O   0.324448147678213   0.459570307754723   0.887017817551123 1
ion O   0.458992732459274   0.340401705083211   0.636889609384971 1
ion O   0.052217849719390   0.681745746495414   0.370335223312121 1
ion O   0.174030624974810   0.544135845379360   0.118068381866366 1
ion O   0.337926373935735   0.960470653266408   0.386335145652279 1
ion O   0.470330115406805   0.821781919507072   0.129153768973111 1
ion O   0.036192211799951   0.656469445716074   0.868875945176788 1
ion O   0.164465885786918   0.532227203941856   0.626166823696472 1
ion O   0.323261451424561   0.940658008739326   0.887474727479048 1
ion O   0.466260915744452   0.825573107452954   0.635257780832948 1
ion O   0.518200329670431   0.164501777899434   0.376700934605046 1
ion O   0.680130503661363   0.024473510549217   0.110264347892153 1
ion O   0.841209303550783   0.453013801492310   0.366146108445413 1
ion O   0.972808095625627   0.343240420377617   0.124368611347054 1
ion O   0.533546221471044   0.167129205475784   0.884218567837703 1
ion O   0.672410289031966   0.032391171907172   0.633274633173070 1
ion O   0.838497318301464   0.459169652230653   0.872072825996325 1
ion O   0.959722535628350   0.321478147499167   0.638470830923332 1
ion O   0.540222113529701   0.663825876741526   0.374983974719729 1
ion O   0.662191705657722   0.535035998990999   0.125365134621730 1
ion O   0.834684994985273   0.960492685477815   0.380037536403311 1
ion O   0.950968075461801   0.829892003227632   0.115179721898145 1
ion O   0.523043555858683   0.661054034315062   0.869731553643046 1
ion O   0.652916818281141   0.546327160454310   0.628850529382870 1
ion O   0.829869343851413   0.941420991834162   0.859750200021605 1

# Forces in Lattice coordinates:
force Ti   1.107640283616039   1.534738155728604  -1.426937353100709 1
force Ti   0.317573131446573   0.201657059428721  -0.215835669842175 1
force Ti  -0.415581241054294  -0.723294677078209   0.646331005806452 1
force Ti   0.075584879728128  -0.187187264467356   0.367773704086168 1
force Ti  -0.522823667162003  -0.410591760054532   0.444398384395598 1
force Ti   0.093639845918277  -0.503333342508700   0.052122947441442 1
force Ti  -0.547536126516124  -0.524161521172721   0.519316567179387 1
force Ti   0.591434601050862   0.543674717584497  -0.522661047557456 1
force Ti  -0.683778547852862  -0.597572813686653   0.687476793434191 1
force Ti  -0.777107115015803  -0.569089734101452   0.627228434075184 1
force Ti   0.216410441629845  -0.019288931887324  -0.015971859792808 1
force Ti  -0.338665345073987  -0.113482788706815   0.356764932385138 1
force Ti  -0.352285137794158  -0.199328991253955   0.432251015998157 1
force Ti   0.750627069628269   0.733815450560100  -0.976509604779047 1
force Ti   1.200128956771870   1.344235455537982  -1.266198670385066 1
force Ti  -0.316930683174495  -0.372621661365169   0.232591232433739 1
force O   0.451971375493621   0.652223603723125  -0.518263994389762 1
force O   0.770834702241073   0.714113971229621  -0.773982034510530 1
force O   0.487647234228870   0.384070423096648  -0.493981621325863 1
force O   0.113075241864903  -0.096531420893971   0.066286028946740 1
force O   0.155814488229983  -0.499897441018431  -0.111753750846445 1
force O   0.994807542037361   0.753365690778026  -0.902696207667183 1
force O   0.246730090244053   0.214605120259837  -0.302770846528110 1
force O  -0.457838075379454  -0.595170959285260   0.510476715552344 1
force O  -0.785146899549084  -0.610654225742117   0.793705111181520 1
force O  -0.325109965255529  -0.299811094263676   0.434478221710283 1
force O  -0.337204608179703  -0.460159949522208   0.420404316840813 1
force O  -0.472050603752491  -0.108070653516133   0.465100312304025 1
force O   0.397415740003801   0.409879828570699  -0.460926879236632 1
force O   0.142892886483939   0.362003844667733  -0.278807676264149 1
force O   0.517849097203908   0.833510370679464  -0.764840427968650 1
force O  -0.674763369585893  -0.196746037592940   0.522632337865494 1
force O   0.771093529427370   0.428874068662861  -0.698189204403225 1
force O  -0.791749505541194  -0.174904098701400   0.406227081316578 1
force O  -0.753467767182869  -0.712704473649068   0.759036366246690 1
force O  -2.022403363705277  -1.700232514297946   2.016519963618087 1
force O   0.274435764795528   0.106737285536936  -0.278401393361223 1
force O   0.222582753666795   0.309075189254225  -0.326640559754349 1
force O  -0.540648594836874  -0.489686142294190   0.523131832398558 1
force O   0.483073616112364   0.658900227391954  -0.728775824314575 1
force O  -0.059372670694212  -0.203741812416395   0.113530044319133 1
force O   0.413998955260601   0.228632259076841  -0.210038477823687 1
force O  -0.168758134214024  -0.034883138801845   0.029040483056883 1
force O  -0.028309264950003  -0.080469155188291   0.199094377798441 1
force O   0.502218531750321   0.104968946070120  -0.382531213207166 1
force O   0.232743270813461   0.135681679709425  -0.251190213303976 1
force O  -0.162098050684911  -0.170536719793559   0.280166999766320 1

# Energy components:
   Eewald =     -949.2793543428007297
       EH =      414.7179094144110536
     Eloc =    -1253.5191249783970306
      Enl =      157.0354650412249384
      Exc =     -254.8420632751266623
 Exc_core =       22.4219806584314405
       KE =      430.3290949751541348
-------------------------------------
     Etot =    -1433.1360925071030579
       TS =        0.0487167470044451
-------------------------------------
        F =    -1433.1848092541074493

IonicMinimize: Iter:   4  F: -1433.184809254107449  |grad|_K:  2.087e-02  alpha:  4.079e-01  linmin: -9.663e-01  t[s]:   5270.37

#--- Lowdin population analysis ---
# oxidation-state Ti +1.505 +1.581 +1.542 +1.522 +1.551 +1.527 +1.431 +1.538 +1.538 +1.531 +1.574 +1.454 +1.555 +1.395 +1.531 +1.544
# oxidation-state O -0.738 -0.761 -0.734 -0.734 -0.763 -0.661 -0.721 -0.761 -0.765 -0.733 -0.762 -0.751 -0.734 -0.723 -0.772 -0.687 -0.729 -0.761 -0.710 -0.641 -0.732 -0.752 -0.755 -0.751 -0.728 -0.736 -0.781 -0.759 -0.706 -0.782 -0.771


-------- Electronic minimization -----------
Will mix electronic density at each iteration.
	FillingsUpdate:  mu: +0.337078705  nElectrons: 378.000000
	FillingsUpdate:  mu: +0.331160198  nElectrons: 378.000000
SCF: Cycle:  0   F: -1431.548542047037927   dF: +2.805e-01   |Residual|: 9.890e-01   |deigs|: 5.356e-03  t[s]:   5358.86
	FillingsUpdate:  mu: +0.340775028  nElectrons: 378.000000
SCF: Cycle:  1   F: -1432.959044889875940   dF: -1.411e+00   |Residual|: 4.525e-01   |deigs|: 9.625e-03  t[s]:   5420.26
	FillingsUpdate:  mu: +0.333594354  nElectrons: 378.000000
SCF: Cycle:  2   F: -1433.028731085233176   dF: -6.969e-02   |Residual|: 2.667e-01   |deigs|: 5.489e-03  t[s]:   5482.99
	FillingsUpdate:  mu: +0.340806984  nElectrons: 378.000000
SCF: Cycle:  3   F: -1433.155828158308623   dF: -1.271e-01   |Residual|: 1.703e-01   |deigs|: 4.369e-03  t[s]:   5545.61
	FillingsUpdate:  mu: +0.340360422  nElectrons: 378.000000
SCF: Cycle:  4   F: -1433.241676568415642   dF: -8.585e-02   |Residual|: 6.716e-02   |deigs|: 3.088e-03  t[s]:   5608.05
	FillingsUpdate:  mu: +0.338192080  nElectrons: 378.000000
SCF: Cycle:  5   F: -1433.246004663052190   dF: -4.328e-03   |Residual|: 4.024e-02   |deigs|: 1.131e-03  t[s]:   5671.37
	FillingsUpdate:  mu: +0.339204527  nElectrons: 378.000000
SCF: Cycle:  6   F: -1433.249786103774795   dF: -3.781e-03   |Residual|: 1.806e-02   |deigs|: 5.265e-04  t[s]:   5730.02
	FillingsUpdate:  mu: +0.338913931  nElectrons: 378.000000
SCF: Cycle:  7   F: -1433.250385487356880   dF: -5.994e-04   |Residual|: 9.926e-03   |deigs|: 1.943e-04  t[s]:   5771.09
	FillingsUpdate:  mu: +0.339155916  nElectrons: 378.000000
SCF: Cycle:  8   F: -1433.250575742108822   dF: -1.903e-04   |Residual|: 6.831e-03   |deigs|: 1.876e-04  t[s]:   5812.25
	FillingsUpdate:  mu: +0.339058298  nElectrons: 378.000000
SCF: Cycle:  9   F: -1433.250722091764146   dF: -1.463e-04   |Residual|: 2.746e-03   |deigs|: 1.099e-04  t[s]:   5853.10
	FillingsUpdate:  mu: +0.338957582  nElectrons: 378.000000
SCF: Cycle: 10   F: -1433.250742248485722   dF: -2.016e-05   |Residual|: 1.177e-03   |deigs|: 6.758e-05  t[s]:   5893.87
	FillingsUpdate:  mu: +0.338976124  nElectrons: 378.000000
SCF: Cycle: 11   F: -1433.250744361350826   dF: -2.113e-06   |Residual|: 5.966e-04   |deigs|: 2.236e-05  t[s]:   5935.09
	FillingsUpdate:  mu: +0.338969735  nElectrons: 378.000000
SCF: Cycle: 12   F: -1433.250744870913422   dF: -5.096e-07   |Residual|: 2.336e-04   |deigs|: 8.824e-06  t[s]:   5976.96
	FillingsUpdate:  mu: +0.338967300  nElectrons: 378.000000
SCF: Cycle: 13   F: -1433.250744948019701   dF: -7.711e-08   |Residual|: 1.170e-04   |deigs|: 2.892e-06  t[s]:   6018.59
	FillingsUpdate:  mu: +0.338966623  nElectrons: 378.000000
SCF: Cycle: 14   F: -1433.250744964387650   dF: -1.637e-08   |Residual|: 7.156e-05   |deigs|: 2.036e-06  t[s]:   6060.88
	FillingsUpdate:  mu: +0.338966241  nElectrons: 378.000000
SCF: Cycle: 15   F: -1433.250744972874145   dF: -8.486e-09   |Residual|: 2.487e-05   |deigs|: 1.194e-06  t[s]:   6101.61
	FillingsUpdate:  mu: +0.338966377  nElectrons: 378.000000
SCF: Cycle: 16   F: -1433.250744974231793   dF: -1.358e-09   |Residual|: 1.463e-05   |deigs|: 6.265e-07  t[s]:   6142.83
SCF: Converged (|Delta E|<1.000000e-08 for 2 iters).

Setting wave functions to eigenvectors of Hamiltonian

# Ionic positions in lattice coordinates:
ion Ti   0.064536527948693   0.434333134881236   0.124543382539301 1
ion Ti   0.437592520879768   0.050694820278817   0.374983302331873 1
ion Ti   0.055804789540247   0.437697495587874   0.625644839942749 1
ion Ti   0.437481646231139   0.076077521765496   0.893828590518296 1
ion Ti   0.072222204624867   0.931065107075773   0.132449394627511 1
ion Ti   0.421628832315876   0.564367412061791   0.369668081070399 1
ion Ti   0.067059846027436   0.936363752937036   0.619144377819192 1
ion Ti   0.432365817316196   0.553761207081224   0.878186412885618 1
ion Ti   0.558657527342742   0.438725486528426   0.122758135935493 1
ion Ti   0.939045593660034   0.069443262247849   0.380424408684232 1
ion Ti   0.555941285261085   0.431315270421096   0.621479482344225 1
ion Ti   0.931735174314842   0.068223890785934   0.874278027873947 1
ion Ti   0.564425922332128   0.920107486126299   0.111131593947015 1
ion Ti   0.944900253234404   0.545316249784023   0.371675266054526 1
ion Ti   0.566724484451458   0.918724388890072   0.637910980342867 1
ion Ti   0.924092058143479   0.566870564235656   0.871422623371340 1
ion O   0.051154381869045   0.163160586389403   0.390530170533230 1
ion O   0.155423759050451   0.030588961408371   0.119047005095886 1
[...]

#--- Lowdin population analysis ---
# oxidation-state Ti +1.549 +1.564 +1.554 +1.545 +1.554 +1.564 +1.503 +1.564 +1.554 +1.545 +1.557 +1.480 +1.565 +1.480 +1.554 +1.564
# oxidation-state O -0.759 -0.779 -0.762 -0.751 -0.779 -0.712 -0.747 -0.775 -0.779 -0.737 -0.747 -0.729 -0.743 -0.779 -0.761 -0.751 -0.751 -0.731 -0.761 -0.666 -0.759 -0.779 -0.762 -0.751 -0.743 -0.778 -0.760 -0.751 -0.751 -0.751 -0.761


-------- Electronic minimization -----------
Will mix electronic density at each iteration.
	FillingsUpdate:  mu: +0.347764697  nElectrons: 378.000000
	FillingsUpdate:  mu: +0.347766422  nElectrons: 378.000000
SCF: Cycle:  0   F: -1433.375951400076019   dF: +5.613e-06   |Residual|: 6.171e-03   |deigs|: 1.926e-06  t[s]:  20008.39
	FillingsUpdate:  mu: +0.347786923  nElectrons: 378.000000
SCF: Cycle:  1   F: -1433.376033840499758   dF: -8.244e-05   |Residual|: 4.973e-03   |deigs|: 1.171e-04  t[s]:  20049.37
	FillingsUpdate:  mu: +0.347766629  nElectrons: 378.000000
SCF: Cycle:  2   F: -1433.376071100773970   dF: -3.726e-05   |Residual|: 2.138e-03   |deigs|: 9.047e-05  t[s]:  20090.60
	FillingsUpdate:  mu: +0.347776733  nElectrons: 378.000000
SCF: Cycle:  3   F: -1433.376082971129790   dF: -1.187e-05   |Residual|: 9.900e-04   |deigs|: 4.218e-05  t[s]:  20131.55
	FillingsUpdate:  mu: +0.347771285  nElectrons: 378.000000
SCF: Cycle:  4   F: -1433.376084996330292   dF: -2.025e-06   |Residual|: 4.050e-04   |deigs|: 1.619e-05  t[s]:  20172.35
	FillingsUpdate:  mu: +0.347773324  nElectrons: 378.000000
SCF: Cycle:  5   F: -1433.376085406153607   dF: -4.098e-07   |Residual|: 2.135e-04   |deigs|: 6.412e-06  t[s]:  20213.13
	FillingsUpdate:  mu: +0.347772085  nElectrons: 378.000000
SCF: Cycle:  6   F: -1433.376085520870447   dF: -1.147e-07   |Residual|: 1.013e-04   |deigs|: 2.791e-06  t[s]:  20254.57
	FillingsUpdate:  mu: +0.347773080  nElectrons: 378.000000
SCF: Cycle:  7   F: -1433.376085535675657   dF: -1.481e-08   |Residual|: 6.646e-05   |deigs|: 1.231e-06  t[s]:  20296.32
	FillingsUpdate:  mu: +0.347772460  nElectrons: 378.000000
SCF: Cycle:  8   F: -1433.376085546447939   dF: -1.077e-08   |Residual|: 3.425e-05   |deigs|: 9.208e-07  t[s]:  20337.19
	FillingsUpdate:  mu: +0.347772658  nElectrons: 378.000000
SCF: Cycle:  9   F: -1433.376085549707568   dF: -3.260e-09   |Residual|: 1.471e-05   |deigs|: 5.498e-07  t[s]:  20378.90
	FillingsUpdate:  mu: +0.347772633  nElectrons: 378.000000
SCF: Cycle: 10   F: -1433.376085550008384   dF: -3.008e-10   |Residual|: 7.472e-06   |deigs|: 2.113e-07  t[s]:  20419.99
SCF: Converged (|Delta E|<1.000000e-08 for 2 iters).

Setting wave functions to eigenvectors of Hamiltonian

# Ionic positions in lattice coordinates:
ion Ti   0.060516490906412   0.433757202021807   0.126755446900188 1
ion Ti   0.436691047358632   0.057100917684010   0.373807696880812 1
ion Ti   0.063174978338509   0.436262416435840   0.631728349885598 1
ion Ti   0.445803378603700   0.062432748831047   0.883074732899672 1
ion Ti   0.062849042496324   0.931301412808690   0.126637536162163 1
ion Ti   0.436117248491591   0.558290540698166   0.377715054704147 1
ion Ti   0.072776034981894   0.946631234926305   0.626163907141365 1
ion Ti   0.436913883433795   0.562327797830891   0.879184458862822 1
ion Ti   0.558130523497971   0.436085957615470   0.126735786940174 1
ion Ti   0.932306143930444   0.062721493334826   0.369752656507154 1
ion Ti   0.559767338594482   0.432710839049929   0.626445393431631 1
ion Ti   0.931960472688271   0.070392245109385   0.891999093094721 1
ion Ti   0.561278817734590   0.934697827920974   0.125885883034579 1
ion Ti   0.931862631014393   0.539422199684855   0.361056304769050 1
ion Ti   0.557963903959410   0.931346891610147   0.621690205137420 1
ion Ti   0.934066580432565   0.558245755512722   0.875586577899150 1
ion O   0.036661702880938   0.165505913507037   0.371164339493607 1
ion O   0.162012821842290   0.018472191817326   0.102198603821329 1
ion O   0.326720507960866   0.452586278968745   0.374283457142006 1
ion O   0.455752431736261   0.331368161659829   0.126132635503520 1
ion O   0.031982110235379   0.136255116021082   0.857014730453000 1
ion O   0.169515888496821   0.042878833869032   0.626267004675418 1
ion O   0.333514205305097   0.449591557198652   0.869733627850445 1
ion O   0.455613105960311   0.328447738615732   0.626650517186063 1
ion O   0.032029040118311   0.674955732781881   0.396034141121141 1
ion O   0.161482928862126   0.534811020910506   0.126733565670330 1
ion O   0.333356060231647   0.963630997227393   0.383541395337531 1
ion O   0.458795278964994   0.831687943875408   0.126621283293368 1
ion O   0.046419864984699   0.661909167098957   0.884290103009846 1
ion O   0.162151186495943   0.559188858533136   0.643128739782188 1
ion O   0.336046319986287   0.958243822363522   0.878038627742333 1
ion O   0.455731206370491   0.829446250647658   0.624102402253732 1
ion O   0.540100164325175   0.163337343058192   0.376424516111231 1
ion O   0.667148068854509   0.040407948110934   0.125970638268528 1
ion O   0.830593485386315   0.460431912631553   0.383351375779886 1
ion O   0.953450240510626   0.326245038556480   0.126671347395198 1
ion O   0.547600832373121   0.165316929864836   0.882078267683732 1
ion O   0.669609356895328   0.018484553835286   0.609875175592687 1
ion O   0.831702042700811   0.452670550254686   0.879361685002159 1
ion O   0.958299368696304   0.331457097147959   0.628706267082117 1
ion O   0.531334568757523   0.661938756048503   0.369226565697230 1
ion O   0.669616453064049   0.558927328882066   0.150311157556758 1
ion O   0.833054189607965   0.958226583734727   0.374826182361080 1
ion O   0.958415456221751   0.829520019234049   0.126800756429649 1
ion O   0.540063067983024   0.663303328714649   0.876284390918389 1
ion O   0.663501211050121   0.536554431629159   0.626494387949181 1
ion O   0.830528316677934   0.947161112125961   0.870033027585671 1

# Forces in Lattice coordinates:
force Ti   0.007734218548898   0.008921285916333  -0.009086301156382 1
force Ti   0.010665451831232   0.004378650186659  -0.009409676386657 1
force Ti  -0.006479036776837   0.003667790823417   0.000498112439167 1
force Ti  -0.000100510250348  -0.000616501936045   0.000944137349242 1
force Ti  -0.001485767243715   0.000206932120764  -0.005774775618332 1
force Ti   0.002367849377046   0.001462619532439  -0.001869939119703 1
force Ti  -0.003416352659251  -0.008580800856080   0.007567597956160 1
force Ti  -0.001771411436986   0.005010987131237   0.001082565923648 1
force Ti  -0.000723344120516   0.000129596974166   0.004944757798316 1
force Ti   0.001210450015462   0.001092832059617  -0.004638904717594 1
force Ti   0.005270123899989   0.004451307898612  -0.004891669265719 1
force Ti  -0.010551226115064  -0.012648030785975   0.009287146238758 1
force Ti  -0.007675996781015  -0.005561461959853   0.008404866313358 1
force Ti  -0.005594062170685  -0.004778222583051   0.006763607220593 1
force Ti   0.006731748124327  -0.007830628169748   0.002142754292058 1
force Ti  -0.002719878943736   0.001806601176374   0.001148459818930 1
force O  -0.003139122152602  -0.003999216789342   0.003169584289934 1
force O   0.001566566085219   0.000516799016882   0.000532481495954 1
force O  -0.002273829715396  -0.001957399634581   0.000852948421909 1
force O   0.001774921671755  -0.003254977245830  -0.001877410256996 1
force O   0.005271066665528   0.002375573941027  -0.004424139435081 1
force O   0.004927686387667   0.007256806462735  -0.006738406987619 1
force O   0.001651537068066   0.000720796207647  -0.002074159156592 1
force O  -0.002231327340429  -0.000586037507572   0.001228266241615 1
force O   0.003624867050413   0.005248127019663  -0.003784255013481 1
force O  -0.003077783246095  -0.003689385843230   0.002499839765883 1
force O  -0.001163562776221   0.000181392950873   0.001859552403452 1
force O   0.003716909168083   0.003486110354626  -0.004608916429183 1
force O  -0.000300995192818   0.000621915062972   0.000117186900999 1
force O   0.002226589409172   0.000625635174174  -0.002107096273181 1
force O   0.003976247549738   0.003481693418562  -0.004713001218497 1
force O  -0.005050562978313   0.000423225146021   0.004861601295934 1
force O   0.003040402103630   0.002020461614318  -0.003315807512042 1
force O   0.005705480614366   0.002654662519035  -0.001572567993580 1
force O   0.001787024177696   0.001368735410217  -0.002185338240023 1
force O  -0.000382837767139   0.004819034036301   0.000244003503151 1
force O  -0.000090681093779  -0.000624872810086   0.000510595683385 1
force O  -0.000923538160554   0.001673133814223   0.000191818679822 1
force O  -0.000009976267691  -0.002393566995061   0.001227297167977 1
force O   0.002121723028943  -0.006138330443893  -0.000956147993141 1
force O  -0.001014984003759  -0.000739782858413   0.000590364794282 1
force O   0.000601239289586   0.000416224873927  -0.000313765373461 1
force O   0.001835593092774   0.000408466023107  -0.001111424365801 1
force O  -0.005529335112521   0.001046315463353   0.005556570817236 1
force O  -0.000983149110124   0.000700442783651   0.000837756915529 1
force O  -0.001255579324120   0.000243730969026   0.000384673538427 1
force O   0.002386840730074   0.004173192434877  -0.002683681528832 1

# Energy components:
   Eewald =     -953.5874313089258294
       EH =      410.4487032223127017
     Eloc =    -1244.5655154581145325
      Enl =      156.9327496561321595
      Exc =     -254.7134446354310455
 Exc_core =       22.4219371560180534
       KE =      429.7587372766864178
-------------------------------------
     Etot =    -1433.3042640913222385
       TS =        0.0718214586862466
-------------------------------------
        F =    -1433.3760855500083835

IonicMinimize: Iter:  26  F: -1433.376085550008384  |grad|_K:  1.920e-04  alpha:  1.000e+00  linmin:  2.209e-01  t[s]:  20433.28

#--- Lowdin population analysis ---
# oxidation-state Ti +1.549 +1.564 +1.554 +1.545 +1.554 +1.564 +1.503 +1.564 +1.554 +1.545 +1.557 +1.480 +1.565 +1.480 +1.554 +1.564
# oxidation-state O -0.759 -0.779 -0.762 -0.751 -0.779 -0.712 -0.747 -0.774 -0.779 -0.738 -0.747 -0.730 -0.743 -0.779 -0.761 -0.751 -0.751 -0.730 -0.761 -0.665 -0.759 -0.779 -0.762 -0.751 -0.743 -0.778 -0.760 -0.751 -0.751 -0.750 -0.762


-------- Electronic minimization -----------
Will mix electronic density at each iteration.
	FillingsUpdate:  mu: +0.347772633  nElectrons: 378.000000
	FillingsUpdate:  mu: +0.347778155  nElectrons: 378.000000
SCF: Cycle:  0   F: -1433.376059805950490   dF: +1.603e-05   |Residual|: 2.875e-03   |deigs|: 2.159e-07  t[s]:  20501.36
	FillingsUpdate:  mu: +0.347760715  nElectrons: 378.000000
SCF: Cycle:  1   F: -1433.376079570716684   dF: -1.976e-05   |Residual|: 2.400e-03   |deigs|: 6.236e-05  t[s]:  20541.95
	FillingsUpdate:  mu: +0.347774377  nElectrons: 378.000000
SCF: Cycle:  2   F: -1433.376089298925763   dF: -9.728e-06   |Residual|: 9.829e-04   |deigs|: 4.736e-05  t[s]:  20582.53
	FillingsUpdate:  mu: +0.347769019  nElectrons: 378.000000
SCF: Cycle:  3   F: -1433.376092057017786   dF: -2.758e-06   |Residual|: 3.813e-04   |deigs|: 1.901e-05  t[s]:  20623.04
	FillingsUpdate:  mu: +0.347770459  nElectrons: 378.000000
SCF: Cycle:  4   F: -1433.376092396697004   dF: -3.397e-07   |Residual|: 1.861e-04   |deigs|: 5.905e-06  t[s]:  20663.42
	FillingsUpdate:  mu: +0.347770189  nElectrons: 378.000000
SCF: Cycle:  5   F: -1433.376092489912253   dF: -9.322e-08   |Residual|: 9.114e-05   |deigs|: 2.573e-06  t[s]:  20704.39
	FillingsUpdate:  mu: +0.347770231  nElectrons: 378.000000
SCF: Cycle:  6   F: -1433.376092509095315   dF: -1.918e-08   |Residual|: 4.570e-05   |deigs|: 1.079e-06  t[s]:  20745.17
	FillingsUpdate:  mu: +0.347770194  nElectrons: 378.000000
SCF: Cycle:  7   F: -1433.376092512538889   dF: -3.444e-09   |Residual|: 2.982e-05   |deigs|: 4.129e-07  t[s]:  20786.10
	FillingsUpdate:  mu: +0.347770145  nElectrons: 378.000000
SCF: Cycle:  8   F: -1433.376092514447464   dF: -1.909e-09   |Residual|: 1.453e-05   |deigs|: 2.536e-07  t[s]:  20826.66
SCF: Converged (|Delta E|<1.000000e-08 for 2 iters).

Setting wave functions to eigenvectors of Hamiltonian

# Ionic positions in lattice coordinates:
ion Ti   0.060505565767321   0.433733373057261   0.126662299649992 1
ion Ti   0.436765233878299   0.057044581613601   0.373773080292806 1
ion Ti   0.063102245924428   0.436303308479943   0.631736345960945 1
ion Ti   0.445748798678407   0.062464610934885   0.883049206202790 1
ion Ti   0.062832612384068   0.931239131562090   0.126568933710708 1
ion Ti   0.436103055330828   0.558304387254828   0.377716433187099 1
ion Ti   0.072773873251126   0.946593013741507   0.626165647589072 1
ion Ti   0.436937085889028   0.562398670109079   0.879274823348405 1
ion Ti   0.558213444529014   0.436144827663325   0.126867007311819 1
ion Ti   0.932238524002681   0.062697629297293   0.369651681670900 1
ion Ti   0.559730401941503   0.432708707237288   0.626407209518930 1
ion Ti   0.931936340675441   0.070327633585146   0.892001845640180 1
ion Ti   0.561267669200386   0.934707598706768   0.125891512987337 1
ion Ti   0.931924140301116   0.539427011002237   0.361128703044288 1
ion Ti   0.558083846539430   0.931275130676128   0.621766472739010 1
ion Ti   0.933967477536982   0.558287684064416   0.875569018024913 1
ion O   0.036849394950252   0.165496814277553   0.371369096509190 1
ion O   0.162052572521331   0.018391614814613   0.102167998117810 1
ion O   0.326662051912777   0.452533737999717   0.374205902095079 1
ion O   0.455715967405019   0.331331820757422   0.126068680059303 1
ion O   0.031985298033237   0.136227117537843   0.856968371693382 1
ion O   0.169474212013655   0.042975119852255   0.626297099596355 1
ion O   0.333530311475992   0.449758661846524   0.869909172718165 1
ion O   0.455586742163356   0.328422837302970   0.626630674650931 1
ion O   0.032030344425968   0.674971830479994   0.395987654788087 1
ion O   0.161435971618784   0.534734408326547   0.126635420873050 1
ion O   0.333404877166035   0.963543103458053   0.383495779413969 1
ion O   0.458860671256768   0.831701831734747   0.126631317716884 1
ion O   0.046289974115293   0.661915768079876   0.884198434098472 1
ion O   0.162169205942889   0.559227146754932   0.643174456484859 1
ion O   0.336042657685579   0.958229882682358   0.877963346371855 1
ion O   0.455584267486384   0.829491468453370   0.624030520822312 1
ion O   0.540063058365179   0.163325805412035   0.376340407035376 1
ion O   0.667193817870122   0.040428820130821   0.125946682926364 1
ion O   0.830634065974187   0.460262680388262   0.383211415851973 1
ion O   0.953548801704539   0.326298166070190   0.126776289023208 1
ion O   0.547498434678343   0.165335843584487   0.881992881135096 1
ion O   0.669648335778838   0.018461107089282   0.609890871232691 1
ion O   0.831659248750069   0.452613268614308   0.879285795390320 1
ion O   0.958243250764010   0.331396486579305   0.628618760001658 1
ion O   0.531532577390501   0.661926764697970   0.369435130517756 1
ion O   0.669674479013355   0.558949265590054   0.150384256753394 1
ion O   0.833034611374581   0.958206300915145   0.374767163800417 1
ion O   0.958432362946085   0.829572501967827   0.126908975757955 1
ion O   0.540018009520461   0.663308390552893   0.876244574088963 1
ion O   0.663430324124599   0.536623533061712   0.626519268616038 1
ion O   0.830563785741752   0.947370602001142   0.870283380979895 1

# Forces in Lattice coordinates:
force Ti   0.004086329295862   0.004023797129179  -0.004427133764564 1
force Ti   0.002547611336423   0.001291991351809  -0.001911828003487 1
force Ti  -0.003010560231878  -0.000931239580916   0.001023409676191 1
force Ti   0.000366636839877   0.001158945396239  -0.000779779521708 1
force Ti   0.000518480086877  -0.000060145672735  -0.001280782593593 1
force Ti  -0.000005836644810  -0.000008990273986  -0.000624802022811 1
force Ti   0.000725114524354  -0.001605651132662   0.001312313375211 1
force Ti  -0.001367369062179   0.000543656093753   0.000932073154285 1
force Ti  -0.000080652831546  -0.000032680456589   0.000636492755216 1
force Ti   0.000811128562760   0.000090380355502  -0.001455530198859 1
force Ti   0.000261510154640   0.001441892997922  -0.000760175097943 1
force Ti  -0.002523684199523  -0.002171321836696   0.002220501578768 1
force Ti  -0.001076650111944  -0.001370805708744   0.002746206084544 1
force Ti  -0.000525197708482  -0.000355507928196   0.001105863032669 1
force Ti   0.000989646038062  -0.002038399607543   0.001015140923686 1
force Ti  -0.000826375222915   0.000178899461845   0.000472912356722 1
force O  -0.001590768285610  -0.001437112992236   0.000385046635585 1
force O   0.000790469164639   0.000352307000322   0.000130789137949 1
force O   0.000012861403001  -0.000869042091257  -0.000158280860377 1
force O   0.000759040752499  -0.001231261547059  -0.000203186898657 1
force O   0.001361634836843  -0.000403338744761  -0.000526776147759 1
force O   0.001528313322048   0.002231893006266  -0.002086381635569 1
force O   0.001381824377869   0.001051277239219  -0.001557082317003 1
force O  -0.000121251915137   0.001038612578359  -0.000546419856527 1
force O   0.001386204700914   0.001944659458762  -0.001385743053492 1
force O  -0.000400581077404  -0.000465999130947  -0.000281390774704 1
force O   0.000137627710614   0.000064737011669   0.000665418229314 1
force O   0.001724537940881   0.002046888390182  -0.002442619713179 1
force O  -0.001261842473774   0.000477360385640   0.000320362550803 1
force O   0.001245981742660   0.000578412896866  -0.001100816479749 1
force O   0.003142974341424   0.001054422824880  -0.002054202232614 1
force O  -0.001395703674458  -0.000644751610130   0.002033679757543 1
force O   0.002488947046477   0.002163336215775  -0.002587459288624 1
force O   0.002092587542993   0.001433201736440  -0.000384573566853 1
force O  -0.000312552185492   0.000537395092981  -0.000132335674530 1
force O  -0.000372688374414   0.002057108492127   0.000001837908292 1
force O   0.001395104296858  -0.000426939832610  -0.000034973056975 1
force O  -0.000544968285753   0.000792350409051   0.000180408245285 1
force O   0.000346229940869  -0.000304085361591  -0.000649767949011 1
force O   0.000265908764310  -0.001868740481482   0.000114441790243 1
force O  -0.000803459107986  -0.000512500996589   0.000939517834415 1
force O  -0.000423432625419   0.000550539766991   0.000286686361660 1
force O   0.000057529981071  -0.000381143493614  -0.000255715837359 1
force O  -0.002172965158388  -0.000392917851249   0.001629457571785 1
force O   0.000044632255588   0.000759604048540  -0.000086824963068 1
force O   0.000660684218418   0.001280858604651  -0.000759180363024 1
force O   0.000273184253242   0.000805129262399  -0.000649139161908 1

# Energy components:
   Eewald =     -953.5863603928379462
       EH =      410.4489276559967266
     Eloc =    -1244.5667008752984657
      Enl =      156.9326633299652940
      Exc =     -254.7133932121191151
 Exc_core =       22.4219370366161606
       KE =      429.7586519010212669
-------------------------------------
     Etot =    -1433.3042745566563099
       TS =        0.0718179577912536
-------------------------------------
        F =    -1433.3760925144474641

IonicMinimize: Iter:  27  F: -1433.376092514447464  |grad|_K:  6.208e-05  alpha:  1.000e+00  linmin: -3.564e-01  t[s]:  20840.00
IonicMinimize: Converged (|grad|_K<1.000000e-04).

#--- Lowdin population analysis ---
# oxidation-state Ti +1.549 +1.565 +1.554 +1.545 +1.554 +1.564 +1.503 +1.565 +1.554 +1.545 +1.557 +1.480 +1.565 +1.480 +1.554 +1.564
# oxidation-state O -0.759 -0.779 -0.762 -0.751 -0.779 -0.712 -0.747 -0.774 -0.779 -0.738 -0.747 -0.730 -0.743 -0.779 -0.761 -0.751 -0.751 -0.730 -0.761 -0.666 -0.759 -0.779 -0.762 -0.751 -0.743 -0.779 -0.760 -0.751 -0.751 -0.750 -0.761


Dumping '/data/rc652/TiO2/vac/TiO2_vac.Ecomponents' ... done
End date and time: Wed Jul 10 19:49:30 2024  (Duration: 0-5:47:24.28)
Done!
