--------------------------------------------------------------------------
[[19956,1],7]: A high-performance Open MPI point-to-point messaging module
was unable to find any relevant network interfaces:

Module: OpenFabrics (openib)
  Host: node3220

Another transport will be used instead, although this may result in
lower performance.
--------------------------------------------------------------------------

*************** JDFTx 1.7.0 (git hash 3664913) ***************

Start date and time: Wed Jul 10 14:00:23 2024
Executable jdftx with command-line: -i TiO2_ion.in
Running on hosts (process indices):  node3220.physics.cornell.edu (0-15)
Divided in process groups (process indices):  0 (0)  1 (1)  2 (2)  3 (3)  4 (4)  5 (5)  6 (6)  7 (7)  8 (8)  9 (9)  10 (10)  11 (11)  12 (12)  13 (13)  14 (14)  15 (15)
Resource initialization completed at t[s]:      0.00
Run totals: 16 processes, 32 threads, 0 GPUs


Input parsed successfully to the following command list (including defaults):

basis kpoint-dependent
coords-type Lattice
core-overlap-check vector
coulomb-interaction Periodic
davidson-band-ratio 1.1
dump End Ecomponents
dump-name /data/rc652/TiO2/ion/TiO2_ion.$VAR
elec-cutoff 20 100
elec-eigen-algo Davidson
elec-ex-corr gga-PBEsol
elec-smearing Fermi 0.01
electronic-minimize  \
	dirUpdateScheme      FletcherReeves \
	linminMethod         DirUpdateRecommended \
	nIterations          100 \
	history              15 \
	knormThreshold       0 \
	maxThreshold         no \
	energyDiffThreshold  1e-08 \
	nEnergyDiff          2 \
	alphaTstart          1 \
	alphaTmin            1e-10 \
	updateTestStepSize   yes \
	alphaTreduceFactor   0.1 \
	alphaTincreaseFactor 3 \
	nAlphaAdjustMax      3 \
	wolfeEnergy          0.0001 \
	wolfeGradient        0.9 \
	fdTest               no
electronic-scf  \
	nIterations	50 \
	energyDiffThreshold	1e-08 \
	residualThreshold	1e-07 \
	mixFraction	0.5 \
	qMetric	0.8 \
	history	10 \
	nEigSteps	2 \
	eigDiffThreshold	1e-08 \
	mixedVariable	Density \
	qKerker	0.8 \
	qKappa	-1 \
	verbose	no \
	mixFractionMag	1.5
exchange-regularization WignerSeitzTruncated
fluid None
fluid-ex-corr lda-TF lda-PZ
fluid-gummel-loop 10 1.000000e-05
fluid-minimize  \
	dirUpdateScheme      PolakRibiere \
	linminMethod         DirUpdateRecommended \
	nIterations          100 \
	history              15 \
	knormThreshold       0 \
	maxThreshold         no \
	energyDiffThreshold  0 \
	nEnergyDiff          2 \
	alphaTstart          1 \
	alphaTmin            1e-10 \
	updateTestStepSize   yes \
	alphaTreduceFactor   0.1 \
	alphaTincreaseFactor 3 \
	nAlphaAdjustMax      3 \
	wolfeEnergy          0.0001 \
	wolfeGradient        0.9 \
	fdTest               no
fluid-solvent H2O 55.338 ScalarEOS \
	epsBulk 78.4 \
	pMol 0.92466 \
	epsInf 1.77 \
	Pvap 1.06736e-10 \
	sigmaBulk 4.62e-05 \
	Rvdw 2.61727 \
	Res 1.42 \
	tauNuc 343133 \
	poleEl 15 7 1
forces-output-coords Positions
ion Ti   0.053560000000000   0.438070000000000   0.145160000000000 1
ion Ti   0.427620000000000   0.069030000000000   0.373380000000000 1
ion Ti   0.069400000000000   0.441220000000000   0.627830000000000 1
ion Ti   0.430180000000000   0.054920000000000   0.862240000000000 1
ion Ti   0.050530000000000   0.935830000000000   0.130800000000000 1
ion Ti   0.443400000000000   0.573560000000000   0.371080000000000 1
ion Ti   0.058440000000000   0.939520000000000   0.602270000000000 1
ion Ti   0.436960000000000   0.549640000000000   0.891490000000000 1
ion Ti   0.556130000000000   0.420020000000000   0.122480000000000 1
ion Ti   0.943140000000000   0.062990000000000   0.382060000000000 1
ion Ti   0.548770000000000   0.444480000000000   0.639440000000000 1
ion Ti   0.931220000000000   0.054080000000000   0.900900000000000 1
ion Ti   0.554870000000000   0.930730000000000   0.124460000000000 1
ion Ti   0.932400000000000   0.581410000000000   0.389480000000000 1
ion Ti   0.546780000000000   0.953090000000000   0.633210000000000 1
ion Ti   0.936600000000000   0.559910000000000   0.865590000000000 1
ion O   0.038490000000000   0.169150000000000   0.373230000000000 1
ion O   0.157560000000000   0.031690000000000   0.146980000000000 1
ion O   0.328810000000000   0.458460000000000   0.352790000000000 1
ion O   0.462640000000000   0.337550000000000   0.125140000000000 1
ion O   0.051200000000000   0.159030000000000   0.871480000000000 1
ion O   0.165250000000000   0.048410000000000   0.634810000000000 1
ion O   0.342330000000000   0.456190000000000   0.875500000000000 1
ion O   0.482700000000000   0.334190000000000   0.638110000000000 1
ion O   0.053640000000000   0.675790000000000   0.376710000000000 1
ion O   0.178480000000000   0.548900000000000   0.114060000000000 1
ion O   0.329360000000000   0.969850000000000   0.350940000000000 1
ion O   0.461600000000000   0.830420000000000   0.131960000000000 1
ion O   0.029580000000000   0.686620000000000   0.869080000000000 1
ion O   0.166470000000000   0.521760000000000   0.632800000000000 1
ion O   0.334210000000000   0.979910000000000   0.881790000000000 1
ion O   0.460270000000000   0.836020000000000   0.631660000000000 1
ion O   0.543900000000000   0.173400000000000   0.368810000000000 1
ion O   0.667280000000000   0.043340000000000   0.154190000000000 1
ion O   0.829990000000000   0.459840000000000   0.381930000000000 1
ion O   0.942200000000000   0.334310000000000   0.129490000000000 1
ion O   0.545420000000000   0.169980000000000   0.869240000000000 1
ion O   0.653360000000000   0.030600000000000   0.629230000000000 1
ion O   0.824100000000000   0.459120000000000   0.865970000000000 1
ion O   0.967920000000000   0.342470000000000   0.632490000000000 1
ion O   0.560370000000000   0.661790000000000   0.382980000000000 1
ion O   0.641470000000000   0.541570000000000   0.131950000000000 1
ion O   0.819820000000000   0.967330000000000   0.364510000000000 1
ion O   0.971500000000000   0.831000000000000   0.122450000000000 1
ion O   0.530030000000000   0.652660000000000   0.867410000000000 1
ion O   0.666700000000000   0.548000000000000   0.632620000000000 1
ion O   0.841500000000000   0.956310000000000   0.883720000000000 1
ion O   0.954500000000000   0.826580000000000   0.618350000000000 1
ion-species GBRV/$ID_pbesol.uspp
ion-width 0
ionic-minimize  \
	dirUpdateScheme      L-BFGS \
	linminMethod         DirUpdateRecommended \
	nIterations          30 \
	history              15 \
	knormThreshold       0.0001 \
	maxThreshold         no \
	energyDiffThreshold  1e-06 \
	nEnergyDiff          2 \
	alphaTstart          1 \
	alphaTmin            1e-10 \
	updateTestStepSize   yes \
	alphaTreduceFactor   0.1 \
	alphaTincreaseFactor 3 \
	nAlphaAdjustMax      3 \
	wolfeEnergy          0.0001 \
	wolfeGradient        0.9 \
	fdTest               no
kpoint   0.500000000000   0.500000000000   0.500000000000  1.00000000000000
kpoint-folding 3 3 3 
latt-move-scale 1 1 1
latt-scale 1 1 1 
lattice  \
	  -7.131561084831314    7.131561084831314    7.131561084831314  \
	   7.131561084831314   -7.131561084831314    7.131561084831314  \
	  18.043228312520839   18.043228312520839  -18.043228312520839 
lattice-minimize  \
	dirUpdateScheme      L-BFGS \
	linminMethod         DirUpdateRecommended \
	nIterations          0 \
	history              15 \
	knormThreshold       0 \
	maxThreshold         no \
	energyDiffThreshold  1e-06 \
	nEnergyDiff          2 \
	alphaTstart          1 \
	alphaTmin            1e-10 \
	updateTestStepSize   yes \
	alphaTreduceFactor   0.1 \
	alphaTincreaseFactor 3 \
	nAlphaAdjustMax      3 \
	wolfeEnergy          0.0001 \
	wolfeGradient        0.9 \
	fdTest               no
lcao-params -1 1e-06 0.01
pcm-variant GLSSA13
perturb-minimize  \
	nIterations            0 \
	algorithm              MINRES \
	residualTol            0.0001 \
	residualDiffThreshold  0.0001 \
	CGBypass               no \
	recomputeResidual      no
spintype no-spin
subspace-rotation-factor 1 yes
symmetries automatic
symmetry-threshold 0.0001



---------- Setting up symmetries ----------

Non-trivial transmission matrix:
[   1   0   0  ]
[   0   1   0  ]
[   1   1   1  ]
with reduced lattice vectors:
[      0.000000     14.263122      7.131561  ]
[     14.263122      0.000000      7.131561  ]
[      0.000000      0.000000    -18.043228  ]

Found 16 point-group symmetries of the bravais lattice
Found 1 space-group symmetries with basis
Applied RMS atom displacement 0 bohrs to make symmetries exact.

---------- Initializing the Grid ----------
R = 
[     -7.13156      7.13156      7.13156  ]
[      7.13156     -7.13156      7.13156  ]
[      18.0432      18.0432     -18.0432  ]
unit cell volume = 3670.65
G =
[          0    0.44052   0.174115  ]
[    0.44052          0   0.174115  ]
[    0.44052    0.44052          0  ]
Minimum fftbox size, Smin = [  96  96  96  ]
Chosen fftbox size, S = [  96  96  96  ]

---------- Initializing tighter grid for wavefunction operations ----------
R = 
[     -7.13156      7.13156      7.13156  ]
[      7.13156     -7.13156      7.13156  ]
[      18.0432      18.0432     -18.0432  ]
unit cell volume = 3670.65
G =
[          0    0.44052   0.174115  ]
[    0.44052          0   0.174115  ]
[    0.44052    0.44052          0  ]
Minimum fftbox size, Smin = [  84  84  84  ]
Chosen fftbox size, S = [  84  84  84  ]

---------- Exchange Correlation functional ----------
Initalized PBEsol GGA exchange.
Initalized PBEsol GGA correlation.

---------- Setting up pseudopotentials ----------
Width of ionic core gaussian charges (only for fluid interactions / plotting) set to 0

Reading pseudopotential file '/home/rc652/build/pseudopotentials/GBRV/ti_pbesol.uspp':
  Title: Ti.  Created by USPP 7.3.6 on 22-9-15
  Reference state energy: -58.948951.  12 valence electrons in orbitals:
    |300>  occupation: 2  eigenvalue: -2.770853
    |310>  occupation: 6  eigenvalue: -1.891454
    |400>  occupation: 2  eigenvalue: -0.439215
    |320>  occupation: 1  eigenvalue: -0.583785
  lMax: 2  lLocal: 3  QijEcut: 6
  6 projectors sampled on a log grid with 597 points:
    l: 0  eig: -2.770853  rCut: 1.8
    l: 0  eig: -0.439215  rCut: 1.8
    l: 1  eig: -1.891454  rCut: 1.8
    l: 1  eig: 0.500000  rCut: 1.8
    l: 2  eig: -0.583785  rCut: 1.8
    l: 2  eig: 0.150000  rCut: 1.8
  Partial core density with radius 0.8
  Transforming core density to a uniform radial grid of dG=0.02 with 3110 points.
  Transforming local potential to a uniform radial grid of dG=0.02 with 3110 points.
  Transforming nonlocal projectors to a uniform radial grid of dG=0.02 with 432 points.
  Transforming density augmentations to a uniform radial grid of dG=0.02 with 3110 points.
  Transforming atomic orbitals to a uniform radial grid of dG=0.02 with 432 points.
  Core radius for overlap checks: 1.80 bohrs.

Reading pseudopotential file '/home/rc652/build/pseudopotentials/GBRV/o_pbesol.uspp':
  Title: O.  Created by USPP 7.3.6 on 3-2-2014
  Reference state energy: -15.849885.  6 valence electrons in orbitals:
    |200>  occupation: 2  eigenvalue: -0.873214
    |210>  occupation: 4  eigenvalue: -0.330058
  lMax: 2  lLocal: 2  QijEcut: 6
  5 projectors sampled on a log grid with 511 points:
    l: 0  eig: -0.873214  rCut: 1.25
    l: 0  eig: 0.000000  rCut: 1.25
    l: 1  eig: -0.330058  rCut: 1.25
    l: 1  eig: 0.000000  rCut: 1.25
    l: 2  eig: 1.000000  rCut: 1.25
  Partial core density with radius 0.7
  Transforming core density to a uniform radial grid of dG=0.02 with 3110 points.
  Transforming local potential to a uniform radial grid of dG=0.02 with 3110 points.
  Transforming nonlocal projectors to a uniform radial grid of dG=0.02 with 432 points.
  Transforming density augmentations to a uniform radial grid of dG=0.02 with 3110 points.
  Transforming atomic orbitals to a uniform radial grid of dG=0.02 with 432 points.
  Core radius for overlap checks: 1.25 bohrs.

Initialized 2 species with 48 total atoms.

Folded 1 k-points by 3x3x3 to 27 k-points.

---------- Setting up k-points, bands, fillings ----------
Adding inversion symmetry to k-mesh for non-inversion-symmetric unit cell.
Reduced to 14 k-points under symmetry. 
Computing the number of bands and number of electrons
Calculating initial fillings.
nElectrons: 384.000000   nBands: 288   nStates: 14

----- Setting up reduced wavefunction bases (one per k-point) -----
average nbasis = 15672.148 , ideal nbasis = 15681.314

---------- Setting up ewald sum ----------
Optimum gaussian width for ewald sums = 3.310511 bohr.
Real space sum over 891 unit cells with max indices [  4  4  5  ]
Reciprocal space sum over 12167 terms with max indices [  11  11  11  ]

---------- Allocating electronic variables ----------
Initializing wave functions:  linear combination of atomic orbitals
Ti pseudo-atom occupations:   s ( 2 0 )  p ( 6 )  d ( 4 )
O pseudo-atom occupations:   s ( 2 )  p ( 4 )
	FillingsUpdate:  mu: +0.504283592  nElectrons: 384.000000
LCAOMinimize: Iter:   0  F: -1426.4215282078225755  |grad|_K:  5.074e-03  alpha:  1.000e+00
	FillingsUpdate:  mu: +0.494452875  nElectrons: 384.000000
LCAOMinimize: Iter:   1  F: -1428.0825463507726454  |grad|_K:  4.977e-03  alpha:  5.427e-02  linmin: -2.582e-01  cgtest:  9.455e-01  t[s]:     69.22
LCAOMinimize: 	Wrong curvature in test step, increasing alphaT to 1.628073e-01.
	FillingsUpdate:  mu: +0.483693699  nElectrons: 384.000000
LCAOMinimize: Iter:   2  F: -1429.7579252786417783  |grad|_K:  4.917e-03  alpha: -1.002e+00  linmin: -2.541e-01  cgtest:  9.335e-01  t[s]:     93.89
	FillingsUpdate:  mu: +0.472490125  nElectrons: 384.000000
LCAOMinimize: Iter:   3  F: -1431.3978169147553672  |grad|_K:  4.882e-03  alpha:  5.289e-02  linmin: -2.473e-01  cgtest:  9.257e-01  t[s]:    119.30
LCAOMinimize: 	Wrong curvature in test step, increasing alphaT to 1.586732e-01.
	FillingsUpdate:  mu: +0.460683102  nElectrons: 384.000000
LCAOMinimize: Iter:   4  F: -1433.0492005186231381  |grad|_K:  4.859e-03  alpha: -6.567e-01  linmin: -2.481e-01  cgtest:  9.179e-01  t[s]:    144.49
	FillingsUpdate:  mu: +0.448332574  nElectrons: 384.000000
LCAOMinimize: Iter:   5  F: -1434.7210565350039815  |grad|_K:  4.836e-03  alpha:  5.315e-02  linmin: -2.553e-01  cgtest:  9.111e-01  t[s]:    170.02
LCAOMinimize: 	Wrong curvature in test step, increasing alphaT to 1.594646e-01.
	FillingsUpdate:  mu: +0.435705739  nElectrons: 384.000000
LCAOMinimize: Iter:   6  F: -1436.3933750854241680  |grad|_K:  4.796e-03  alpha: -5.837e-01  linmin: -2.658e-01  cgtest:  9.065e-01  t[s]:    194.93
	FillingsUpdate:  mu: +0.423034730  nElectrons: 384.000000
LCAOMinimize: Iter:   7  F: -1438.0512335709163381  |grad|_K:  4.721e-03  alpha:  5.352e-02  linmin: -2.783e-01  cgtest:  9.034e-01  t[s]:    220.53
LCAOMinimize: 	Wrong curvature in test step, increasing alphaT to 1.605582e-01.
	FillingsUpdate:  mu: +0.410840123  nElectrons: 384.000000
LCAOMinimize: Iter:   8  F: -1439.6429559423320370  |grad|_K:  4.595e-03  alpha: -6.978e-01  linmin: -2.936e-01  cgtest:  9.035e-01  t[s]:    245.22
	FillingsUpdate:  mu: +0.399999026  nElectrons: 384.000000
LCAOMinimize: Iter:   9  F: -1441.0711975800463733  |grad|_K:  4.409e-03  alpha:  5.188e-02  linmin: -3.342e-01  cgtest:  9.094e-01  t[s]:    270.49
LCAOMinimize: 	Wrong curvature in test step, increasing alphaT to 1.556362e-01.
	FillingsUpdate:  mu: +0.390602175  nElectrons: 384.000000
LCAOMinimize: Iter:  10  F: -1442.3422837740006344  |grad|_K:  4.158e-03  alpha: -1.533e+00  linmin: -3.858e-01  cgtest:  9.147e-01  t[s]:    295.39
	FillingsUpdate:  mu: +0.383571733  nElectrons: 384.000000
LCAOMinimize: Iter:  11  F: -1443.3466013557831502  |grad|_K:  3.873e-03  alpha:  4.793e-02  linmin: -4.018e-01  cgtest:  9.274e-01  t[s]:    320.74
LCAOMinimize: 	Predicted alpha/alphaT>3.000000, increasing alphaT to 1.437825e-01.
LCAOMinimize: 	Predicted alpha/alphaT>3.000000, increasing alphaT to 4.313476e-01.
	FillingsUpdate:  mu: +0.375070844  nElectrons: 384.000000
LCAOMinimize: Iter:  12  F: -1444.8137987954103210  |grad|_K:  3.223e-03  alpha:  8.502e-02  linmin: -4.229e-01  cgtest:  8.817e-01  t[s]:    359.28
LCAOMinimize: Encountered beta<0, resetting CG.
LCAOMinimize: 	Predicted alpha/alphaT>3.000000, increasing alphaT to 2.550626e-01.
	FillingsUpdate:  mu: +0.395951696  nElectrons: 384.000000
LCAOMinimize: Iter:  13  F: -1445.9623993346560837  |grad|_K:  4.554e-03  alpha:  3.062e-01  linmin:  2.867e-01  cgtest: -3.483e-01  t[s]:    391.38
LCAOMinimize: 	Bad step direction: g.d > 0.
LCAOMinimize: 	Undoing step.
LCAOMinimize: 	Step failed: resetting search direction.
	FillingsUpdate:  mu: +0.395951696  nElectrons: 384.000000
LCAOMinimize: Iter:  14  F: -1445.9623993346560837  |grad|_K:  4.554e-03  alpha:  0.000e+00
	FillingsUpdate:  mu: +0.396185681  nElectrons: 384.000000
LCAOMinimize: Iter:  15  F: -1446.7163418951806761  |grad|_K:  9.809e-04  alpha:  1.556e-01  linmin:  3.327e-01  cgtest: -1.724e+00  t[s]:    436.02
	FillingsUpdate:  mu: +0.395681406  nElectrons: 384.000000
LCAOMinimize: Iter:  16  F: -1446.7169153159693451  |grad|_K:  9.792e-04  alpha:  2.367e-02  linmin:  1.756e-03  cgtest:  9.978e-01  t[s]:    461.64
LCAOMinimize: 	Predicted alpha/alphaT>3.000000, increasing alphaT to 7.099781e-02.
LCAOMinimize: 	Predicted alpha/alphaT>3.000000, increasing alphaT to 2.129934e-01.
	FillingsUpdate:  mu: +0.398227627  nElectrons: 384.000000
LCAOMinimize: Iter:  17  F: -1446.8223109382902294  |grad|_K:  1.468e-04  alpha:  1.614e-01  linmin:  1.191e-01  cgtest: -2.519e-01  t[s]:    500.41
	FillingsUpdate:  mu: +0.399127501  nElectrons: 384.000000
LCAOMinimize: Iter:  18  F: -1446.8255712507659609  |grad|_K:  1.428e-04  alpha:  3.040e-01  linmin:  2.366e-02  cgtest:  3.229e-01  t[s]:    526.26
	FillingsUpdate:  mu: +0.401354768  nElectrons: 384.000000
LCAOMinimize: Iter:  19  F: -1446.8279196329672232  |grad|_K:  8.107e-05  alpha:  2.090e-01  linmin: -5.533e-04  cgtest:  3.008e-02  t[s]:    551.99
	FillingsUpdate:  mu: +0.400811988  nElectrons: 384.000000
LCAOMinimize: Iter:  20  F: -1446.8288452893150406  |grad|_K:  3.456e-05  alpha:  2.410e-01  linmin:  4.048e-03  cgtest: -6.174e-02  t[s]:    577.66
	FillingsUpdate:  mu: +0.401219494  nElectrons: 384.000000
LCAOMinimize: Iter:  21  F: -1446.8289910528981181  |grad|_K:  1.656e-05  alpha:  2.099e-01  linmin:  2.790e-03  cgtest:  2.690e-02  t[s]:    603.48
	FillingsUpdate:  mu: +0.401495324  nElectrons: 384.000000
LCAOMinimize: Iter:  22  F: -1446.8290228420228232  |grad|_K:  8.416e-06  alpha:  1.992e-01  linmin: -3.176e-04  cgtest:  9.669e-03  t[s]:    629.36
	FillingsUpdate:  mu: +0.401414381  nElectrons: 384.000000
LCAOMinimize: Iter:  23  F: -1446.8290332436597510  |grad|_K:  4.578e-06  alpha:  2.511e-01  linmin:  4.547e-04  cgtest: -4.889e-03  t[s]:    655.05
	FillingsUpdate:  mu: +0.401430265  nElectrons: 384.000000
LCAOMinimize: Iter:  24  F: -1446.8290359837392316  |grad|_K:  2.457e-06  alpha:  2.238e-01  linmin:  3.773e-04  cgtest:  2.005e-03  t[s]:    680.40
	FillingsUpdate:  mu: +0.401479754  nElectrons: 384.000000
LCAOMinimize: Iter:  25  F: -1446.8290367362938014  |grad|_K:  1.050e-06  alpha:  2.133e-01  linmin: -6.724e-06  cgtest:  8.875e-04  t[s]:    705.78
	FillingsUpdate:  mu: +0.401474356  nElectrons: 384.000000
LCAOMinimize: Iter:  26  F: -1446.8290368734665208  |grad|_K:  5.730e-07  alpha:  2.127e-01  linmin:  4.584e-05  cgtest: -3.804e-04  t[s]:    731.38
LCAOMinimize: Converged (|Delta F|<1.000000e-06 for 2 iters).


---- Citations for features of the code used in this run ----

   Software package:
      R. Sundararaman, K. Letchworth-Weaver, K.A. Schwarz, D. Gunceler, Y. Ozhabes and T.A. Arias, 'JDFTx: software for joint density-functional theory', SoftwareX 6, 278 (2017)

   gga-PBEsol exchange-correlation functional:
      J.P. Perdew et al., Phys. Rev. Lett. 100, 136406 (2008)

   Pseudopotentials:
      KF Garrity, JW Bennett, KM Rabe and D Vanderbilt, Comput. Mater. Sci. 81, 446 (2014)

This list may not be complete. Please suggest additional citations or
report any other bugs at https://github.com/shankar1729/jdftx/issues

Initialization completed successfully at t[s]:    737.46


-------- Electronic minimization -----------
Will mix electronic density at each iteration.
	FillingsUpdate:  mu: +0.401474356  nElectrons: 384.000000
	FillingsUpdate:  mu: +0.383640283  nElectrons: 384.000000
SCF: Cycle:  0   F: -1447.781306503855603   dF: -9.523e-01   |Residual|: 1.430e+00   |deigs|: 4.027e-02  t[s]:    818.07
	FillingsUpdate:  mu: +0.337879781  nElectrons: 384.000000
SCF: Cycle:  1   F: -1448.539663487095140   dF: -7.584e-01   |Residual|: 4.918e-01   |deigs|: 4.310e-02  t[s]:    880.70
	FillingsUpdate:  mu: +0.329991168  nElectrons: 384.000000
SCF: Cycle:  2   F: -1448.746045323035560   dF: -2.064e-01   |Residual|: 3.762e-01   |deigs|: 2.840e-02  t[s]:    943.20
	FillingsUpdate:  mu: +0.323817719  nElectrons: 384.000000
SCF: Cycle:  3   F: -1448.959730286771901   dF: -2.137e-01   |Residual|: 9.579e-02   |deigs|: 7.348e-03  t[s]:   1004.42
	FillingsUpdate:  mu: +0.324043259  nElectrons: 384.000000
SCF: Cycle:  4   F: -1448.975942173251042   dF: -1.621e-02   |Residual|: 3.623e-02   |deigs|: 1.458e-03  t[s]:   1066.40
	FillingsUpdate:  mu: +0.323641281  nElectrons: 384.000000
SCF: Cycle:  5   F: -1448.975632731029009   dF: +3.094e-04   |Residual|: 2.468e-02   |deigs|: 1.154e-03  t[s]:   1119.29
	FillingsUpdate:  mu: +0.323559413  nElectrons: 384.000000
SCF: Cycle:  6   F: -1448.976455039219900   dF: -8.223e-04   |Residual|: 1.192e-02   |deigs|: 3.669e-04  t[s]:   1160.40
	FillingsUpdate:  mu: +0.323387925  nElectrons: 384.000000
SCF: Cycle:  7   F: -1448.976737324627038   dF: -2.823e-04   |Residual|: 2.882e-03   |deigs|: 2.403e-04  t[s]:   1200.52
	FillingsUpdate:  mu: +0.323369339  nElectrons: 384.000000
SCF: Cycle:  8   F: -1448.976741124956561   dF: -3.800e-06   |Residual|: 2.258e-03   |deigs|: 5.714e-05  t[s]:   1241.39
	FillingsUpdate:  mu: +0.323333456  nElectrons: 384.000000
SCF: Cycle:  9   F: -1448.976750757921991   dF: -9.633e-06   |Residual|: 7.369e-04   |deigs|: 7.178e-05  t[s]:   1282.40
	FillingsUpdate:  mu: +0.323332791  nElectrons: 384.000000
SCF: Cycle: 10   F: -1448.976751660275113   dF: -9.024e-07   |Residual|: 4.626e-04   |deigs|: 2.651e-05  t[s]:   1322.58
	FillingsUpdate:  mu: +0.323322843  nElectrons: 384.000000
SCF: Cycle: 11   F: -1448.976752032816421   dF: -3.725e-07   |Residual|: 1.825e-04   |deigs|: 9.477e-06  t[s]:   1363.32
	FillingsUpdate:  mu: +0.323321100  nElectrons: 384.000000
SCF: Cycle: 12   F: -1448.976752097873941   dF: -6.506e-08   |Residual|: 8.965e-05   |deigs|: 3.769e-06  t[s]:   1405.04
	FillingsUpdate:  mu: +0.323321577  nElectrons: 384.000000
SCF: Cycle: 13   F: -1448.976752109148492   dF: -1.127e-08   |Residual|: 4.066e-05   |deigs|: 1.788e-06  t[s]:   1445.95
	FillingsUpdate:  mu: +0.323322605  nElectrons: 384.000000
SCF: Cycle: 14   F: -1448.976752112117765   dF: -2.969e-09   |Residual|: 2.392e-05   |deigs|: 1.199e-06  t[s]:   1486.76
	FillingsUpdate:  mu: +0.323323174  nElectrons: 384.000000
SCF: Cycle: 15   F: -1448.976752113170505   dF: -1.053e-09   |Residual|: 1.137e-05   |deigs|: 1.063e-06  t[s]:   1526.99
SCF: Converged (|Delta E|<1.000000e-08 for 2 iters).

Setting wave functions to eigenvectors of Hamiltonian

# Ionic positions in lattice coordinates:
ion Ti   0.053560000000000   0.438070000000000   0.145160000000000 1
ion Ti   0.427620000000000   0.069030000000000   0.373380000000000 1
ion Ti   0.069400000000000   0.441220000000000   0.627830000000000 1
ion Ti   0.430180000000000   0.054920000000000   0.862240000000000 1
ion Ti   0.050530000000000   0.935830000000000   0.130800000000000 1
ion Ti   0.443400000000000   0.573560000000000   0.371080000000000 1
ion Ti   0.058440000000000   0.939520000000000   0.602270000000000 1
ion Ti   0.436960000000000   0.549640000000000   0.891490000000000 1
ion Ti   0.556130000000000   0.420020000000000   0.122480000000000 1
ion Ti   0.943140000000000   0.062990000000000   0.382060000000000 1
ion Ti   0.548770000000000   0.444480000000000   0.639440000000000 1
ion Ti   0.931220000000000   0.054080000000000   0.900900000000000 1
ion Ti   0.554870000000000   0.930730000000000   0.124460000000000 1
ion Ti   0.932400000000000   0.581410000000000   0.389480000000000 1
ion Ti   0.546780000000000   0.953090000000000   0.633210000000000 1
ion Ti   0.936600000000000   0.559910000000000   0.865590000000000 1
ion O   0.038490000000000   0.169150000000000   0.373230000000000 1
ion O   0.157560000000000   0.031690000000000   0.146980000000000 1
ion O   0.328810000000000   0.458460000000000   0.352790000000000 1
ion O   0.462640000000000   0.337550000000000   0.125140000000000 1
ion O   0.051200000000000   0.159030000000000   0.871480000000000 1
ion O   0.165250000000000   0.048410000000000   0.634810000000000 1
ion O   0.342330000000000   0.456190000000000   0.875500000000000 1
ion O   0.482700000000000   0.334190000000000   0.638110000000000 1
ion O   0.053640000000000   0.675790000000000   0.376710000000000 1
ion O   0.178480000000000   0.548900000000000   0.114060000000000 1
ion O   0.329360000000000   0.969850000000000   0.350940000000000 1
ion O   0.461600000000000   0.830420000000000   0.131960000000000 1
ion O   0.029580000000000   0.686620000000000   0.869080000000000 1
ion O   0.166470000000000   0.521760000000000   0.632800000000000 1
ion O   0.334210000000000   0.979910000000000   0.881790000000000 1
ion O   0.460270000000000   0.836020000000000   0.631660000000000 1
ion O   0.543900000000000   0.173400000000000   0.368810000000000 1
ion O   0.667280000000000   0.043340000000000   0.154190000000000 1
ion O   0.829990000000000   0.459840000000000   0.381930000000000 1
ion O   0.942200000000000   0.334310000000000   0.129490000000000 1
ion O   0.545420000000000   0.169980000000000   0.869240000000000 1
ion O   0.653360000000000   0.030600000000000   0.629230000000000 1
ion O   0.824100000000000   0.459120000000000   0.865970000000000 1
ion O   0.967920000000000   0.342470000000000   0.632490000000000 1
ion O   0.560370000000000   0.661790000000000   0.382980000000000 1
ion O   0.641470000000000   0.541570000000000   0.131950000000000 1
ion O   0.819820000000000   0.967330000000000   0.364510000000000 1
ion O   0.971500000000000   0.831000000000000   0.122450000000000 1
ion O   0.530030000000000   0.652660000000000   0.867410000000000 1
ion O   0.666700000000000   0.548000000000000   0.632620000000000 1
ion O   0.841500000000000   0.956310000000000   0.883720000000000 1
ion O   0.954500000000000   0.826580000000000   0.618350000000000 1

# Forces in Lattice coordinates:
force Ti   1.729927108705219   0.403309059451370  -1.807749948964467 1
force Ti   1.857890789767065   1.016153357646743  -1.481390333718199 1
force Ti  -2.490406249596843  -1.553685642202975   1.935916308524810 1
force Ti  -0.376114080289276  -0.844682650834255   1.095188161681769 1
force Ti   1.069806191521293   0.521464816819904  -0.797145457588507 1
force Ti  -1.209248392639419  -1.225155073555513   1.220017007916255 1
force Ti  -2.049374478454306  -1.199679846743636   2.238068933616912 1
force Ti   2.482395261432639   2.756936494128121  -2.530856027600938 1
force Ti   1.365037326369762   1.411208659414812  -0.948224057430747 1
force Ti  -0.236169168176831   1.065777231351108  -0.652974005202744 1
force Ti   2.988413508062357   2.501716102583273  -3.051920876724523 1
force Ti   2.581375358532760   2.612719236930212  -2.789902316581503 1
force Ti  -0.221568724844780   0.430482720531390  -0.092610105042401 1
force Ti  -1.123820510166833  -1.008427533553312   1.023610265022976 1
force Ti   1.091348427779687   0.320456860664533  -1.346153503171199 1
force Ti  -0.415071630405880  -0.493771087704530   0.274267274120398 1
force O  -0.314884362720264  -0.162175957623376   0.364662014957355 1
force O   2.364105698368285   3.702959162168579  -3.547756692262076 1
force O  -0.805032560595651  -0.522110475130657   0.720601110951832 1
force O  -1.181024168820830  -1.622211923031958   1.158339553426222 1
force O  -0.335772805852001  -0.093714085789044   0.199879359357124 1
force O   1.078162882961569   1.251338364840829  -1.325033536761146 1
force O  -2.736098806957153  -2.740815434892609   2.628949972864747 1
force O  -2.131815355898085  -2.172567608193152   2.192560812780950 1
force O  -0.759109737991290  -0.401063914007247   0.725831169281049 1
force O  -0.070702254169495  -0.054401201864501   0.194406135526477 1
force O  -2.592088842729119  -3.991146187910197   3.979900772108869 1
force O  -0.362403135317377  -0.184921743772510   0.296709456869773 1
force O   0.209588796420816  -0.611245769044803  -0.047750276359320 1
force O   2.387591140175594   2.978194840481549  -3.005073934884583 1
force O  -0.139605630661477  -0.578915191297676   0.299670332353437 1
force O  -0.154190296936791   0.141763455121476   0.097821470206173 1
force O  -0.581169682120654  -0.645373086599138   0.465033858680744 1
force O   1.426907377190139   1.713630386360459  -1.933720060408334 1
force O   0.335098828521211   0.257730200976521  -0.415469119912458 1
force O   0.386531635805462   0.146605353625909  -0.271038671729401 1
force O  -0.524782313109292  -0.278229107309151   0.495122940655961 1
force O   0.978776371442776   0.835708576435541  -0.830217203409148 1
force O   0.104466722498861  -0.303415399437247   0.400374683516037 1
force O  -0.248464979814850  -0.696311256818294   0.302115329273499 1
force O  -0.277994644402998   0.386562745854247   0.110150991015037 1
force O   1.927968329750064   0.832949877674035  -0.857158768257249 1
force O   0.099124814832552  -1.137967889142818   0.929374985024322 1
force O  -2.535154758165777  -2.117652339271207   2.703321303913182 1
force O  -0.259872879899956   0.603264198333881   0.125867832981455 1
force O   0.226628219308922   0.403360527405361  -0.390850288959208 1
force O  -2.436858130830231  -1.678310453517912   1.743558085099411 1
force O  -0.125649135388423   0.019244886297305   0.206093696323274 1

# Energy components:
   Eewald =     -957.4737061573150640
       EH =      424.6130704758516572
     Eloc =    -1278.4904172699486935
      Enl =      159.5707088922308685
      Exc =     -258.9380679928892164
 Exc_core =       22.4848840606471505
       KE =      439.2778632978295263
-------------------------------------
     Etot =    -1448.9556646935939170
       TS =        0.0210874195764751
-------------------------------------
        F =    -1448.9767521131705053

IonicMinimize: Iter:   0  F: -1448.976752113170505  |grad|_K:  5.180e-02  t[s]:   1540.61

#--- Lowdin population analysis ---
# oxidation-state Ti +1.545 +1.527 +1.500 +1.534 +1.433 +1.535 +1.522 +1.493 +1.483 +1.556 +1.512 +1.532 +1.553 +1.554 +1.503 +1.560
# oxidation-state O -0.772 -0.686 -0.765 -0.654 -0.800 -0.657 -0.636 -0.677 -0.719 -0.770 -0.619 -0.772 -0.777 -0.672 -0.692 -0.727 -0.771 -0.728 -0.734 -0.766 -0.696 -0.728 -0.774 -0.742 -0.738 -0.696 -0.690 -0.690 -0.772 -0.799 -0.567 -0.706


-------- Electronic minimization -----------
Will mix electronic density at each iteration.
	FillingsUpdate:  mu: +0.323323174  nElectrons: 384.000000
	FillingsUpdate:  mu: +0.326552338  nElectrons: 384.000000
SCF: Cycle:  0   F: -1446.609776993464038   dF: +1.252e+00   |Residual|: 1.025e+00   |deigs|: 5.613e-03  t[s]:   1628.74
	FillingsUpdate:  mu: +0.323799566  nElectrons: 384.000000
SCF: Cycle:  1   F: -1448.830097787229079   dF: -2.220e+00   |Residual|: 5.107e-01   |deigs|: 1.750e-02  t[s]:   1690.81
	FillingsUpdate:  mu: +0.319780464  nElectrons: 384.000000
SCF: Cycle:  2   F: -1449.013829247903459   dF: -1.837e-01   |Residual|: 1.953e-01   |deigs|: 8.394e-03  t[s]:   1753.71
	FillingsUpdate:  mu: +0.319832308  nElectrons: 384.000000
SCF: Cycle:  3   F: -1449.113612684665441   dF: -9.978e-02   |Residual|: 9.290e-02   |deigs|: 3.613e-03  t[s]:   1815.63
	FillingsUpdate:  mu: +0.320092280  nElectrons: 384.000000
SCF: Cycle:  4   F: -1449.128537227774586   dF: -1.492e-02   |Residual|: 5.320e-02   |deigs|: 2.106e-03  t[s]:   1878.54
	FillingsUpdate:  mu: +0.320230485  nElectrons: 384.000000
SCF: Cycle:  5   F: -1449.133774369119465   dF: -5.237e-03   |Residual|: 2.039e-02   |deigs|: 1.020e-03  t[s]:   1936.21
	FillingsUpdate:  mu: +0.320520518  nElectrons: 384.000000
SCF: Cycle:  6   F: -1449.135435418785164   dF: -1.661e-03   |Residual|: 1.236e-02   |deigs|: 5.450e-04  t[s]:   1977.41
	FillingsUpdate:  mu: +0.320536969  nElectrons: 384.000000
SCF: Cycle:  7   F: -1449.135805857443074   dF: -3.704e-04   |Residual|: 6.962e-03   |deigs|: 2.620e-04  t[s]:   2018.11
	FillingsUpdate:  mu: +0.320666498  nElectrons: 384.000000
SCF: Cycle:  8   F: -1449.136024433869352   dF: -2.186e-04   |Residual|: 2.902e-03   |deigs|: 2.055e-04  t[s]:   2059.26
	FillingsUpdate:  mu: +0.320683537  nElectrons: 384.000000
SCF: Cycle:  9   F: -1449.136046556727706   dF: -2.212e-05   |Residual|: 1.393e-03   |deigs|: 8.135e-05  t[s]:   2099.95
	FillingsUpdate:  mu: +0.320692135  nElectrons: 384.000000
SCF: Cycle: 10   F: -1449.136049315141463   dF: -2.758e-06   |Residual|: 6.967e-04   |deigs|: 2.261e-05  t[s]:   2141.05
	FillingsUpdate:  mu: +0.320692721  nElectrons: 384.000000
SCF: Cycle: 11   F: -1449.136049949529024   dF: -6.344e-07   |Residual|: 2.843e-04   |deigs|: 1.040e-05  t[s]:   2182.74
	FillingsUpdate:  mu: +0.320693748  nElectrons: 384.000000
SCF: Cycle: 12   F: -1449.136050042899342   dF: -9.337e-08   |Residual|: 1.412e-04   |deigs|: 4.518e-06  t[s]:   2223.53
	FillingsUpdate:  mu: +0.320692317  nElectrons: 384.000000
SCF: Cycle: 13   F: -1449.136050066897951   dF: -2.400e-08   |Residual|: 7.286e-05   |deigs|: 2.741e-06  t[s]:   2264.51
	FillingsUpdate:  mu: +0.320693283  nElectrons: 384.000000
SCF: Cycle: 14   F: -1449.136050075843059   dF: -8.945e-09   |Residual|: 3.412e-05   |deigs|: 1.641e-06  t[s]:   2305.30
	FillingsUpdate:  mu: +0.320692781  nElectrons: 384.000000
SCF: Cycle: 15   F: -1449.136050077565642   dF: -1.723e-09   |Residual|: 1.717e-05   |deigs|: 1.064e-06  t[s]:   2346.06
SCF: Converged (|Delta E|<1.000000e-08 for 2 iters).

Setting wave functions to eigenvectors of Hamiltonian

# Ionic positions in lattice coordinates:
ion Ti   0.054167298864740   0.435523324638067   0.141635868249522 1
ion Ti   0.429582598624608   0.068991426177216   0.373168973764799 1
ion Ti   0.066579666581336   0.440626771198202   0.627420398740642 1
ion Ti   0.431436176911534   0.055062211979550   0.864545116200995 1
ion Ti   0.051769277698520   0.935765653235261   0.130792764678901 1
ion Ti   0.442521430537611   0.572643667485715   0.371093331105484 1
ion Ti   0.057681874214707   0.940782074913236   0.605187330839005 1
ion Ti   0.438790760493448   0.552123536225261   0.891912234641659 1
ion Ti   0.558152118384172   0.422151945568759   0.124571660508142 1
ion Ti   0.941334199673905   0.064279627189510   0.380927448125802 1
ion Ti   0.550658137575665   0.445211071409213   0.637980846265707 1
ion Ti   0.932653401943159   0.055587976912054   0.899982920382831 1
ion Ti   0.554200639491410   0.931610944283981   0.124516276378657 1
ion Ti   0.931369804069295   0.580654205441941   0.389277791912951 1
ion Ti   0.546698573361589   0.951175836682399   0.630165556647163 1
ion Ti   0.935927683966953   0.559050631333700   0.864733313224692 1
ion O   0.038431162815236   0.169454281473808   0.373829700482924 1
ion O   0.156999283416196   0.034312457333405   0.144534812134280 1
ion O   0.328116346927387   0.458439048104028   0.353061119766675 1
ion O   0.461544905295636   0.335406038147875   0.123983157158287 1
ion O   0.050717400030673   0.159122948715178   0.871409265880262 1
ion O   0.165528284325278   0.049100063379209   0.634047800493165 1
ion O   0.340041045261599   0.453889886517094   0.874979238859383 1
ion O   0.481245710091213   0.332638876790103   0.638301900348923 1
ion O   0.053129977793220   0.676131285365685   0.377402957712995 1
ion O   0.178727644526673   0.549186455235104   0.114686911176563 1
ion O   0.330214403480354   0.967378205109667   0.354212726021814 1
ion O   0.461240532799013   0.830482549136408   0.132069532883550 1
ion O   0.029815593097425   0.684904117134117   0.867897954414898 1
ion O   0.166994879951026   0.523689092968948   0.631267976613198 1
ion O   0.334323687566751   0.978979285816901   0.881506594135822 1
ion O   0.460131372254904   0.836585056168130   0.632095540056680 1
ion O   0.543168334444853   0.172515746120737   0.368105076215409 1
ion O   0.667241505052213   0.043983242910164   0.152461736971545 1
ion O   0.830019110544425   0.459685221953730   0.381363840775205 1
ion O   0.942672604096513   0.334212235314866   0.129468688838755 1
ion O   0.545051238164153   0.170197472470998   0.869685093697394 1
ion O   0.654387131923944   0.031287043818417   0.629596199057196 1
ion O   0.825226370215406   0.459276687078699   0.867400723293143 1
ion O   0.967696652991167   0.341181955231393   0.631680298709709 1
ion O   0.560011280739141   0.663011318366973   0.383761831838617 1
ion O   0.645041299042083   0.542537951955934   0.134438233515639 1
ion O   0.821879415840844   0.966448287773991   0.366459269947835 1
ion O   0.970171693034773   0.830664358430134   0.124242185486426 1
ion O   0.529838948980103   0.654521109042900   0.868824856583834 1
ion O   0.666543554979398   0.548263790373811   0.632259250207669 1
ion O   0.838323247081422   0.954936746250762   0.882226752326418 1
ion O   0.954651740844327   0.827076280836766   0.619076942728836 1

# Forces in Lattice coordinates:
force Ti   1.418786553846679   0.436156928187566  -1.508013074382831 1
force Ti   0.973949279770043   0.325691924357954  -0.682598117032590 1
force Ti  -1.448443708887822  -0.784202546472397   1.109242748687015 1
force Ti  -0.236867798213097  -0.591560027906956   0.827758626540123 1
force Ti   0.802235018257715   0.261390118643665  -0.536524173821282 1
force Ti  -0.994582880340094  -0.986508351013214   0.961480100424413 1
force Ti  -1.556814948854079  -0.892308724119609   1.742912564593698 1
force Ti   1.382230645508431   1.663763380394530  -1.523614672829702 1
force Ti   0.899293384731059   0.998881794603456  -0.629822617885522 1
force Ti  -0.161586651420150   0.820484161622605  -0.544101286608583 1
force Ti   2.162679259301016   1.716831330605793  -2.161966352478519 1
force Ti   1.667647105460628   1.711439673921468  -1.911067665310766 1
force Ti   0.010632282736375   0.500022558759471  -0.240547422000857 1
force Ti  -0.884547657059279  -0.917552461710489   0.882411427708101 1
force Ti   0.825472956136586   0.248126584937881  -1.041932548122720 1
force Ti  -0.361985932785258  -0.395707278812325   0.298038207881495 1
force O  -0.288734376447207  -0.180119342796487   0.315639935055444 1
force O   1.999731313352427   2.940454147633980  -2.821941490945441 1
force O  -0.716577354434464  -0.522565825249045   0.696627102412154 1
force O  -0.822629503114458  -1.190340614394880   0.825051839836373 1
force O  -0.426081802971196  -0.121877531315389   0.304331438423843 1
force O   0.754626083038517   0.895851801262971  -0.978109967724679 1
force O  -1.667655151271325  -1.635038616382092   1.573602749313117 1
force O  -1.357159665826247  -1.280584350446061   1.365650984446658 1
force O  -0.685626304672414  -0.470625423789827   0.651381084757502 1
force O  -0.123364341290963  -0.089213890831060   0.208104790408822 1
force O  -1.799107698811212  -2.842608246136117   2.856243375657534 1
force O  -0.262658521348360  -0.109020136505709   0.212027963826657 1
force O   0.099828583023045  -0.625093941278324   0.050817738754128 1
force O   1.573431508528913   2.070146397387086  -2.070378552700030 1
force O  -0.224616181840796  -0.642029607291009   0.390091121194610 1
force O  -0.120586467077831   0.099813769539510   0.070955380905189 1
force O  -0.615660908575117  -0.602164629770422   0.513814938275176 1
force O   1.186210653516823   1.430012571163926  -1.633833763384080 1
force O   0.337396243633552   0.232088757219808  -0.369173178441514 1
force O   0.461131663893559   0.208745814830106  -0.362267405809183 1
force O  -0.453205244069786  -0.320613003116703   0.439187560050510 1
force O   1.002118021873978   0.870526786059740  -0.880345318527615 1
force O   0.098037724778508  -0.251913350546711   0.320088889748373 1
force O  -0.292514289294530  -0.616638325533042   0.315162531261673 1
force O  -0.344258862013362   0.257093158537501   0.186780335438512 1
force O   1.691386966291067   0.851601566489399  -0.883433333044089 1
force O   0.014837310137186  -0.961822772617552   0.785091473837445 1
force O  -1.893748247722038  -1.477673432858230   2.005506368182574 1
force O  -0.127981970737649   0.480479111818166   0.011033696714372 1
force O   0.121358970184738   0.263801505315215  -0.261122148083405 1
force O  -1.502841139777635  -0.840110720415581   0.935947298633745 1
force O  -0.112753118058654   0.065205250938430   0.185013018307285 1

# Energy components:
   Eewald =     -962.5375627552635933
       EH =      419.5527161311513851
     Eloc =    -1267.7744446981628244
      Enl =      159.3364900973843987
      Exc =     -258.7131972221237675
 Exc_core =       22.4848484848459442
       KE =      438.5309767251798689
-------------------------------------
     Etot =    -1449.1201732369881938
       TS =        0.0158768405775078
-------------------------------------
        F =    -1449.1360500775656419

IonicMinimize: Iter:   1  F: -1449.136050077565642  |grad|_K:  3.748e-02  alpha:  4.837e-01  linmin: -9.876e-01  t[s]:   2359.86

#--- Lowdin population analysis ---
# oxidation-state Ti +1.557 +1.547 +1.522 +1.544 +1.461 +1.543 +1.535 +1.526 +1.497 +1.562 +1.541 +1.553 +1.558 +1.559 +1.518 +1.564
# oxidation-state O -0.765 -0.695 -0.763 -0.675 -0.798 -0.675 -0.679 -0.702 -0.733 -0.766 -0.661 -0.763 -0.770 -0.709 -0.697 -0.733 -0.764 -0.734 -0.730 -0.761 -0.707 -0.726 -0.772 -0.734 -0.740 -0.700 -0.701 -0.706 -0.771 -0.798 -0.612 -0.713


-------- Electronic minimization -----------
Will mix electronic density at each iteration.
	FillingsUpdate:  mu: +0.320692781  nElectrons: 384.000000
	FillingsUpdate:  mu: +0.317352993  nElectrons: 384.000000
SCF: Cycle:  0   F: -1447.295036895841122   dF: +9.531e-01   |Residual|: 9.001e-01   |deigs|: 4.091e-03  t[s]:   2449.03
	FillingsUpdate:  mu: +0.321303741  nElectrons: 384.000000
SCF: Cycle:  1   F: -1448.966682925174155   dF: -1.672e+00   |Residual|: 4.790e-01   |deigs|: 1.490e-02  t[s]:   2511.33
	FillingsUpdate:  mu: +0.317551458  nElectrons: 384.000000
SCF: Cycle:  2   F: -1449.154194534889484   dF: -1.875e-01   |Residual|: 1.654e-01   |deigs|: 6.662e-03  t[s]:   2574.56
	FillingsUpdate:  mu: +0.318149936  nElectrons: 384.000000
SCF: Cycle:  3   F: -1449.227499578437119   dF: -7.331e-02   |Residual|: 7.504e-02   |deigs|: 2.564e-03  t[s]:   2637.06
	FillingsUpdate:  mu: +0.318344128  nElectrons: 384.000000
SCF: Cycle:  4   F: -1449.238144144714170   dF: -1.064e-02   |Residual|: 4.613e-02   |deigs|: 1.642e-03  t[s]:   2699.31
	FillingsUpdate:  mu: +0.318446001  nElectrons: 384.000000
SCF: Cycle:  5   F: -1449.242073143330117   dF: -3.929e-03   |Residual|: 1.756e-02   |deigs|: 8.931e-04  t[s]:   2757.31
	FillingsUpdate:  mu: +0.318683472  nElectrons: 384.000000
SCF: Cycle:  6   F: -1449.243265325641687   dF: -1.192e-03   |Residual|: 1.015e-02   |deigs|: 4.637e-04  t[s]:   2797.64
	FillingsUpdate:  mu: +0.318709193  nElectrons: 384.000000
SCF: Cycle:  7   F: -1449.243572463175042   dF: -3.071e-04   |Residual|: 5.663e-03   |deigs|: 2.217e-04  t[s]:   2838.13
	FillingsUpdate:  mu: +0.318801076  nElectrons: 384.000000
SCF: Cycle:  8   F: -1449.243701844935231   dF: -1.294e-04   |Residual|: 2.483e-03   |deigs|: 1.581e-04  t[s]:   2878.38
	FillingsUpdate:  mu: +0.318810969  nElectrons: 384.000000
SCF: Cycle:  9   F: -1449.243715987197447   dF: -1.414e-05   |Residual|: 1.181e-03   |deigs|: 6.095e-05  t[s]:   2920.16
	FillingsUpdate:  mu: +0.318812614  nElectrons: 384.000000
SCF: Cycle: 10   F: -1449.243718183458213   dF: -2.196e-06   |Residual|: 5.800e-04   |deigs|: 2.077e-05  t[s]:   2960.42
	FillingsUpdate:  mu: +0.318815581  nElectrons: 384.000000
SCF: Cycle: 11   F: -1449.243718668931024   dF: -4.855e-07   |Residual|: 2.419e-04   |deigs|: 9.241e-06  t[s]:   3001.33
	FillingsUpdate:  mu: +0.318814813  nElectrons: 384.000000
SCF: Cycle: 12   F: -1449.243718732748903   dF: -6.382e-08   |Residual|: 1.269e-04   |deigs|: 4.009e-06  t[s]:   3041.81
	FillingsUpdate:  mu: +0.318814795  nElectrons: 384.000000
SCF: Cycle: 13   F: -1449.243718759533294   dF: -2.678e-08   |Residual|: 4.659e-05   |deigs|: 2.139e-06  t[s]:   3082.94
	FillingsUpdate:  mu: +0.318814713  nElectrons: 384.000000
SCF: Cycle: 14   F: -1449.243718763084871   dF: -3.552e-09   |Residual|: 2.423e-05   |deigs|: 1.320e-06  t[s]:   3123.95
	FillingsUpdate:  mu: +0.318814650  nElectrons: 384.000000
SCF: Cycle: 15   F: -1449.243718763858396   dF: -7.735e-10   |Residual|: 1.477e-05   |deigs|: 9.005e-07  t[s]:   3164.26
SCF: Converged (|Delta E|<1.000000e-08 for 2 iters).

Setting wave functions to eigenvectors of Hamiltonian

# Ionic positions in lattice coordinates:
ion Ti   0.054819759568435   0.433215035276270   0.137869725682364 1
ion Ti   0.430575573730046   0.067925977471978   0.372972330784425 1
ion Ti   0.065315747242427   0.441238540613844   0.627859100224859 1
ion Ti   0.433124061225404   0.055648966633937   0.867499333830764 1
ion Ti   0.053264733548559   0.935060045626767   0.130734026521299 1
ion Ti   0.441197040590527   0.571427730182116   0.370654016041380 1
ion Ti   0.057258185615539   0.942509465837614   0.608853192291741 1
ion Ti   0.438797725603355   0.553310304339745   0.891345266667818 1
ion Ti   0.559586081238373   0.424163257546811   0.126439933681106 1
ion Ti   0.939347765816108   0.065327184756686   0.379309651181107 1
ion Ti   0.552564981408493   0.445412383354108   0.636685043276463 1
ion Ti   0.932822789717394   0.055976486813336   0.897980616612514 1
ion Ti   0.553996047796667   0.932907966091448   0.124656432156788 1
ion Ti   0.930673372003425   0.579355587792326   0.389274659955679 1
ion Ti   0.546452594830779   0.949163297060111   0.626859639815186 1
ion Ti   0.935493550919675   0.558619023769410   0.864693083198750 1
ion O   0.038172746471746   0.169503927201328   0.374215600557246 1
ion O   0.157374404921100   0.037305599177718   0.142661120558719 1
ion O   0.327483935945653   0.458325104352989   0.353820979871437 1
ion O   0.460728314994441   0.333307820587276   0.122879503716155 1
ion O   0.049850858568385   0.159702772994947   0.871943251522908 1
ion O   0.165409768106371   0.049461897218962   0.632837001169580 1
ion O   0.338640600829221   0.452740793165082   0.874539476310167 1
ion O   0.480239757574011   0.332316450425879   0.638727129944541 1
ion O   0.052245097036699   0.675681091238312   0.377550123871822 1
ion O   0.178774236326828   0.549429481978284   0.115335806095693 1
ion O   0.331493943237570   0.965482983748567   0.357656043225519 1
ion O   0.460927051510791   0.830725945830414   0.132304846933390 1
ion O   0.030001871652032   0.682410052056196   0.866386749593953 1
ion O   0.166825427617118   0.525267488450791   0.629685713441958 1
ion O   0.334391740998663   0.977399200585137   0.881253916925430 1
ion O   0.459930989377029   0.837053650463375   0.632398852165460 1
ion O   0.542016142505298   0.171663109782839   0.367656908363677 1
ion O   0.667010084882637   0.044619594512138   0.150019593600299 1
ion O   0.830395590276838   0.459540660197071   0.380887054577080 1
ion O   0.943524554255986   0.333986849796130   0.129100363929659 1
ion O   0.544559878329601   0.169893243682461   0.869855475704678 1
ion O   0.656035637867339   0.032430260509801   0.629924527397079 1
ion O   0.826596919975601   0.459389806926905   0.869038094671025 1
ion O   0.967125727548988   0.339666567072811   0.630727558173774 1
ion O   0.559244068063140   0.664518746483702   0.384806447998638 1
ion O   0.649065451648335   0.543909973203071   0.136780633297088 1
ion O   0.823887920736120   0.965258032357529   0.368404499714009 1
ion O   0.968916882913516   0.831116269259291   0.126513977526158 1
ion O   0.529642524069602   0.656026893453713   0.869672499744926 1
ion O   0.666172882105796   0.548371119177268   0.631741529907557 1
ion O   0.835753387018095   0.954791498830549   0.880782763492108 1
ion O   0.954921591780247   0.828181862112955   0.620455904076021 1

# Forces in Lattice coordinates:
force Ti   1.078728863932260   0.407882284913340  -1.179258708146934 1
force Ti   0.641612469395115   0.141453496351704  -0.386006888953268 1
force Ti  -1.002303292977758  -0.534975235176155   0.780335837480437 1
force Ti  -0.169754405499453  -0.432750342385063   0.614905379652982 1
force Ti   0.669354350739895   0.229494000535688  -0.463456445388962 1
force Ti  -0.863563382815091  -0.816289522258730   0.808836074332910 1
force Ti  -1.154877889469834  -0.696929857449613   1.329952607921880 1
force Ti   1.046568833783209   1.266267872779186  -1.183109795128029 1
force Ti   0.658853586186128   0.757843308538851  -0.482062009618551 1
force Ti  -0.145257484322492   0.562411667988943  -0.362888955333294 1
force Ti   1.599419058038733   1.246747721003806  -1.575566824987246 1
force Ti   1.280167035706813   1.354933793414645  -1.542544422156693 1
force Ti   0.108677645946417   0.447329527913960  -0.266738988237280 1
force Ti  -0.600658290850391  -0.695522291292055   0.637460813042282 1
force Ti   0.630376557491520   0.182587206960526  -0.780231296040479 1
force Ti  -0.332452868754944  -0.364532441840269   0.313002350876370 1
force O  -0.208458049897216  -0.155871658964688   0.221729824310205 1
force O   1.543950966706473   2.181041888418766  -2.094807612722441 1
force O  -0.582596115331244  -0.469938850646519   0.613827581919148 1
force O  -0.569754086461272  -0.842660958693350   0.592029425545048 1
force O  -0.441081892202318  -0.113094677152155   0.334965593412425 1
force O   0.525513483793981   0.614564034548728  -0.694323897629300 1
force O  -1.225857582274857  -1.184662883378312   1.155921113802146 1
force O  -0.963629387895157  -0.857096278255171   0.942076999249011 1
force O  -0.629395836758202  -0.484637569098000   0.597061897619330 1
force O  -0.160015612739165  -0.117428514412967   0.217138348385984 1
force O  -1.422167623576295  -2.164124557509187   2.179562350313462 1
force O  -0.194160433108016  -0.056528965739996   0.145728696015140 1
force O   0.018828841754595  -0.570592405814077   0.122604447717584 1
force O   1.164783406851198   1.586487119825383  -1.572402303963244 1
force O  -0.244442375988833  -0.618143464451360   0.398339833746961 1
force O  -0.069772259806420   0.078685648234891   0.025735073719930 1
force O  -0.585292380589802  -0.538335688990273   0.501417034299618 1
force O   0.965215469181738   1.168084501650156  -1.350797157848490 1
force O   0.288949204034221   0.187404567740066  -0.304054000892238 1
force O   0.477809684408965   0.241801016401110  -0.392712655790146 1
force O  -0.391195253474024  -0.306445128282563   0.387663583938538 1
force O   0.897707601366638   0.801966002539597  -0.816382132669390 1
force O   0.126659036469692  -0.178863543850386   0.219222427197265 1
force O  -0.298409246879062  -0.491089035356429   0.295162614462877 1
force O  -0.344521679386338   0.160729698158148   0.195427082975240 1
force O   1.390300858001999   0.745706094760606  -0.788780259420960 1
force O  -0.024824981684879  -0.743261312271974   0.600975713705241 1
force O  -1.363798246406595  -1.001818438709434   1.426691756414929 1
force O  -0.030499045539343   0.412626692075804  -0.073808573837751 1
force O   0.069582481827340   0.172342345390147  -0.177511031623714 1
force O  -1.072984712745523  -0.572785754113410   0.667710432467223 1
force O  -0.097560932118522   0.054712159835911   0.167083636678730 1

# Energy components:
   Eewald =     -966.1995670506590841
       EH =      415.8124029591505746
     Eloc =    -1259.9772335207007927
      Enl =      159.1807813449059097
      Exc =     -258.5627564682028492
 Exc_core =       22.4848352725609608
       KE =      438.0305892221115869
-------------------------------------
     Etot =    -1449.2309482408338681
       TS =        0.0127705230244185
-------------------------------------
        F =    -1449.2437187638583964

IonicMinimize: Iter:   2  F: -1449.243718763858396  |grad|_K:  2.850e-02  alpha:  2.880e-01  linmin: -9.836e-01  t[s]:   3178.06

#--- Lowdin population analysis ---
# oxidation-state Ti +1.566 +1.558 +1.532 +1.552 +1.487 +1.549 +1.547 +1.543 +1.511 +1.565 +1.560 +1.561 +1.564 +1.565 +1.530 +1.567
# oxidation-state O -0.761 -0.708 -0.761 -0.688 -0.793 -0.694 -0.696 -0.717 -0.748 -0.762 -0.683 -0.759 -0.764 -0.724 -0.703 -0.737 -0.760 -0.738 -0.726 -0.759 -0.719 -0.728 -0.769 -0.731 -0.744 -0.706 -0.712 -0.715 -0.772 -0.795 -0.638 -0.722


-------- Electronic minimization -----------
Will mix electronic density at each iteration.
	FillingsUpdate:  mu: +0.318814650  nElectrons: 384.000000
	FillingsUpdate:  mu: +0.313401332  nElectrons: 384.000000
SCF: Cycle:  0   F: -1446.001955297719405   dF: +2.075e+00   |Residual|: 1.042e+00   |deigs|: 5.178e-03  t[s]:   3268.31
	FillingsUpdate:  mu: +0.318944414  nElectrons: 384.000000
SCF: Cycle:  1   F: -1448.786946292128277   dF: -2.785e+00   |Residual|: 6.421e-01   |deigs|: 1.771e-02  t[s]:   3331.41
	FillingsUpdate:  mu: +0.317692035  nElectrons: 384.000000
SCF: Cycle:  2   F: -1449.254429120493569   dF: -4.675e-01   |Residual|: 1.923e-01   |deigs|: 1.488e-02  t[s]:   3394.01
	FillingsUpdate:  mu: +0.316579866  nElectrons: 384.000000
SCF: Cycle:  3   F: -1449.308601087618399   dF: -5.417e-02   |Residual|: 8.434e-02   |deigs|: 2.457e-03  t[s]:   3456.62
	FillingsUpdate:  mu: +0.316415695  nElectrons: 384.000000
SCF: Cycle:  4   F: -1449.324233545843754   dF: -1.563e-02   |Residual|: 4.804e-02   |deigs|: 2.117e-03  t[s]:   3518.90
	FillingsUpdate:  mu: +0.316767980  nElectrons: 384.000000
SCF: Cycle:  5   F: -1449.330259642605824   dF: -6.026e-03   |Residual|: 2.595e-02   |deigs|: 1.251e-03  t[s]:   3576.93
	FillingsUpdate:  mu: +0.316864883  nElectrons: 384.000000
SCF: Cycle:  6   F: -1449.332578872664044   dF: -2.319e-03   |Residual|: 1.162e-02   |deigs|: 6.710e-04  t[s]:   3625.46
	FillingsUpdate:  mu: +0.316883358  nElectrons: 384.000000
SCF: Cycle:  7   F: -1449.332975500042039   dF: -3.966e-04   |Residual|: 6.911e-03   |deigs|: 2.220e-04  t[s]:   3666.18
	FillingsUpdate:  mu: +0.316943116  nElectrons: 384.000000
SCF: Cycle:  8   F: -1449.333190247106813   dF: -2.147e-04   |Residual|: 3.598e-03   |deigs|: 1.995e-04  t[s]:   3706.40
	FillingsUpdate:  mu: +0.316957466  nElectrons: 384.000000
SCF: Cycle:  9   F: -1449.333228788517772   dF: -3.854e-05   |Residual|: 1.615e-03   |deigs|: 9.021e-05  t[s]:   3746.91
	FillingsUpdate:  mu: +0.316977729  nElectrons: 384.000000
SCF: Cycle: 10   F: -1449.333234360306733   dF: -5.572e-06   |Residual|: 6.760e-04   |deigs|: 3.439e-05  t[s]:   3788.34
	FillingsUpdate:  mu: +0.316967549  nElectrons: 384.000000
SCF: Cycle: 11   F: -1449.333234825972568   dF: -4.657e-07   |Residual|: 3.883e-04   |deigs|: 1.138e-05  t[s]:   3829.09
	FillingsUpdate:  mu: +0.316970852  nElectrons: 384.000000
SCF: Cycle: 12   F: -1449.333235003320169   dF: -1.773e-07   |Residual|: 1.809e-04   |deigs|: 5.593e-06  t[s]:   3869.63
	FillingsUpdate:  mu: +0.316969454  nElectrons: 384.000000
SCF: Cycle: 13   F: -1449.333235045724678   dF: -4.240e-08   |Residual|: 7.978e-05   |deigs|: 2.832e-06  t[s]:   3909.62
	FillingsUpdate:  mu: +0.316969724  nElectrons: 384.000000
SCF: Cycle: 14   F: -1449.333235052861028   dF: -7.136e-09   |Residual|: 3.215e-05   |deigs|: 1.412e-06  t[s]:   3950.48
	FillingsUpdate:  mu: +0.316969437  nElectrons: 384.000000
SCF: Cycle: 15   F: -1449.333235054498118   dF: -1.637e-09   |Residual|: 1.609e-05   |deigs|: 9.453e-07  t[s]:   3991.96
SCF: Converged (|Delta E|<1.000000e-08 for 2 iters).

Setting wave functions to eigenvectors of Hamiltonian

# Ionic positions in lattice coordinates:
ion Ti   0.055224909118550   0.431480203938809   0.133997582482632 1
ion Ti   0.431799610925967   0.066837300821159   0.373616815443876 1
ion Ti   0.064613751372878   0.442070820350833   0.628704064858426 1
ion Ti   0.434889798796529   0.056320847560939   0.870576632908345 1
ion Ti   0.055096483352593   0.934232457778721   0.130383206827245 1
ion Ti   0.439030079359786   0.569938079521634   0.369985936055323 1
ion Ti   0.057255352493757   0.944140535190344   0.612986048407028 1
ion Ti   0.438624667323061   0.554419647534709   0.890123208936453 1
ion Ti   0.560753088685574   0.426219675209783   0.128017766630423 1
ion Ti   0.937447659082676   0.066153317476930   0.377880192806938 1
ion Ti   0.554718060425236   0.445605796585548   0.635732449896045 1
ion Ti   0.932224726047046   0.056179893068881   0.894369804600932 1
ion Ti   0.554321809763117   0.934386209185521   0.124797650034173 1
ion Ti   0.930585245992504   0.577748405723241   0.389345740656663 1
ion Ti   0.546409733682378   0.947084470766312   0.623622953282305 1
ion Ti   0.935140943705617   0.558153799901111   0.865276156300739 1
ion O   0.037802357199887   0.169049670567252   0.374034037155808 1
ion O   0.158636953578742   0.040359680657097   0.141561490960467 1
ion O   0.327206360958396   0.458134634158663   0.355393262353644 1
ion O   0.460361417809583   0.331684050600555   0.122353785066491 1
ion O   0.048474022712530   0.161133986045381   0.873421482233716 1
ion O   0.165096885988636   0.049399237513251   0.631363750613755 1
ion O   0.337262074283570   0.451830025101154   0.874330924575618 1
ion O   0.479111409741099   0.332504420437899   0.639046887302025 1
ion O   0.050735206642217   0.674429224354879   0.377338111423258 1
ion O   0.178493257877955   0.549573783783368   0.116060526495972 1
ion O   0.332039506648068   0.963313613752605   0.360761769778568 1
ion O   0.460514494368904   0.831188974550347   0.132555723857791 1
ion O   0.030253171288538   0.679328754929184   0.865020394542599 1
ion O   0.166271624924444   0.527172528799762   0.627769380518305 1
ion O   0.334419149139738   0.974935034128042   0.880975703189252 1
ion O   0.459689486034702   0.837267708290736   0.632295985000486 1
ion O   0.540304076891448   0.170732315930439   0.367476890975086 1
ion O   0.666466225956948   0.045232927311430   0.146452723150587 1
ion O   0.830980277735022   0.459304658073689   0.380314811171926 1
ion O   0.944996987716672   0.333742273693596   0.128406764646382 1
ion O   0.543907020267464   0.169266802171792   0.870049121636780 1
ion O   0.658180801355346   0.034112873957458   0.630026778865136 1
ion O   0.828579348963376   0.459498773819759   0.871007960375890 1
ion O   0.966051668515008   0.338316789043604   0.629900603574908 1
ion O   0.557798699416717   0.666110751582113   0.385747588526230 1
ion O   0.653608511569995   0.545516400873938   0.138876971201301 1
ion O   0.825501521343024   0.963798871409289   0.369937691425154 1
ion O   0.967680701511994   0.832269354993369   0.128920502954774 1
ion O   0.529466779786766   0.657454883355386   0.869950498555013 1
ion O   0.665666446859502   0.548293870554359   0.631079338856241 1
ion O   0.833569045401055   0.955086905679584   0.879894687782596 1
ion O   0.955388587385383   0.829724759265546   0.622507641106693 1

# Forces in Lattice coordinates:
force Ti   0.757576142640607   0.342782263054224  -0.853740999607206 1
force Ti   0.431764986966302   0.071688124236469  -0.227865673994162 1
force Ti  -0.679503405058038  -0.405184063456308   0.553053432292521 1
force Ti  -0.100967808424300  -0.285824447419840   0.401878766476282 1
force Ti   0.499166074115158   0.228884506053239  -0.389748809931624 1
force Ti  -0.697394302064786  -0.633520770726931   0.643909555617472 1
force Ti  -0.822952938771376  -0.561607937523007   0.977387860855447 1
force Ti   0.774956356638610   0.931081530475724  -0.886770412986687 1
force Ti   0.489092773173545   0.587677173426848  -0.388979835058934 1
force Ti  -0.082994286081876   0.363042652494951  -0.237585063059010 1
force Ti   1.156897446277973   0.894151147467958  -1.138243676840982 1
force Ti   0.956868858821970   1.018686658814639  -1.181049570499036 1
force Ti   0.110280062568834   0.337840727659884  -0.212664421530032 1
force Ti  -0.310058608265591  -0.437046497859813   0.369557127696353 1
force Ti   0.468558548456223   0.090333393660630  -0.518393753693352 1
force Ti  -0.285763398465596  -0.296162154617194   0.286632342070231 1
force O  -0.152762651312249  -0.119455246344229   0.159568323314247 1
force O   1.139520615261754   1.555669478216536  -1.500705520471167 1
force O  -0.437053219718107  -0.390455549601360   0.506240246372206 1
force O  -0.386522239736780  -0.566088451264109   0.420891303134070 1
force O  -0.401175344443451  -0.106817001546966   0.311092560807341 1
force O   0.328927902128107   0.365596053295178  -0.430999513734704 1
force O  -0.825120893620869  -0.775012877186299   0.775156181284846 1
force O  -0.701340340130920  -0.580973073848218   0.665075146183649 1
force O  -0.571874203338935  -0.440074907597870   0.542914727075289 1
force O  -0.202941863884214  -0.159493294507956   0.240530306095254 1
force O  -1.061799210195169  -1.586815086751493   1.596401416610854 1
force O  -0.111245957006082  -0.007333213081563   0.063574811361809 1
force O  -0.036670986572509  -0.491592365482171   0.165073228225074 1
force O   0.834372604000868   1.153911856716348  -1.128833769907418 1
force O  -0.226913060256332  -0.529441400610475   0.346279246201949 1
force O  -0.036672925239751   0.065880208678070  -0.005742179078490 1
force O  -0.504830813361526  -0.457287125056705   0.445375237093141 1
force O   0.727295744044585   0.886952657674337  -1.041762458807692 1
force O   0.221240296337641   0.136955612937900  -0.232531287899619 1
force O   0.445425305819096   0.248303594110818  -0.379595226978682 1
force O  -0.330156367692289  -0.271064762977629   0.334524140572452 1
force O   0.701404380671669   0.657153867711457  -0.669929328535320 1
force O   0.137727205959935  -0.110895324026751   0.130014020877052 1
force O  -0.272575677339414  -0.357023470876582   0.247562099872709 1
force O  -0.310605059991731   0.078360245047602   0.173840706532231 1
force O   1.042542861573985   0.597499627950597  -0.652786909072675 1
force O  -0.037244666365645  -0.526832236295425   0.421384399282398 1
force O  -0.931718137586455  -0.663258011838191   0.957051266101397 1
force O   0.028909580835863   0.355727508094974  -0.114957028909292 1
force O   0.026371306641582   0.085975519902320  -0.095809832780631 1
force O  -0.680965624503140  -0.328257153288154   0.409440912211471 1
force O  -0.072697910885956   0.039853332661726   0.137490562963690 1

# Energy components:
   Eewald =     -969.6502334045461566
       EH =      412.2471484966329172
     Eloc =    -1252.6093773599991437
      Enl =      159.0468504159918837
      Exc =     -258.4283432216707297
 Exc_core =       22.4848540264735384
       KE =      437.5866479674915581
-------------------------------------
     Etot =    -1449.3224530796260296
       TS =        0.0107819748719891
-------------------------------------
        F =    -1449.3332350544981182

IonicMinimize: Iter:   3  F: -1449.333235054498118  |grad|_K:  2.069e-02  alpha:  3.008e-01  linmin: -9.634e-01  t[s]:   4005.59

#--- Lowdin population analysis ---
# oxidation-state Ti +1.573 +1.567 +1.540 +1.559 +1.510 +1.555 +1.558 +1.558 +1.524 +1.568 +1.573 +1.569 +1.570 +1.570 +1.541 +1.569
# oxidation-state O -0.758 -0.721 -0.759 -0.699 -0.787 -0.710 -0.711 -0.729 -0.761 -0.758 -0.699 -0.757 -0.760 -0.734 -0.711 -0.740 -0.759 -0.741 -0.722 -0.755 -0.729 -0.732 -0.765 -0.730 -0.748 -0.713 -0.721 -0.723 -0.770 -0.793 -0.664 -0.733


-------- Electronic minimization -----------
Will mix electronic density at each iteration.
	FillingsUpdate:  mu: +0.316969437  nElectrons: 384.000000
	FillingsUpdate:  mu: +0.309620853  nElectrons: 384.000000
SCF: Cycle:  0   F: -1443.152538739960846   dF: +4.840e+00   |Residual|: 1.204e+00   |deigs|: 5.914e-03  t[s]:   4094.96
	FillingsUpdate:  mu: +0.316227026  nElectrons: 384.000000
SCF: Cycle:  1   F: -1448.399816545000704   dF: -5.247e+00   |Residual|: 8.488e-01   |deigs|: 2.771e-02  t[s]:   4158.01
	FillingsUpdate:  mu: +0.316974191  nElectrons: 384.000000
SCF: Cycle:  2   F: -1449.264660187593336   dF: -8.648e-01   |Residual|: 2.824e-01   |deigs|: 2.418e-02  t[s]:   4220.75
	FillingsUpdate:  mu: +0.315943549  nElectrons: 384.000000
SCF: Cycle:  3   F: -1449.364631311681478   dF: -9.997e-02   |Residual|: 1.377e-01   |deigs|: 8.312e-03  t[s]:   4283.83
	FillingsUpdate:  mu: +0.315167439  nElectrons: 384.000000
SCF: Cycle:  4   F: -1449.384871912309109   dF: -2.024e-02   |Residual|: 6.555e-02   |deigs|: 3.382e-03  t[s]:   4346.77
	FillingsUpdate:  mu: +0.315289906  nElectrons: 384.000000
SCF: Cycle:  5   F: -1449.394914815786933   dF: -1.004e-02   |Residual|: 3.143e-02   |deigs|: 1.156e-03  t[s]:   4405.44
	FillingsUpdate:  mu: +0.315390230  nElectrons: 384.000000
SCF: Cycle:  6   F: -1449.398994089561484   dF: -4.079e-03   |Residual|: 1.532e-02   |deigs|: 7.574e-04  t[s]:   4459.27
	FillingsUpdate:  mu: +0.315381544  nElectrons: 384.000000
SCF: Cycle:  7   F: -1449.399631988107785   dF: -6.379e-04   |Residual|: 8.555e-03   |deigs|: 2.654e-04  t[s]:   4499.44
	FillingsUpdate:  mu: +0.315379218  nElectrons: 384.000000
SCF: Cycle:  8   F: -1449.399890672276115   dF: -2.587e-04   |Residual|: 5.982e-03   |deigs|: 2.549e-04  t[s]:   4540.28
	FillingsUpdate:  mu: +0.315392768  nElectrons: 384.000000
SCF: Cycle:  9   F: -1449.400023262724744   dF: -1.326e-04   |Residual|: 2.222e-03   |deigs|: 1.692e-04  t[s]:   4581.48
	FillingsUpdate:  mu: +0.315415945  nElectrons: 384.000000
SCF: Cycle: 10   F: -1449.400038980241106   dF: -1.572e-05   |Residual|: 9.945e-04   |deigs|: 5.275e-05  t[s]:   4622.53
	FillingsUpdate:  mu: +0.315415098  nElectrons: 384.000000
SCF: Cycle: 11   F: -1449.400040847775017   dF: -1.868e-06   |Residual|: 4.637e-04   |deigs|: 2.323e-05  t[s]:   4662.64
	FillingsUpdate:  mu: +0.315418098  nElectrons: 384.000000
SCF: Cycle: 12   F: -1449.400041072699196   dF: -2.249e-07   |Residual|: 2.288e-04   |deigs|: 6.260e-06  t[s]:   4703.08
	FillingsUpdate:  mu: +0.315416872  nElectrons: 384.000000
SCF: Cycle: 13   F: -1449.400041139762834   dF: -6.706e-08   |Residual|: 8.966e-05   |deigs|: 2.717e-06  t[s]:   4743.81
	FillingsUpdate:  mu: +0.315417040  nElectrons: 384.000000
SCF: Cycle: 14   F: -1449.400041146624517   dF: -6.862e-09   |Residual|: 4.085e-05   |deigs|: 1.211e-06  t[s]:   4783.47
	FillingsUpdate:  mu: +0.315417008  nElectrons: 384.000000
SCF: Cycle: 15   F: -1449.400041148624496   dF: -2.000e-09   |Residual|: 2.406e-05   |deigs|: 8.981e-07  t[s]:   4824.15
SCF: Converged (|Delta E|<1.000000e-08 for 2 iters).

Setting wave functions to eigenvectors of Hamiltonian

# Ionic positions in lattice coordinates:
ion Ti   0.055311326873654   0.430537265569602   0.130527815584668 1
ion Ti   0.433265374591173   0.066025096723549   0.374878730252664 1
ion Ti   0.064372030917957   0.442329397343748   0.629515869090172 1
ion Ti   0.436390143887479   0.056807234840056   0.872969108866102 1
ion Ti   0.056408161183417   0.933828344201427   0.129515460553936 1
ion Ti   0.436403093821676   0.568445703240500   0.369409462811039 1
ion Ti   0.057540900154745   0.944891231505629   0.616796816630820 1
ion Ti   0.438499999385641   0.555483364901361   0.888539780066117 1
ion Ti   0.561670240668769   0.428435154486045   0.129163202855348 1
ion Ti   0.936298679685545   0.066642445850832   0.376954460992318 1
ion Ti   0.556871363369272   0.445720027346281   0.634632043201727 1
ion Ti   0.931403163499253   0.056231240873173   0.889911966962181 1
ion Ti   0.554887464417633   0.935853113985239   0.125046761926527 1
ion Ti   0.931501853641449   0.576279358563922   0.389521077809657 1
ion Ti   0.547309538653834   0.944990454719839   0.621470145495680 1
ion Ti   0.934800942197074   0.557919545851649   0.866475155630114 1
ion O   0.037383660530647   0.168509185251463   0.373748050216971 1
ion O   0.160390272184076   0.043279260151469   0.140839507785774 1
ion O   0.327519317766974   0.457981562192972   0.357879124555076 1
ion O   0.460426663810361   0.330810908220836   0.122712735583425 1
ion O   0.046639971786064   0.162922297070448   0.875297692062993 1
ion O   0.164831393694301   0.048916526194360   0.630159446265785 1
ion O   0.336185285873220   0.451536816010726   0.874467358177711 1
ion O   0.477670451837806   0.333018099366428   0.639393844870681 1
ion O   0.048641969569933   0.673131596975663   0.377492994263879 1
ion O   0.177750466335609   0.549445269032779   0.116874978628234 1
ion O   0.332243805079737   0.960914058952971   0.363662504782239 1
ion O   0.460051820164173   0.831643210403643   0.132427978136556 1
ion O   0.030608151384349   0.675945809038414   0.864069327670619 1
ion O   0.165817171728695   0.529354947163111   0.626138616477543 1
ion O   0.334231674744633   0.971804666066305   0.880410198297044 1
ion O   0.459330604126496   0.837310524437865   0.631789997971910 1
ion O   0.538279212407309   0.169644263168144   0.367524162876654 1
ion O   0.665535217068975   0.045652548024429   0.142003907254241 1
ion O   0.831547159372691   0.458913722780739   0.379533795651384 1
ion O   0.946936397929002   0.333594365171929   0.127457322478582 1
ion O   0.543129759909122   0.168531918052972   0.870473119447931 1
ion O   0.660113398345206   0.036028666043745   0.629634790223820 1
ion O   0.830983466290054   0.459612715345043   0.873078535095804 1
ion O   0.964489088169080   0.337360714393454   0.629232923009763 1
ion O   0.555662296388244   0.667316405129183   0.386081683206076 1
ion O   0.657570527807397   0.546914759595602   0.139815065947841 1
ion O   0.826581773565640   0.962310566847469   0.370914113501492 1
ion O   0.966384225297754   0.833368824496935   0.130703446168326 1
ion O   0.529396971422388   0.659161908254886   0.870082288428687 1
ion O   0.665166642128815   0.547969106564398   0.630483680417435 1
ion O   0.832138715045724   0.955941531300391   0.879534160132776 1
ion O   0.956078191286955   0.831474268298380   0.625004791683675 1

# Forces in Lattice coordinates:
force Ti   0.513309804689462   0.269723727261514  -0.586945855283194 1
force Ti   0.273313747734937   0.046165364532735  -0.134989438046575 1
force Ti  -0.440398745248739  -0.293556307930197   0.369515805543124 1
force Ti  -0.048732014939511  -0.146770706266400   0.226303629262744 1
force Ti   0.361766274786992   0.215945026306958  -0.320160406988359 1
force Ti  -0.506489479516049  -0.459447893247093   0.465498123382358 1
force Ti  -0.570019687731571  -0.437167798043943   0.689376190179563 1
force Ti   0.592085745993862   0.699340719211908  -0.683925889747472 1
force Ti   0.337473879151950   0.418211953780462  -0.284076037695338 1
force Ti  -0.050570660300033   0.197259370996673  -0.127779466615340 1
force Ti   0.755980329777084   0.590222921102865  -0.757606567232779 1
force Ti   0.739892521245398   0.768133723857956  -0.889856434457776 1
force Ti   0.082331943721353   0.215921418257885  -0.142751737390238 1
force Ti  -0.093091357662299  -0.230285523616924   0.157407574764223 1
force Ti   0.330469955216929   0.012311412127398  -0.298160388267460 1
force Ti  -0.201184876359950  -0.197179860011587   0.213058048273384 1
force O  -0.108382962591723  -0.088745735387857   0.115145451479188 1
force O   0.785660064395963   1.042367638516749  -1.016183666610027 1
force O  -0.318564986889230  -0.303647849663514   0.397799808626814 1
force O  -0.250266311949698  -0.349890201882374   0.285821772136964 1
force O  -0.322469427469545  -0.100928612617669   0.248436346355183 1
force O   0.168560667608958   0.180205583350041  -0.226634364817333 1
force O  -0.532498528245224  -0.468242854476728   0.487146416292380 1
force O  -0.490962173140962  -0.366955054202822   0.449268319601841 1
force O  -0.496606570814911  -0.377278404184217   0.473472713025108 1
force O  -0.246081635635643  -0.207588818438808   0.273469245489312 1
force O  -0.743518453017644  -1.085634916166044   1.090520323449441 1
force O  -0.045435060673974   0.028908261737162   0.000040595229980 1
force O  -0.071461113447847  -0.387645298557895   0.182297745186756 1
force O   0.556221849109427   0.781657918273469  -0.749707614350426 1
force O  -0.187305008661399  -0.404294685893420   0.260712347590481 1
force O  -0.020346631914097   0.043224570567452  -0.019610951945810 1
force O  -0.399121348885531  -0.353651001173210   0.365857826712250 1
force O   0.518268772944126   0.610842195609079  -0.736348907913728 1
force O   0.165870575297345   0.097890529131563  -0.173564302948891 1
force O   0.370640643865766   0.231513093747282  -0.327237453616939 1
force O  -0.268825444985886  -0.227443922320283   0.278363060264369 1
force O   0.491178037893776   0.481624190343116  -0.491713280148018 1
force O   0.113987873009143  -0.067792352996872   0.075789629893569 1
force O  -0.226706435044854  -0.249207352689803   0.189761268329210 1
force O  -0.252428949910136   0.024908170652352   0.136371862201789 1
force O   0.736762827831640   0.437435513476635  -0.496984111203399 1
force O  -0.021798441621345  -0.341177780503529   0.271167942861091 1
force O  -0.596489577454213  -0.416062532895143   0.595697853827958 1
force O   0.081981626413290   0.296072287053681  -0.144560400270809 1
force O  -0.010523063022949   0.014851275805572  -0.024315838414225 1
force O  -0.399016022451784  -0.165060502107243   0.222605369578588 1
force O  -0.047751124837796   0.028977202575001   0.103211566580851 1

# Energy components:
   Eewald =     -972.5685754707576507
       EH =      409.2083131719301718
     Eloc =    -1246.3672289025203099
      Enl =      158.9420264329717725
      Exc =     -258.3197080984413105
 Exc_core =       22.4848582816647955
       KE =      437.2299204888926170
-------------------------------------
     Etot =    -1449.3903940962595698
       TS =        0.0096470523648454
-------------------------------------
        F =    -1449.4000411486244957

IonicMinimize: Iter:   4  F: -1449.400041148624496  |grad|_K:  1.428e-02  alpha:  3.321e-01  linmin: -9.470e-01  t[s]:   4837.78

#--- Lowdin population analysis ---
# oxidation-state Ti +1.577 +1.574 +1.549 +1.565 +1.530 +1.560 +1.569 +1.568 +1.538 +1.571 +1.584 +1.574 +1.575 +1.575 +1.550 +1.570
# oxidation-state O -0.755 -0.733 -0.757 -0.710 -0.780 -0.724 -0.722 -0.739 -0.769 -0.753 -0.711 -0.755 -0.756 -0.741 -0.719 -0.741 -0.757 -0.743 -0.722 -0.750 -0.738 -0.736 -0.760 -0.730 -0.752 -0.720 -0.731 -0.731 -0.768 -0.788 -0.685 -0.740


-------- Electronic minimization -----------
Will mix electronic density at each iteration.
	FillingsUpdate:  mu: +0.315417008  nElectrons: 384.000000
	FillingsUpdate:  mu: +0.308626971  nElectrons: 384.000000
SCF: Cycle:  0   F: -1435.299435760013466   dF: +1.251e+01   |Residual|: 1.570e+00   |deigs|: 7.254e-03  t[s]:   4927.60
	FillingsUpdate:  mu: +0.316846215  nElectrons: 384.000000
SCF: Cycle:  1   F: -1447.412458156637740   dF: -1.211e+01   |Residual|: 1.228e+00   |deigs|: 4.969e-02  t[s]:   4991.40
	FillingsUpdate:  mu: +0.315356890  nElectrons: 384.000000
SCF: Cycle:  2   F: -1448.979336900710223   dF: -1.567e+00   |Residual|: 4.905e-01   |deigs|: 3.341e-02  t[s]:   5054.91
	FillingsUpdate:  mu: +0.316548693  nElectrons: 384.000000
SCF: Cycle:  3   F: -1449.337866261146701   dF: -3.585e-01   |Residual|: 2.587e-01   |deigs|: 2.245e-02  t[s]:   5117.30
	FillingsUpdate:  mu: +0.313723280  nElectrons: 384.000000
SCF: Cycle:  4   F: -1449.406593743652365   dF: -6.873e-02   |Residual|: 1.369e-01   |deigs|: 9.910e-03  t[s]:   5180.87
	FillingsUpdate:  mu: +0.314570228  nElectrons: 384.000000
SCF: Cycle:  5   F: -1449.437874258883539   dF: -3.128e-02   |Residual|: 6.092e-02   |deigs|: 3.566e-03  t[s]:   5243.82
	FillingsUpdate:  mu: +0.314410205  nElectrons: 384.000000
SCF: Cycle:  6   F: -1449.445220388995722   dF: -7.346e-03   |Residual|: 2.265e-02   |deigs|: 7.256e-04  t[s]:   5301.64
	FillingsUpdate:  mu: +0.314299743  nElectrons: 384.000000
SCF: Cycle:  7   F: -1449.446787844887240   dF: -1.567e-03   |Residual|: 1.148e-02   |deigs|: 4.220e-04  t[s]:   5342.65
	FillingsUpdate:  mu: +0.314275459  nElectrons: 384.000000
SCF: Cycle:  8   F: -1449.447146080889752   dF: -3.582e-04   |Residual|: 7.328e-03   |deigs|: 2.426e-04  t[s]:   5384.18
	FillingsUpdate:  mu: +0.314236756  nElectrons: 384.000000
SCF: Cycle:  9   F: -1449.447360603787956   dF: -2.145e-04   |Residual|: 4.490e-03   |deigs|: 1.634e-04  t[s]:   5425.06
	FillingsUpdate:  mu: +0.314249288  nElectrons: 384.000000
SCF: Cycle: 10   F: -1449.447446668133125   dF: -8.606e-05   |Residual|: 1.746e-03   |deigs|: 1.145e-04  t[s]:   5465.27
	FillingsUpdate:  mu: +0.314256775  nElectrons: 384.000000
SCF: Cycle: 11   F: -1449.447459013974367   dF: -1.235e-05   |Residual|: 6.301e-04   |deigs|: 6.003e-05  t[s]:   5505.60
	FillingsUpdate:  mu: +0.314258228  nElectrons: 384.000000
SCF: Cycle: 12   F: -1449.447459477730945   dF: -4.638e-07   |Residual|: 3.285e-04   |deigs|: 1.078e-05  t[s]:   5546.46
	FillingsUpdate:  mu: +0.314258133  nElectrons: 384.000000
SCF: Cycle: 13   F: -1449.447459599237391   dF: -1.215e-07   |Residual|: 1.439e-04   |deigs|: 4.753e-06  t[s]:   5586.94
	FillingsUpdate:  mu: +0.314258873  nElectrons: 384.000000
SCF: Cycle: 14   F: -1449.447459624103885   dF: -2.487e-08   |Residual|: 6.257e-05   |deigs|: 2.374e-06  t[s]:   5627.50
	FillingsUpdate:  mu: +0.314259036  nElectrons: 384.000000
SCF: Cycle: 15   F: -1449.447459628378056   dF: -4.274e-09   |Residual|: 2.822e-05   |deigs|: 1.096e-06  t[s]:   5668.47
	FillingsUpdate:  mu: +0.314259261  nElectrons: 384.000000
SCF: Cycle: 16   F: -1449.447459629413061   dF: -1.035e-09   |Residual|: 1.311e-05   |deigs|: 9.808e-07  t[s]:   5710.35
SCF: Converged (|Delta E|<1.000000e-08 for 2 iters).

Setting wave functions to eigenvectors of Hamiltonian

# Ionic positions in lattice coordinates:
ion Ti   0.055388891315265   0.430260653573078   0.127565029909430 1
ion Ti   0.434635215054795   0.065562373879789   0.376370747861803 1
ion Ti   0.064299299608382   0.442009323398773   0.630021744221732 1
ion Ti   0.437499520866506   0.057532423052405   0.874766569091001 1
ion Ti   0.057262526783095   0.933842658816414   0.128109023290456 1
ion Ti   0.433627990922082   0.566766317249481   0.368746373679525 1
ion Ti   0.057825660308283   0.944781641396028   0.620159022302429 1
ion Ti   0.438595287259237   0.556755584929577   0.886427469245059 1
ion Ti   0.562414620940125   0.430682808835089   0.130031000500939 1
ion Ti   0.935828576481692   0.066681117800619   0.376533483678069 1
ion Ti   0.558483297134855   0.445665737511868   0.633151282005916 1
ion Ti   0.931401974776277   0.056707149469718   0.885593898604866 1
ion Ti   0.555531443129353   0.936974002146481   0.125215703380857 1
ion Ti   0.933431056366410   0.574908470753787   0.389594698772884 1
ion Ti   0.549472556597831   0.942909863129821   0.620857975357723 1
ion Ti   0.934688539400743   0.558144382082074   0.868263226664044 1
ion O   0.037000301590398   0.167983397277772   0.373573728732469 1
ion O   0.162266552043290   0.045894954703021   0.140061402667957 1
ion O   0.328251259062526   0.457978183827574   0.361232173700097 1
ion O   0.460832992159016   0.330775881285391   0.123985878443534 1
ion O   0.044367576972246   0.164465742142249   0.876895200365391 1
ion O   0.164421308132440   0.048056212018226   0.629200544244059 1
ion O   0.335084515924789   0.451835609010293   0.874708715365388 1
ion O   0.475920032473269   0.333999967032617   0.639919283416011 1
ion O   0.045964966758600   0.671908774308479   0.378196835302443 1
ion O   0.176406387848129   0.548864614499865   0.117954397526138 1
ion O   0.332055940668997   0.958413078797566   0.366176543611450 1
ion O   0.459536689149081   0.832079387050151   0.131823503497527 1
ion O   0.031126446715725   0.672743180286743   0.864003573349231 1
ion O   0.165535263717205   0.531769526464241   0.625020548745211 1
ion O   0.333620443470534   0.968178707152338   0.879267082801324 1
[...]
      Enl =      158.7655137110534724
      Exc =     -258.1428218419570157
 Exc_core =       22.4848171160064645
       KE =      436.6401981303173443
-------------------------------------
     Etot =    -1449.4920261243678397
       TS =        0.0089511146597580
-------------------------------------
        F =    -1449.5009772390276339

IonicMinimize: Iter:  18  F: -1449.500977239027634  |grad|_K:  1.171e-04  alpha:  1.000e+00  linmin: -1.091e-01  t[s]:  13524.08

#--- Lowdin population analysis ---
# oxidation-state Ti +1.580 +1.580 +1.579 +1.579 +1.580 +1.580 +1.580 +1.580 +1.579 +1.580 +1.580 +1.580 +1.580 +1.579 +1.579 +1.580
# oxidation-state O -0.749 -0.749 -0.750 -0.749 -0.749 -0.749 -0.749 -0.749 -0.749 -0.749 -0.749 -0.749 -0.749 -0.749 -0.749 -0.749 -0.749 -0.749 -0.749 -0.749 -0.750 -0.750 -0.748 -0.749 -0.749 -0.749 -0.749 -0.749 -0.749 -0.749 -0.749 -0.749


-------- Electronic minimization -----------
Will mix electronic density at each iteration.
	FillingsUpdate:  mu: +0.313074888  nElectrons: 384.000000
	FillingsUpdate:  mu: +0.313074829  nElectrons: 384.000000
SCF: Cycle:  0   F: -1449.500978583884716   dF: -2.973e-05   |Residual|: 1.974e-03   |deigs|: 5.198e-07  t[s]:  13591.75
	FillingsUpdate:  mu: +0.313074984  nElectrons: 384.000000
SCF: Cycle:  1   F: -1449.500984615545349   dF: -6.032e-06   |Residual|: 1.041e-03   |deigs|: 1.375e-05  t[s]:  13631.95
	FillingsUpdate:  mu: +0.313074892  nElectrons: 384.000000
SCF: Cycle:  2   F: -1449.500985320479003   dF: -7.049e-07   |Residual|: 4.910e-04   |deigs|: 4.839e-06  t[s]:  13673.29
	FillingsUpdate:  mu: +0.313075035  nElectrons: 384.000000
SCF: Cycle:  3   F: -1449.500985523317695   dF: -2.028e-07   |Residual|: 1.720e-04   |deigs|: 3.045e-06  t[s]:  13714.64
	FillingsUpdate:  mu: +0.313074990  nElectrons: 384.000000
SCF: Cycle:  4   F: -1449.500985565767905   dF: -4.245e-08   |Residual|: 7.510e-05   |deigs|: 1.809e-06  t[s]:  13755.57
	FillingsUpdate:  mu: +0.313075023  nElectrons: 384.000000
SCF: Cycle:  5   F: -1449.500985576689118   dF: -1.092e-08   |Residual|: 3.158e-05   |deigs|: 6.950e-07  t[s]:  13796.28
	FillingsUpdate:  mu: +0.313075016  nElectrons: 384.000000
SCF: Cycle:  6   F: -1449.500985580163160   dF: -3.474e-09   |Residual|: 1.515e-05   |deigs|: 4.178e-07  t[s]:  13837.06
	FillingsUpdate:  mu: +0.313075038  nElectrons: 384.000000
SCF: Cycle:  7   F: -1449.500985581230452   dF: -1.067e-09   |Residual|: 8.636e-06   |deigs|: 2.484e-07  t[s]:  13877.67
SCF: Converged (|Delta E|<1.000000e-08 for 2 iters).

Setting wave functions to eigenvectors of Hamiltonian

# Ionic positions in lattice coordinates:
ion Ti   0.060315643411433   0.438844604016503   0.127062303291635 1
ion Ti   0.436338678830183   0.063990891839342   0.377928357580897 1
ion Ti   0.061240071355785   0.438157739063790   0.627122406460991 1
ion Ti   0.435497364638289   0.063197622899976   0.876336212689144 1
ion Ti   0.061603371907597   0.938199048624174   0.127531674052071 1
ion Ti   0.435432556298105   0.563203513446320   0.376537226442117 1
ion Ti   0.060541909290561   0.939034340163658   0.627277274231537 1
ion Ti   0.436143584917738   0.563911206831117   0.877860689904274 1
ion Ti   0.561210841824063   0.438201720465488   0.127279028514449 1
ion Ti   0.935420963381900   0.063277314046746   0.376412809578047 1
ion Ti   0.560436837410120   0.438924873965969   0.627177170568243 1
ion Ti   0.936445692273677   0.063675819096009   0.877889745831279 1
ion Ti   0.560409142675650   0.938807793491635   0.126905141952285 1
ion Ti   0.936177009050047   0.563770813988079   0.377759118727408 1
ion Ti   0.561389044485224   0.938147120065848   0.627177952157318 1
ion Ti   0.935514142732018   0.563191908551192   0.876481167009209 1
ion O   0.040989125929506   0.167109023219583   0.378120366866371 1
ion O   0.165263197243672   0.043420111547957   0.128604333838831 1
ion O   0.331517033160811   0.460258722535783   0.377417034719736 1
ion O   0.456759297305545   0.334389756772702   0.126574529764770 1
ion O   0.039151278020395   0.167767011008855   0.876873612107368 1
ion O   0.164253325092369   0.042213621553669   0.626561818474279 1
ion O   0.332497915762845   0.459836180462697   0.877758461868938 1
ion O   0.457763782210403   0.334991749046715   0.628372017439097 1
ion O   0.038993130913842   0.667764092666718   0.376795514441632 1
ion O   0.164295548835254   0.541423768228542   0.125778606205191 1
ion O   0.332523492683242   0.958973117455605   0.376893694098939 1
ion O   0.456468031815106   0.835090502393731   0.126747821293132 1
ion O   0.040476290902338   0.667098336966887   0.877522775183890 1
ion O   0.165028853224778   0.542074639488350   0.627192090241509 1
ion O   0.331775075286861   0.960334154898127   0.877391196921577 1
ion O   0.455934951721318   0.834395689482223   0.625720262254655 1
ion O   0.539552764315014   0.167778479172232   0.377410671222363 1
ion O   0.664398970653936   0.041424696845381   0.125649003306361 1
ion O   0.832346592801308   0.458986427652655   0.376786402057381 1
ion O   0.956976255484097   0.334919449868569   0.127396284190717 1
ion O   0.540095131713354   0.167156147406549   0.877136230296519 1
ion O   0.665135629424871   0.041932264106667   0.627046796729224 1
ion O   0.831666899898927   0.460320039524302   0.877373849858362 1
ion O   0.955639823627169   0.334366646962174   0.625449759226396 1
ion O   0.540694980885216   0.667083755152504   0.377913515104070 1
ion O   0.665111984463565   0.543585401252005   0.128643764452325 1
ion O   0.831618939406452   0.960362086891537   0.377353268855314 1
ion O   0.956714602055361   0.834387338161922   0.126442801727736 1
ion O   0.539496859810430   0.667729542348206   0.877247617141306 1
ion O   0.664281534423038   0.542337797583470   0.626683904169093 1
ion O   0.832591037985104   0.959695381760151   0.877660608583348 1
ion O   0.958520808461481   0.834997737027686   0.628993108368666 1

# Forces in Lattice coordinates:
force Ti   0.000747852496297   0.002763828215387  -0.002429070629670 1
force Ti  -0.001317593738245  -0.005298094197074   0.003210186937753 1
force Ti  -0.002425793928280  -0.002430538806012   0.003081042236351 1
force Ti  -0.000898628591371  -0.000419983239075   0.000761153400869 1
force Ti  -0.003798192681071  -0.001077842316160   0.000612027746236 1
force Ti   0.001833338063062   0.002415254066125  -0.002059369180041 1
force Ti  -0.000619820581930  -0.001216452774898  -0.001252938638746 1
force Ti  -0.000428749200877  -0.002529226966409   0.003139821683460 1
force Ti   0.002137052608182   0.003392996269905  -0.002778090085996 1
force Ti  -0.001695447463022  -0.004165592338170   0.002944259948756 1
force Ti   0.001687276348841  -0.000961156169230   0.000686514197153 1
force Ti  -0.005115609129500  -0.001131597437913   0.002473255721195 1
force Ti   0.000141767211929  -0.002357045835059   0.002346937442785 1
force Ti   0.001143823827957   0.002932773083386  -0.003465176559792 1
force Ti  -0.000913054565505  -0.002504139164165   0.002334107380427 1
force Ti  -0.000891759439999   0.000278210197477   0.000971086363515 1
force O  -0.002622112476625  -0.000264402160650   0.000908572642816 1
force O  -0.002540930572284  -0.003168376474980   0.002101421688268 1
force O   0.004277740523917   0.001317871567214  -0.002936058449293 1
force O  -0.000687190883819  -0.000423614095471   0.000908531042744 1
force O  -0.002833923746071  -0.005282929637283   0.004032326585254 1
force O   0.001683237077700   0.000313121195506   0.000032441454023 1
force O  -0.001138250865472  -0.000372389480135  -0.001027286626609 1
force O   0.005790339498055   0.004726756820165  -0.005968214124308 1
force O  -0.000614960376198  -0.002063952690749   0.002208914020003 1
force O  -0.001572751052248  -0.001968667926585   0.003439716630599 1
force O   0.001786417870631   0.003316039659475  -0.002142565273940 1
force O  -0.001870332279120  -0.004305242042878   0.004754149346991 1
force O  -0.002989734181851  -0.000283753181617   0.000682806140419 1
force O  -0.001358684986806  -0.000204940044391   0.000806012104854 1
force O  -0.000358552155986  -0.000297138946205  -0.000372677404980 1
force O   0.000036570191127  -0.001639208174417   0.001608582500326 1
force O   0.003360892874490   0.004045075909576  -0.004492625583916 1
force O  -0.004724956096252  -0.002129448447919   0.004299338570892 1
force O   0.001393354315208   0.001203265403543  -0.000066034559477 1
force O   0.003079256243016   0.003519218484157  -0.002922848648941 1
force O  -0.002540606307959  -0.002042977400401   0.002079795169245 1
force O  -0.000372246124946   0.000201775219467   0.000918116148376 1
force O   0.001059755261623  -0.000396098397333  -0.000863617167774 1
force O   0.002328930383050  -0.000008838870163   0.000886372116302 1
force O  -0.002829567475422  -0.001722209482831   0.001636019916487 1
force O  -0.002272833413494  -0.003917060257257   0.002626610374859 1
force O  -0.000740584548323  -0.002912779379822   0.001752213055442 1
force O  -0.000023456019398  -0.000613700805518   0.001043219619163 1
force O  -0.000656234445829  -0.001121112537879   0.000214572566645 1
force O  -0.004771209800765  -0.004743570958219   0.004317645594621 1
force O  -0.000405510509253  -0.000168884673564  -0.000597553316836 1
force O   0.001191118901506   0.002904234073360  -0.004282216038780 1

# Energy components:
   Eewald =     -977.3636484700290339
       EH =      404.1311824430237039
     Eloc =    -1236.0066968534583793
      Enl =      158.7654167869900448
      Exc =     -258.1425549435123799
 Exc_core =       22.4848166826774118
       KE =      436.6394519157609579
-------------------------------------
     Etot =    -1449.4920324385477670
       TS =        0.0089531426826206
-------------------------------------
        F =    -1449.5009855812304522

IonicMinimize: Iter:  19  F: -1449.500985581230452  |grad|_K:  1.038e-04  alpha:  1.000e+00  linmin: -2.202e-01  t[s]:  13891.62

#--- Lowdin population analysis ---
# oxidation-state Ti +1.580 +1.579 +1.580 +1.580 +1.580 +1.580 +1.580 +1.580 +1.580 +1.580 +1.580 +1.579 +1.580 +1.580 +1.580 +1.580
# oxidation-state O -0.749 -0.749 -0.749 -0.749 -0.749 -0.749 -0.749 -0.749 -0.749 -0.749 -0.749 -0.749 -0.749 -0.749 -0.749 -0.749 -0.749 -0.749 -0.749 -0.749 -0.750 -0.750 -0.749 -0.749 -0.749 -0.750 -0.749 -0.749 -0.749 -0.749 -0.749 -0.749


-------- Electronic minimization -----------
Will mix electronic density at each iteration.
	FillingsUpdate:  mu: +0.313075038  nElectrons: 384.000000
	FillingsUpdate:  mu: +0.313076265  nElectrons: 384.000000
SCF: Cycle:  0   F: -1449.500987249784203   dF: -5.951e-05   |Residual|: 2.388e-03   |deigs|: 9.917e-07  t[s]:  13959.52
	FillingsUpdate:  mu: +0.313074982  nElectrons: 384.000000
SCF: Cycle:  1   F: -1449.500993784122556   dF: -6.534e-06   |Residual|: 1.220e-03   |deigs|: 1.173e-05  t[s]:  14000.20
	FillingsUpdate:  mu: +0.313074579  nElectrons: 384.000000
SCF: Cycle:  2   F: -1449.500994365120278   dF: -5.810e-07   |Residual|: 6.344e-04   |deigs|: 4.685e-06  t[s]:  14040.96
	FillingsUpdate:  mu: +0.313074456  nElectrons: 384.000000
SCF: Cycle:  3   F: -1449.500994706389747   dF: -3.413e-07   |Residual|: 1.885e-04   |deigs|: 3.240e-06  t[s]:  14081.44
	FillingsUpdate:  mu: +0.313074343  nElectrons: 384.000000
SCF: Cycle:  4   F: -1449.500994744723130   dF: -3.833e-08   |Residual|: 9.060e-05   |deigs|: 1.618e-06  t[s]:  14122.27
	FillingsUpdate:  mu: +0.313074368  nElectrons: 384.000000
SCF: Cycle:  5   F: -1449.500994755958345   dF: -1.124e-08   |Residual|: 3.252e-05   |deigs|: 7.682e-07  t[s]:  14162.54
	FillingsUpdate:  mu: +0.313074345  nElectrons: 384.000000
SCF: Cycle:  6   F: -1449.500994758631577   dF: -2.673e-09   |Residual|: 1.522e-05   |deigs|: 3.645e-07  t[s]:  14203.46
	FillingsUpdate:  mu: +0.313074358  nElectrons: 384.000000
SCF: Cycle:  7   F: -1449.500994759603827   dF: -9.722e-10   |Residual|: 8.958e-06   |deigs|: 2.339e-07  t[s]:  14244.08
SCF: Converged (|Delta E|<1.000000e-08 for 2 iters).

Setting wave functions to eigenvectors of Hamiltonian

# Ionic positions in lattice coordinates:
ion Ti   0.060399383291208   0.438699633699585   0.127055162307920 1
ion Ti   0.436400393626728   0.063913071434534   0.377906012215873 1
ion Ti   0.061137873562052   0.438165213604734   0.627106033571557 1
ion Ti   0.435595253878620   0.063265635737650   0.876583223025093 1
ion Ti   0.061471435897082   0.938234535837949   0.127426975997717 1
ion Ti   0.435408139516719   0.563196910855273   0.376514504737767 1
ion Ti   0.060526823740046   0.938832131324686   0.627064368911068 1
ion Ti   0.436069061277629   0.563854824599800   0.877618074286302 1
ion Ti   0.561062548919857   0.438294286323408   0.127159648154493 1
ion Ti   0.935496275517993   0.063259284735203   0.376548059524973 1
ion Ti   0.560589462753501   0.438945289711640   0.627261264589384 1
ion Ti   0.936375962192235   0.063666988661446   0.877847507501587 1
ion Ti   0.560441817463111   0.938855064300159   0.126987912647706 1
ion Ti   0.936090736855722   0.563762358404788   0.377698095924148 1
ion Ti   0.561278632723381   0.938196892098576   0.627211348259039 1
ion Ti   0.935610218480276   0.563293773684441   0.876693934059789 1
ion O   0.040630973924295   0.167119797148836   0.377788105919739 1
ion O   0.165231438289378   0.043092404666934   0.128219153070949 1
ion O   0.331611871468927   0.460204651741296   0.377349963164935 1
ion O   0.456673425734848   0.334418564941783   0.126567717531403 1
ion O   0.039388361765018   0.167678395800157   0.877014933102051 1
ion O   0.164358644137504   0.042102200169611   0.626502387490280 1
ion O   0.332338348884611   0.459756566569508   0.877542831671608 1
ion O   0.457478861753257   0.334945605528157   0.627935297850330 1
ion O   0.039170030781504   0.667671164838736   0.376896263670545 1
ion O   0.164356906281323   0.541662611018768   0.126011880458279 1
ion O   0.332489416273637   0.959220369565453   0.377116254989237 1
ion O   0.456659153395523   0.835033946038653   0.126908526233164 1
ion O   0.040389187211850   0.667170687775654   0.877555401356944 1
ion O   0.165031572851804   0.542298127275371   0.627314907034294 1
ion O   0.331807199670523   0.960210997566349   0.877384390725708 1
ion O   0.456248174791416   0.834451246936386   0.626079893406209 1
ion O   0.539711933407467   0.167748713500450   0.377449469903788 1
ion O   0.664421267308880   0.041668565211604   0.126034644657010 1
ion O   0.832366016534458   0.459328678627177   0.377029463622497 1
ion O   0.957167619751884   0.334857317522886   0.127522843517544 1
ion O   0.540192535464918   0.167222974448780   0.877371987045790 1
ion O   0.665080734840258   0.042202674660172   0.627265051356664 1
ion O   0.831759471206786   0.460199979516847   0.877381345738937 1
ion O   0.955918762743441   0.334452251448495   0.625743169914732 1
ion O   0.540503426591672   0.667130600734655   0.377759798405178 1
ion O   0.664981911608538   0.543155796694929   0.128125396454807 1
ion O   0.831677505784048   0.960251137940627   0.377359552330262 1
ion O   0.956595355512690   0.834420957284845   0.126415167617661 1
ion O   0.539567189583198   0.667689258931545   0.877247132736012 1
ion O   0.664309987652910   0.542199608834049   0.626673390095844 1
ion O   0.832529744926309   0.959774520782491   0.877607088041150 1
ion O   0.958048950170965   0.834963731264922   0.628394465172034 1

# Forces in Lattice coordinates:
force Ti   0.002381204502983   0.002669693273211  -0.003586691270536 1
force Ti  -0.002630255513591  -0.004315145466253   0.003068618051126 1
force Ti   0.001146430371376   0.001381532688416  -0.001175769035798 1
force Ti   0.000391522580860   0.001255339457779  -0.001379075332867 1
force Ti  -0.001226259356044   0.000217665042506   0.000073941570351 1
force Ti   0.002395839511239   0.002205431617282  -0.001455396905874 1
force Ti  -0.002702345809663  -0.002420244618253   0.002275154296698 1
force Ti  -0.002520331741582  -0.004093740215626   0.004416114279962 1
force Ti   0.001786957554567   0.001269166268068  -0.001213214636129 1
force Ti   0.000972376665310  -0.000908785942942   0.000373840173482 1
force Ti  -0.000151452571660  -0.002753844289361   0.001472288966250 1
force Ti   0.000105179327713   0.001840529923743  -0.001935318332123 1
force Ti  -0.001982998828856  -0.004167662227565   0.004003140689964 1
force Ti   0.001677238196913   0.002582592786333  -0.002706494957818 1
force Ti  -0.000317125007696  -0.000048583707408   0.000312189424401 1
force Ti  -0.001162529726214   0.000119438658349   0.000232640404754 1
force O  -0.002475829109758  -0.000758889006528   0.001457770147673 1
force O  -0.004981707151416  -0.005759762719772   0.004671642301862 1
force O   0.001614194761308  -0.000082263627761  -0.001030296229329 1
force O   0.000667105331305   0.000547029993013  -0.000235845769297 1
force O  -0.003253472988451  -0.003439269842737   0.003430616175084 1
force O   0.000312936846580  -0.000181168952931   0.000874495560251 1
force O   0.000348267099312   0.000188461251193  -0.001302353554961 1
force O   0.003486466715277   0.002461251951029  -0.002982144709383 1
force O   0.001299672732262  -0.000070658062901  -0.000525277575922 1
force O  -0.002708186513511  -0.003403796338362   0.004861724109807 1
force O   0.000670642268894   0.002838744603091  -0.002205086002409 1
force O  -0.001771952782317  -0.004252998845546   0.004697873501336 1
force O  -0.002485163044692   0.000228475410225   0.000276989822806 1
force O  -0.003722286127702  -0.003212614408532   0.003600522500486 1
force O   0.001104418775161   0.001882570708860  -0.002897140742776 1
force O  -0.001313650240702  -0.002056225523007   0.002611848192822 1
force O   0.000340603242264   0.001547358382719  -0.001412786875750 1
force O  -0.001158389755608   0.000106645973464   0.001123276259139 1
force O  -0.002865365455013  -0.002785675751406   0.003459752849319 1
force O   0.002524622894612   0.004021037602208  -0.003398830314878 1
force O  -0.002718892893128  -0.001988743481975   0.001904597518795 1
force O  -0.000134201492619  -0.000278706341966   0.000422973479189 1
force O   0.001253654926973  -0.000484683822158  -0.000329935734860 1
force O  -0.000149723219856  -0.002693684970084   0.002949431173373 1
force O  -0.001283352448262  -0.000850945146655   0.000449333744918 1
force O  -0.002098193074834  -0.002102639049875   0.001411711256052 1
force O   0.002302299832177  -0.000599848317814  -0.000856264949142 1
force O   0.000487716432602   0.000247176945274   0.000521183436874 1
force O  -0.000318814591759  -0.000996863977836   0.000344578191390 1
force O   0.000660329657437   0.000587297589722  -0.000636171051899 1
force O  -0.002008092397574  -0.004000382511220   0.002355542205516 1
force O  -0.002147009900092  -0.000572119262488   0.000006180601980 1

# Energy components:
   Eewald =     -977.3514228940841804
       EH =      404.1436231924366780
     Eloc =    -1236.0322760639310218
      Enl =      158.7655764876197964
      Exc =     -258.1429812283765841
 Exc_core =       22.4848161480077025
       KE =      436.6406201999103587
-------------------------------------
     Etot =    -1449.4920441584172295
       TS =        0.0089506011865378
-------------------------------------
        F =    -1449.5009947596038273

IonicMinimize: Iter:  20  F: -1449.500994759603827  |grad|_K:  8.547e-05  alpha:  1.000e+00  linmin: -1.863e-01  t[s]:  14257.76
IonicMinimize: Converged (|grad|_K<1.000000e-04).

#--- Lowdin population analysis ---
# oxidation-state Ti +1.580 +1.580 +1.580 +1.580 +1.580 +1.580 +1.580 +1.580 +1.580 +1.580 +1.579 +1.580 +1.579 +1.580 +1.580 +1.580
# oxidation-state O -0.749 -0.749 -0.749 -0.749 -0.749 -0.749 -0.749 -0.749 -0.749 -0.749 -0.749 -0.749 -0.749 -0.749 -0.749 -0.749 -0.749 -0.749 -0.749 -0.749 -0.749 -0.750 -0.749 -0.749 -0.749 -0.750 -0.749 -0.749 -0.749 -0.749 -0.749 -0.749


Dumping '/data/rc652/TiO2/ion/TiO2_ion.Ecomponents' ... done
End date and time: Wed Jul 10 17:58:05 2024  (Duration: 0-3:57:42.16)
Done!
