--------------------------------------------------------------------------
Initialization of PSM library failed.

  Error: PSM is in the finalized state
--------------------------------------------------------------------------

*************** JDFTx 1.7.0  ***************

Start date and time: Mon Nov 13 17:57:01 2023
Executable jdftx with command-line: -i /home/cam559/Valla_project/Ti/Ti16.in
Running on hosts (process indices):  node3002.physics.cornell.edu (0-9)
Divided in process groups (process indices):  0 (0)  1 (1)  2 (2)  3 (3)  4 (4)  5 (5)  6 (6)  7 (7)  8 (8)  9 (9)
Resource initialization completed at t[s]:      0.00
Run totals: 10 processes, 30 threads, 0 GPUs


Input parsed successfully to the following command list (including defaults):

basis kpoint-dependent
coords-type Cartesian
core-overlap-check vector
coulomb-interaction Periodic
davidson-band-ratio 1.1
dump End Ecomponents
dump-name Ti16.$VAR
elec-cutoff 20 100
elec-eigen-algo Davidson
elec-ex-corr gga-PBE
elec-smearing Fermi 0.004
electronic-minimize  \
	dirUpdateScheme      FletcherReeves \
	linminMethod         DirUpdateRecommended \
	nIterations          100 \
	history              15 \
	knormThreshold       0 \
	energyDiffThreshold  1e-08 \
	nEnergyDiff          2 \
	alphaTstart          1 \
	alphaTmin            1e-10 \
	updateTestStepSize   yes \
	alphaTreduceFactor   0.1 \
	alphaTincreaseFactor 3 \
	nAlphaAdjustMax      3 \
	wolfeEnergy          0.0001 \
	wolfeGradient        0.9 \
	fdTest               no
exchange-regularization WignerSeitzTruncated
fluid None
fluid-ex-corr lda-TF lda-PZ
fluid-gummel-loop 10 1.000000e-05
fluid-minimize  \
	dirUpdateScheme      PolakRibiere \
	linminMethod         DirUpdateRecommended \
	nIterations          100 \
	history              15 \
	knormThreshold       0 \
	energyDiffThreshold  0 \
	nEnergyDiff          2 \
	alphaTstart          1 \
	alphaTmin            1e-10 \
	updateTestStepSize   yes \
	alphaTreduceFactor   0.1 \
	alphaTincreaseFactor 3 \
	nAlphaAdjustMax      3 \
	wolfeEnergy          0.0001 \
	wolfeGradient        0.9 \
	fdTest               no
fluid-solvent H2O 55.338 ScalarEOS \
	epsBulk 78.4 \
	pMol 0.92466 \
	epsInf 1.77 \
	Pvap 1.06736e-10 \
	sigmaBulk 4.62e-05 \
	Rvdw 2.61727 \
	Res 1.42 \
	tauNuc 343133 \
	poleEl 15 7 1
forces-output-coords Positions
initial-state Ti16.$VAR
ion Ti   0.000000000000000   0.000000000000000   0.000000000000000 1
ion Ti   0.000000000000000   3.218550000000000   4.421959000000000 1
ion Ti   0.000000000000000   0.000000000000000   8.843918000000000 1
ion Ti   0.000000000000000   3.218550000000000  13.265877000000000 1
ion Ti  -2.787346000000000   4.827825000000000   0.000000000000000 1
ion Ti  -2.787346000000000   8.046374999999999   4.421959000000000 1
ion Ti  -2.787346000000000   4.827825000000000   8.843918000000000 1
ion Ti  -2.787346000000000   8.046374999999999  13.265877000000000 1
ion Ti   5.574692000000000   0.000000000000000   0.000000000000000 1
ion Ti   5.574692000000000   3.218550000000000   4.421959000000000 1
ion Ti   5.574692000000000   0.000000000000000   8.843918000000000 1
ion Ti   5.574692000000000   3.218550000000000  13.265877000000000 1
ion Ti   2.787346000000000   4.827825000000000   0.000000000000000 1
ion Ti   2.787346000000000   8.046374999999999   4.421959000000000 1
ion Ti   2.787346000000000   4.827825000000000   8.843918000000000 1
ion Ti   2.787346000000000   8.046374999999999  13.265877000000000 1
ion-species GBRV/$ID_pbe.uspp
ion-width 0
ionic-minimize  \
	dirUpdateScheme      L-BFGS \
	linminMethod         DirUpdateRecommended \
	nIterations          0 \
	history              15 \
	knormThreshold       0.0001 \
	energyDiffThreshold  1e-06 \
	nEnergyDiff          2 \
	alphaTstart          1 \
	alphaTmin            1e-10 \
	updateTestStepSize   yes \
	alphaTreduceFactor   0.1 \
	alphaTincreaseFactor 3 \
	nAlphaAdjustMax      3 \
	wolfeEnergy          0.0001 \
	wolfeGradient        0.9 \
	fdTest               no
kpoint   0.000000000000   0.000000000000   0.000000000000  1.00000000000000
kpoint-folding 6 6 6 
latt-move-scale 1 1 1
latt-scale 1 1 1 
lattice  \
	  11.149384000000000   -5.574692000000000    0.000000000000000  \
	   0.000000000000000    9.655650000000000    0.000000000000000  \
	   0.000000000000000    0.000000000000000   17.687836999999998 
lattice-minimize  \
	dirUpdateScheme      L-BFGS \
	linminMethod         DirUpdateRecommended \
	nIterations          30 \
	history              15 \
	knormThreshold       0 \
	energyDiffThreshold  1e-06 \
	nEnergyDiff          2 \
	alphaTstart          1 \
	alphaTmin            1e-10 \
	updateTestStepSize   yes \
	alphaTreduceFactor   0.1 \
	alphaTincreaseFactor 3 \
	nAlphaAdjustMax      3 \
	wolfeEnergy          0.0001 \
	wolfeGradient        0.9 \
	fdTest               no
lcao-params -1 1e-06 0.004
pcm-variant GLSSA13
spintype no-spin
subspace-rotation-factor 1 yes
symmetries automatic
symmetry-threshold 0.0001



---------- Setting up symmetries ----------

Found 24 point-group symmetries of the bravais lattice
Found 192 space-group symmetries with basis
Applied RMS atom displacement 2.79508e-07 bohrs to make symmetries exact.

---------- Initializing the Grid ----------
R = 
[      11.1494     -5.57469            0  ]
[            0      9.65565            0  ]
[            0            0      17.6878  ]
unit cell volume = 1904.18
G =
[   0.563546   0.325363         -0  ]
[          0   0.650726          0  ]
[          0         -0   0.355226  ]
Minimum fftbox size, Smin = [  52  52  80  ]
Chosen fftbox size, S = [  54  54  80  ]

---------- Initializing tighter grid for wavefunction operations ----------
R = 
[      11.1494     -5.57469            0  ]
[            0      9.65565            0  ]
[            0            0      17.6878  ]
unit cell volume = 1904.18
G =
[   0.563546   0.325363         -0  ]
[          0   0.650726          0  ]
[          0         -0   0.355226  ]
Minimum fftbox size, Smin = [  48  48  72  ]
Chosen fftbox size, S = [  48  48  72  ]

---------- Exchange Correlation functional ----------
Initalized PBE GGA exchange.
Initalized PBE GGA correlation.

---------- Setting up pseudopotentials ----------
Width of ionic core gaussian charges (only for fluid interactions / plotting) set to 0

Reading pseudopotential file '/home/cam559/JDFTx/build/pseudopotentials/GBRV/ti_pbe.uspp':
  Title: Ti.  Created by USPP 7.3.6 on 31-3-15
  Reference state energy: -59.020943.  12 valence electrons in orbitals:
    |300>  occupation: 2  eigenvalue: -2.777623
    |310>  occupation: 6  eigenvalue: -1.894596
    |400>  occupation: 2  eigenvalue: -0.438610
    |320>  occupation: 1  eigenvalue: -0.583119
  lMax: 2  lLocal: 3  QijEcut: 6
  6 projectors sampled on a log grid with 597 points:
    l: 0  eig: -2.777624  rCut: 1.8
    l: 0  eig: -0.438611  rCut: 1.8
    l: 1  eig: -1.894596  rCut: 1.8
    l: 1  eig: 0.500000  rCut: 1.8
    l: 2  eig: -0.583118  rCut: 1.8
    l: 2  eig: 0.150000  rCut: 1.8
  Partial core density with radius 0.8
  Transforming core density to a uniform radial grid of dG=0.02 with 1685 points.
  Transforming local potential to a uniform radial grid of dG=0.02 with 1685 points.
  Transforming nonlocal projectors to a uniform radial grid of dG=0.02 with 432 points.
  Transforming density augmentations to a uniform radial grid of dG=0.02 with 1685 points.
  Transforming atomic orbitals to a uniform radial grid of dG=0.02 with 432 points.
  Core radius for overlap checks: 1.80 bohrs.

Initialized 1 species with 16 total atoms.

Folded 1 k-points by 6x6x6 to 216 k-points.

---------- Setting up k-points, bands, fillings ----------
Adding inversion symmetry to k-mesh for non-inversion-symmetric unit cell.
Reduced to 28 k-points under symmetry. 
Computing the number of bands and number of electrons
Calculating initial fillings.
nElectrons: 192.000000   nBands: 160   nStates: 28

----- Setting up reduced wavefunction bases (one per k-point) -----
average nbasis = 8135.236 , ideal nbasis = 8134.786

---------- Setting up ewald sum ----------
Optimum gaussian width for ewald sums = 3.115008 bohr.
Real space sum over 847 unit cells with max indices [  5  5  3  ]
Reciprocal space sum over 4725 terms with max indices [  7  7  10  ]

---------- Allocating electronic variables ----------
Initializing wave functions:  linear combination of atomic orbitals
Ti pseudo-atom occupations:   s ( 2 0 )  p ( 6 )  d ( 4 )
	FillingsUpdate:  mu: +0.628895259  nElectrons: 192.000000
LCAOMinimize: Iter:   0  F: -928.6569177001324533  |grad|_K:  1.147e-03  alpha:  1.000e+00
	FillingsUpdate:  mu: +0.727190960  nElectrons: 192.000000
LCAOMinimize: Iter:   1  F: -928.8453721056921495  |grad|_K:  1.369e-03  alpha:  1.282e+00  linmin:  2.729e-01  cgtest: -4.860e-01  t[s]:     50.99
LCAOMinimize: 	Bad step direction: g.d > 0.
LCAOMinimize: 	Undoing step.
LCAOMinimize: 	Step failed: resetting search direction.
	FillingsUpdate:  mu: +0.727190960  nElectrons: 192.000000
LCAOMinimize: Iter:   2  F: -928.8453721056921495  |grad|_K:  1.369e-03  alpha:  0.000e+00
	FillingsUpdate:  mu: +0.676793764  nElectrons: 192.000000
LCAOMinimize: Iter:   3  F: -929.2828453455113049  |grad|_K:  9.120e-05  alpha:  7.755e-01  linmin:  7.182e-02  cgtest: -7.002e-01  t[s]:     77.25
	FillingsUpdate:  mu: +0.676510314  nElectrons: 192.000000
LCAOMinimize: Iter:   4  F: -929.2839450045544254  |grad|_K:  5.246e-05  alpha:  5.636e-01  linmin: -2.159e-04  cgtest:  6.157e-01  t[s]:     94.00
LCAOMinimize: Encountered beta<0, resetting CG.
	FillingsUpdate:  mu: +0.678435064  nElectrons: 192.000000
LCAOMinimize: Iter:   5  F: -929.2847209852479864  |grad|_K:  4.311e-06  alpha:  7.806e-01  linmin:  1.889e-02  cgtest: -1.557e-01  t[s]:    109.98
	FillingsUpdate:  mu: +0.678461860  nElectrons: 192.000000
LCAOMinimize: Iter:   6  F: -929.2847247838494695  |grad|_K:  6.967e-07  alpha:  5.851e-01  linmin:  2.165e-04  cgtest:  2.386e-01  t[s]:    125.87
LCAOMinimize: Encountered beta<0, resetting CG.
	FillingsUpdate:  mu: +0.678437525  nElectrons: 192.000000
LCAOMinimize: Iter:   7  F: -929.2847249174047874  |grad|_K:  7.170e-08  alpha:  7.575e-01  linmin: -1.728e-03  cgtest:  1.388e-02  t[s]:    141.88
	FillingsUpdate:  mu: +0.678436892  nElectrons: 192.000000
LCAOMinimize: Iter:   8  F: -929.2847249186381760  |grad|_K:  4.715e-09  alpha:  6.106e-01  linmin:  1.084e-02  cgtest: -6.451e-02  t[s]:    157.60
LCAOMinimize: Converged (|Delta F|<1.000000e-06 for 2 iters).


---- Citations for features of the code used in this run ----

   Software package:
      R. Sundararaman, K. Letchworth-Weaver, K.A. Schwarz, D. Gunceler, Y. Ozhabes and T.A. Arias, 'JDFTx: software for joint density-functional theory', SoftwareX 6, 278 (2017)

   gga-PBE exchange-correlation functional:
      J.P. Perdew, K. Burke and M. Ernzerhof, Phys. Rev. Lett. 77, 3865 (1996)

   Pseudopotentials:
      KF Garrity, JW Bennett, KM Rabe and D Vanderbilt, Comput. Mater. Sci. 81, 446 (2014)

   Total energy minimization with Auxiliary Hamiltonian:
      C. Freysoldt, S. Boeck, and J. Neugebauer, Phys. Rev. B 79, 241103(R) (2009)

This list may not be complete. Please suggest additional citations or
report any other bugs at https://github.com/shankar1729/jdftx/issues

Initialization completed successfully at t[s]:    168.10


--------- Lattice Minimization ---------

-------- Electronic minimization -----------
	FillingsUpdate:  mu: +0.678436892  nElectrons: 192.000000
ElecMinimize: Iter:   0  F: -929.284724918637949  |grad|_K:  4.194e-04  alpha:  1.000e+00
	FillingsUpdate:  mu: +0.530302159  nElectrons: 192.000000
	SubspaceRotationAdjust: set factor to 1
ElecMinimize: Iter:   1  F: -931.240846369684846  |grad|_K:  2.118e-04  alpha:  3.120e-01  linmin:  5.477e-04  t[s]:    249.18
	FillingsUpdate:  mu: +0.503369709  nElectrons: 192.000000
	SubspaceRotationAdjust: set factor to 1.11
ElecMinimize: Iter:   2  F: -932.464240640148432  |grad|_K:  1.151e-04  alpha:  7.638e-01  linmin: -3.534e-05  t[s]:    306.32
	FillingsUpdate:  mu: +0.496720128  nElectrons: 192.000000
	SubspaceRotationAdjust: set factor to 1.23
ElecMinimize: Iter:   3  F: -932.813719927034299  |grad|_K:  8.341e-05  alpha:  7.108e-01  linmin:  8.206e-05  t[s]:    360.75
	FillingsUpdate:  mu: +0.489411993  nElectrons: 192.000000
	SubspaceRotationAdjust: set factor to 1.56
ElecMinimize: Iter:   4  F: -932.935336628745290  |grad|_K:  6.176e-05  alpha:  4.727e-01  linmin:  1.062e-04  t[s]:    416.38
	FillingsUpdate:  mu: +0.482598028  nElectrons: 192.000000
	SubspaceRotationAdjust: set factor to 1.65
ElecMinimize: Iter:   5  F: -933.008789691709580  |grad|_K:  3.694e-05  alpha:  5.305e-01  linmin:  4.676e-04  t[s]:    471.87
	FillingsUpdate:  mu: +0.481054812  nElectrons: 192.000000
	SubspaceRotationAdjust: set factor to 1.8
ElecMinimize: Iter:   6  F: -933.037238610639861  |grad|_K:  2.951e-05  alpha:  6.079e-01  linmin:  1.964e-04  t[s]:    528.19
	FillingsUpdate:  mu: +0.482267901  nElectrons: 192.000000
	SubspaceRotationAdjust: set factor to 2.4
ElecMinimize: Iter:   7  F: -933.050710276172708  |grad|_K:  2.124e-05  alpha:  4.321e-01  linmin: -6.858e-05  t[s]:    583.45
	FillingsUpdate:  mu: +0.483861248  nElectrons: 192.000000
	SubspaceRotationAdjust: set factor to 2.5
ElecMinimize: Iter:   8  F: -933.058416524623681  |grad|_K:  1.482e-05  alpha:  4.630e-01  linmin:  8.407e-06  t[s]:    638.10
	FillingsUpdate:  mu: +0.483397857  nElectrons: 192.000000
	SubspaceRotationAdjust: set factor to 2.98
ElecMinimize: Iter:   9  F: -933.061672636653611  |grad|_K:  1.082e-05  alpha:  4.038e-01  linmin: -2.596e-05  t[s]:    692.71
	FillingsUpdate:  mu: +0.482956428  nElectrons: 192.000000
	SubspaceRotationAdjust: set factor to 2.94
ElecMinimize: Iter:  10  F: -933.063597494496889  |grad|_K:  7.967e-06  alpha:  4.441e-01  linmin: -9.920e-05  t[s]:    747.48
	FillingsUpdate:  mu: +0.483091121  nElectrons: 192.000000
	SubspaceRotationAdjust: set factor to 3.4
ElecMinimize: Iter:  11  F: -933.064615093936141  |grad|_K:  5.797e-06  alpha:  4.334e-01  linmin:  2.601e-05  t[s]:    803.85
	FillingsUpdate:  mu: +0.482969242  nElectrons: 192.000000
	SubspaceRotationAdjust: set factor to 3.48
ElecMinimize: Iter:  12  F: -933.065100380443596  |grad|_K:  4.290e-06  alpha:  3.938e-01  linmin:  4.955e-05  t[s]:    858.95
	FillingsUpdate:  mu: +0.482943953  nElectrons: 192.000000
	SubspaceRotationAdjust: set factor to 3.54
ElecMinimize: Iter:  13  F: -933.065405397681502  |grad|_K:  3.406e-06  alpha:  4.518e-01  linmin: -1.888e-06  t[s]:    913.82
	FillingsUpdate:  mu: +0.482904326  nElectrons: 192.000000
	SubspaceRotationAdjust: set factor to 3.95
ElecMinimize: Iter:  14  F: -933.065565477610789  |grad|_K:  2.393e-06  alpha:  3.747e-01  linmin: -9.194e-06  t[s]:    969.71
	FillingsUpdate:  mu: +0.482893666  nElectrons: 192.000000
	SubspaceRotationAdjust: set factor to 3.7
ElecMinimize: Iter:  15  F: -933.065653353569701  |grad|_K:  1.893e-06  alpha:  4.165e-01  linmin:  5.803e-06  t[s]:   1024.90
	FillingsUpdate:  mu: +0.482961339  nElectrons: 192.000000
	SubspaceRotationAdjust: set factor to 3.9
ElecMinimize: Iter:  16  F: -933.065705909691928  |grad|_K:  1.421e-06  alpha:  3.986e-01  linmin:  6.939e-06  t[s]:   1079.67
	FillingsUpdate:  mu: +0.482924452  nElectrons: 192.000000
	SubspaceRotationAdjust: set factor to 4
ElecMinimize: Iter:  17  F: -933.065734150590060  |grad|_K:  1.035e-06  alpha:  3.804e-01  linmin:  7.316e-07  t[s]:   1136.23
	FillingsUpdate:  mu: +0.482926128  nElectrons: 192.000000
	SubspaceRotationAdjust: set factor to 3.81
ElecMinimize: Iter:  18  F: -933.065751144083151  |grad|_K:  8.763e-07  alpha:  4.314e-01  linmin:  1.023e-06  t[s]:   1190.90
	FillingsUpdate:  mu: +0.482930013  nElectrons: 192.000000
	SubspaceRotationAdjust: set factor to 4.19
ElecMinimize: Iter:  19  F: -933.065762469981564  |grad|_K:  6.515e-07  alpha:  4.006e-01  linmin:  4.845e-06  t[s]:   1246.50
	FillingsUpdate:  mu: +0.482920449  nElectrons: 192.000000
	SubspaceRotationAdjust: set factor to 3.79
ElecMinimize: Iter:  20  F: -933.065769178890719  |grad|_K:  5.513e-07  alpha:  4.300e-01  linmin:  7.874e-06  t[s]:   1301.09
	FillingsUpdate:  mu: +0.482930151  nElectrons: 192.000000
	SubspaceRotationAdjust: set factor to 4.36
ElecMinimize: Iter:  21  F: -933.065773441751617  |grad|_K:  3.828e-07  alpha:  3.817e-01  linmin:  3.931e-06  t[s]:   1356.88
	FillingsUpdate:  mu: +0.482917782  nElectrons: 192.000000
	SubspaceRotationAdjust: set factor to 3.87
ElecMinimize: Iter:  22  F: -933.065775641301570  |grad|_K:  3.214e-07  alpha:  4.082e-01  linmin:  5.919e-07  t[s]:   1412.49
	FillingsUpdate:  mu: +0.482922159  nElectrons: 192.000000
	SubspaceRotationAdjust: set factor to 4.19
ElecMinimize: Iter:  23  F: -933.065777311603370  |grad|_K:  2.561e-07  alpha:  4.394e-01  linmin:  5.777e-06  t[s]:   1467.61
	FillingsUpdate:  mu: +0.482926028  nElectrons: 192.000000
	SubspaceRotationAdjust: set factor to 3.81
ElecMinimize: Iter:  24  F: -933.065778308561903  |grad|_K:  2.013e-07  alpha:  4.138e-01  linmin:  2.099e-06  t[s]:   1521.76
	FillingsUpdate:  mu: +0.482920196  nElectrons: 192.000000
	SubspaceRotationAdjust: set factor to 4
ElecMinimize: Iter:  25  F: -933.065778976040065  |grad|_K:  1.715e-07  alpha:  4.481e-01  linmin:  3.307e-06  t[s]:   1576.63
	FillingsUpdate:  mu: +0.482923637  nElectrons: 192.000000
	SubspaceRotationAdjust: set factor to 4.02
ElecMinimize: Iter:  26  F: -933.065779415481416  |grad|_K:  1.237e-07  alpha:  4.065e-01  linmin:  1.660e-06  t[s]:   1631.22
	FillingsUpdate:  mu: +0.482920449  nElectrons: 192.000000
	SubspaceRotationAdjust: set factor to 3.8
ElecMinimize: Iter:  27  F: -933.065779638127083  |grad|_K:  1.006e-07  alpha:  3.962e-01  linmin:  1.173e-06  t[s]:   1685.91
	FillingsUpdate:  mu: +0.482921051  nElectrons: 192.000000
	SubspaceRotationAdjust: set factor to 4.22
ElecMinimize: Iter:  28  F: -933.065779791304521  |grad|_K:  7.246e-08  alpha:  4.118e-01  linmin:  2.447e-06  t[s]:   1740.82
	FillingsUpdate:  mu: +0.482922790  nElectrons: 192.000000
	SubspaceRotationAdjust: set factor to 3.95
ElecMinimize: Iter:  29  F: -933.065779863599346  |grad|_K:  5.655e-08  alpha:  3.752e-01  linmin:  9.267e-07  t[s]:   1795.87
	FillingsUpdate:  mu: +0.482921694  nElectrons: 192.000000
	SubspaceRotationAdjust: set factor to 4.16
ElecMinimize: Iter:  30  F: -933.065779911304389  |grad|_K:  4.316e-08  alpha:  4.059e-01  linmin: -1.837e-07  t[s]:   1852.34
	FillingsUpdate:  mu: +0.482922777  nElectrons: 192.000000
	SubspaceRotationAdjust: set factor to 4.03
ElecMinimize: Iter:  31  F: -933.065779937642560  |grad|_K:  3.363e-08  alpha:  3.845e-01  linmin:  1.175e-06  t[s]:   1907.08
	FillingsUpdate:  mu: +0.482922401  nElectrons: 192.000000
	SubspaceRotationAdjust: set factor to 4
ElecMinimize: Iter:  32  F: -933.065779955087805  |grad|_K:  2.730e-08  alpha:  4.191e-01  linmin:  4.337e-07  t[s]:   1961.57
	FillingsUpdate:  mu: +0.482922080  nElectrons: 192.000000
	SubspaceRotationAdjust: set factor to 4.11
ElecMinimize: Iter:  33  F: -933.065779965894080  |grad|_K:  2.093e-08  alpha:  3.933e-01  linmin: -1.099e-06  t[s]:   2017.25
	FillingsUpdate:  mu: +0.482922473  nElectrons: 192.000000
	SubspaceRotationAdjust: set factor to 3.97
ElecMinimize: Iter:  34  F: -933.065779972461883  |grad|_K:  1.738e-08  alpha:  4.049e-01  linmin: -1.837e-06  t[s]:   2072.30
	FillingsUpdate:  mu: +0.482922064  nElectrons: 192.000000
	SubspaceRotationAdjust: set factor to 4.08
ElecMinimize: Iter:  35  F: -933.065779977048692  |grad|_K:  1.357e-08  alpha:  4.105e-01  linmin:  4.417e-06  t[s]:   2128.18
ElecMinimize: Converged (|Delta F|<1.000000e-08 for 2 iters).
Setting wave functions to eigenvectors of Hamiltonian
# Lattice vectors:
R = 
[      11.1494     -5.57469            0  ]
[            0      9.65565            0  ]
[            0            0      17.6878  ]
unit cell volume = 1904.18

# Strain tensor in Cartesian coordinates:
[            0            0            0  ]
[            0            0            0  ]
[            0            0            0  ]

# Stress tensor in Cartesian coordinates [Eh/a0^3]:
[  4.57467e-05            0            0  ]
[            0  4.57467e-05            0  ]
[            0            0  4.99577e-05  ]

# Ionic positions in cartesian coordinates:
ion Ti   0.000000000000000  -0.000000000000000  -0.000000374999999 1
ion Ti   0.000000000000000   3.218550000000000   4.421958875000001 1
ion Ti   0.000000000000000  -0.000000000000000   8.843918125000000 1
ion Ti   0.000000000000000   3.218550000000000  13.265877375000001 1
ion Ti  -2.787346000000000   4.827825000000000  -0.000000374999999 1
ion Ti  -2.787345999999999   8.046374999999999   4.421958875000001 1
ion Ti  -2.787346000000000   4.827825000000000   8.843918125000000 1
ion Ti  -2.787345999999999   8.046374999999999  13.265877375000001 1
ion Ti   5.574692000000000  -0.000000000000000  -0.000000374999999 1
ion Ti   5.574692000000000   3.218550000000000   4.421958875000001 1
ion Ti   5.574692000000000  -0.000000000000000   8.843918125000000 1
ion Ti   5.574692000000000   3.218550000000000  13.265877375000001 1
ion Ti   2.787346000000000   4.827825000000000  -0.000000374999999 1
ion Ti   2.787346000000000   8.046374999999999   4.421958875000001 1
ion Ti   2.787346000000000   4.827825000000000   8.843918125000000 1
ion Ti   2.787346000000000   8.046374999999999  13.265877375000001 1

# Forces in Cartesian coordinates:
force Ti   0.000000000000000  -0.000000000000000   0.000000000000000 1
force Ti   0.000000000000000  -0.000000000000000  -0.000000000000000 1
force Ti   0.000000000000000   0.000000000000000  -0.000000000000000 1
force Ti   0.000000000000000   0.000000000000000   0.000000000000000 1
force Ti   0.000000000000000  -0.000000000000000   0.000000000000000 1
force Ti   0.000000000000000  -0.000000000000000  -0.000000000000000 1
force Ti  -0.000000000000000  -0.000000000000000   0.000000000000000 1
force Ti   0.000000000000000  -0.000000000000000   0.000000000000000 1
force Ti   0.000000000000000  -0.000000000000000   0.000000000000000 1
force Ti  -0.000000000000000  -0.000000000000000   0.000000000000000 1
force Ti   0.000000000000000   0.000000000000000   0.000000000000000 1
force Ti   0.000000000000000  -0.000000000000000  -0.000000000000000 1
force Ti   0.000000000000000  -0.000000000000000  -0.000000000000000 1
force Ti   0.000000000000000  -0.000000000000000  -0.000000000000000 1
force Ti  -0.000000000000000  -0.000000000000000  -0.000000000000000 1
force Ti  -0.000000000000000  -0.000000000000000   0.000000000000000 1

# Energy components:
   Eewald =     -676.3283064300366050
       EH =      195.6106728508502499
     Eloc =     -617.7470110466147162
      Enl =       87.4489313939067898
      Exc =     -144.2194553487054236
 Exc_core =       20.9511703473567223
       KE =      201.2459774023857619
-------------------------------------
     Etot =     -933.0380208308572492
       TS =        0.0277591461914129
-------------------------------------
        F =     -933.0657799770486918

LatticeMinimize: Iter:   0  F: -933.065779977048692  |grad|_K:  1.256e-02  t[s]:   2151.64

#--- Lowdin population analysis ---
# oxidation-state Ti +0.342 +0.342 +0.342 +0.342 +0.342 +0.342 +0.342 +0.342 +0.342 +0.342 +0.342 +0.342 +0.342 +0.342 +0.342 +0.342


-------- Electronic minimization -----------
	FillingsUpdate:  mu: +0.483691929  nElectrons: 192.000000
ElecMinimize: Iter:   0  F: -933.065905722886214  |grad|_K:  1.453e-06  alpha:  1.000e+00
	FillingsUpdate:  mu: +0.483931948  nElectrons: 192.000000
	SubspaceRotationAdjust: set factor to 2.1
ElecMinimize: Iter:   1  F: -933.065919110849904  |grad|_K:  5.422e-07  alpha:  1.735e-01  linmin:  4.997e-05  t[s]:   2271.50
	FillingsUpdate:  mu: +0.483904249  nElectrons: 192.000000
	SubspaceRotationAdjust: set factor to 1.28
ElecMinimize: Iter:   2  F: -933.065923791272439  |grad|_K:  2.678e-07  alpha:  4.347e-01  linmin: -2.473e-06  t[s]:   2326.61
	FillingsUpdate:  mu: +0.483911077  nElectrons: 192.000000
	SubspaceRotationAdjust: set factor to 1.41
ElecMinimize: Iter:   3  F: -933.065925933490234  |grad|_K:  1.634e-07  alpha:  8.104e-01  linmin:  8.416e-07  t[s]:   2382.45
	FillingsUpdate:  mu: +0.483939476  nElectrons: 192.000000
	SubspaceRotationAdjust: set factor to 1.36
ElecMinimize: Iter:   4  F: -933.065926358141610  |grad|_K:  1.042e-07  alpha:  4.322e-01  linmin: -3.040e-07  t[s]:   2437.05
	FillingsUpdate:  mu: +0.483929471  nElectrons: 192.000000
	SubspaceRotationAdjust: set factor to 1.42
ElecMinimize: Iter:   5  F: -933.065926568191458  |grad|_K:  5.733e-08  alpha:  5.252e-01  linmin: -4.208e-07  t[s]:   2493.76
	FillingsUpdate:  mu: +0.483927120  nElectrons: 192.000000
	SubspaceRotationAdjust: set factor to 1.53
ElecMinimize: Iter:   6  F: -933.065926636110817  |grad|_K:  3.205e-08  alpha:  5.613e-01  linmin: -6.529e-07  t[s]:   2549.19
	FillingsUpdate:  mu: +0.483929032  nElectrons: 192.000000
	SubspaceRotationAdjust: set factor to 1.5
ElecMinimize: Iter:   7  F: -933.065926651785958  |grad|_K:  2.019e-08  alpha:  4.145e-01  linmin: -1.031e-07  t[s]:   2603.95
	FillingsUpdate:  mu: +0.483927409  nElectrons: 192.000000
	SubspaceRotationAdjust: set factor to 1.52
ElecMinimize: Iter:   8  F: -933.065926659406728  |grad|_K:  1.118e-08  alpha:  5.073e-01  linmin:  1.990e-06  t[s]:   2660.05
	FillingsUpdate:  mu: +0.483928198  nElectrons: 192.000000
	SubspaceRotationAdjust: set factor to 1.54
ElecMinimize: Iter:   9  F: -933.065926662091215  |grad|_K:  6.578e-09  alpha:  5.795e-01  linmin: -1.236e-06  t[s]:   2714.39
ElecMinimize: Converged (|Delta F|<1.000000e-08 for 2 iters).
Setting wave functions to eigenvectors of Hamiltonian
# Lattice vectors:
R = 
[      11.1431     -5.57153            0  ]
[            0      9.65018            0  ]
[            0            0      17.6769  ]
unit cell volume = 1900.84

# Strain tensor in Cartesian coordinates:
[ -0.000567016            0            0  ]
[            0 -0.000567016            0  ]
[            0            0  -0.00061921  ]

# Stress tensor in Cartesian coordinates [Eh/a0^3]:
[  3.93882e-05            0            0  ]
[            0  3.93882e-05            0  ]
[            0            0  4.31748e-05  ]

# Ionic positions in cartesian coordinates:
ion Ti   0.000000000000000  -0.000000000000000  -0.000000374767796 1
ion Ti   0.000000000000000   3.216725029116967   4.419220752661918 1
ion Ti   0.000000000000000  -0.000000000000000   8.838441880091629 1
ion Ti   0.000000000000000   3.216725029116967  13.257663007521343 1
ion Ti  -2.785765528961889   4.825087543675451  -0.000000374767796 1
ion Ti  -2.785765528961889   8.041812572792418   4.419220752661918 1
ion Ti  -2.785765528961889   4.825087543675451   8.838441880091629 1
ion Ti  -2.785765528961889   8.041812572792418  13.257663007521343 1
ion Ti   5.571531057923778  -0.000000000000000  -0.000000374767796 1
ion Ti   5.571531057923778   3.216725029116967   4.419220752661918 1
ion Ti   5.571531057923778  -0.000000000000000   8.838441880091629 1
ion Ti   5.571531057923778   3.216725029116967  13.257663007521343 1
ion Ti   2.785765528961889   4.825087543675451  -0.000000374767796 1
ion Ti   2.785765528961889   8.041812572792418   4.419220752661918 1
ion Ti   2.785765528961889   4.825087543675451   8.838441880091629 1
ion Ti   2.785765528961889   8.041812572792418  13.257663007521343 1

# Forces in Cartesian coordinates:
force Ti  -0.000000000000000   0.000000000000000  -0.000000000000000 1
force Ti  -0.000000000000000   0.000000000000000  -0.000000000000000 1
force Ti  -0.000000000000000  -0.000000000000000   0.000000000000000 1
force Ti   0.000000000000000   0.000000000000000  -0.000000000000000 1
force Ti   0.000000000000000   0.000000000000000  -0.000000000000000 1
force Ti  -0.000000000000000   0.000000000000000  -0.000000000000000 1
force Ti   0.000000000000000   0.000000000000000   0.000000000000000 1
force Ti  -0.000000000000000  -0.000000000000000   0.000000000000000 1
force Ti  -0.000000000000000  -0.000000000000000  -0.000000000000000 1
force Ti  -0.000000000000000   0.000000000000000   0.000000000000000 1
force Ti  -0.000000000000000  -0.000000000000000  -0.000000000000000 1
force Ti  -0.000000000000000   0.000000000000000  -0.000000000000000 1
force Ti  -0.000000000000000   0.000000000000000   0.000000000000000 1
force Ti  -0.000000000000000  -0.000000000000000  -0.000000000000000 1
force Ti   0.000000000000000  -0.000000000000000   0.000000000000000 1
force Ti  -0.000000000000000  -0.000000000000000   0.000000000000000 1

# Energy components:
   Eewald =     -676.7235053094199202
       EH =      195.4243793724563432
     Eloc =     -617.1837835363778595
      Enl =       87.4501943401195660
      Exc =     -144.2302449958846466
 Exc_core =       20.9511650733319712
       KE =      201.2735683246780241
-------------------------------------
     Etot =     -933.0382267310963016
       TS =        0.0276999309949592
-------------------------------------
        F =     -933.0659266620912149

LatticeMinimize: Iter:   1  F: -933.065926662091215  |grad|_K:  1.081e-02  alpha:  1.000e+00  linmin: -1.000e+00  t[s]:   2737.95

#--- Lowdin population analysis ---
# oxidation-state Ti +0.341 +0.341 +0.341 +0.341 +0.341 +0.341 +0.341 +0.341 +0.341 +0.341 +0.341 +0.341 +0.341 +0.341 +0.341 +0.341


-------- Electronic minimization -----------
	FillingsUpdate:  mu: +0.488710263  nElectrons: 192.000000
ElecMinimize: Iter:   0  F: -933.065555226034576  |grad|_K:  7.587e-06  alpha:  1.000e+00
	FillingsUpdate:  mu: +0.490188099  nElectrons: 192.000000
	SubspaceRotationAdjust: set factor to 1.59
ElecMinimize: Iter:   1  F: -933.066122521096759  |grad|_K:  2.778e-06  alpha:  2.686e-01  linmin:  4.831e-05  t[s]:   2858.11
	FillingsUpdate:  mu: +0.490080551  nElectrons: 192.000000
	SubspaceRotationAdjust: set factor to 1.6
ElecMinimize: Iter:   2  F: -933.066277901950002  |grad|_K:  1.393e-06  alpha:  5.481e-01  linmin: -6.955e-06  t[s]:   2911.67
	FillingsUpdate:  mu: +0.490140688  nElectrons: 192.000000
	SubspaceRotationAdjust: set factor to 1.7
ElecMinimize: Iter:   3  F: -933.066330632936683  |grad|_K:  8.213e-07  alpha:  7.366e-01  linmin:  8.938e-07  t[s]:   2966.18
	FillingsUpdate:  mu: +0.490137950  nElectrons: 192.000000
	SubspaceRotationAdjust: set factor to 1.8
ElecMinimize: Iter:   4  F: -933.066343784211540  |grad|_K:  5.763e-07  alpha:  5.296e-01  linmin:  1.692e-07  t[s]:   3021.70
	FillingsUpdate:  mu: +0.490145699  nElectrons: 192.000000
	SubspaceRotationAdjust: set factor to 1.78
ElecMinimize: Iter:   5  F: -933.066348668804039  |grad|_K:  2.771e-07  alpha:  3.995e-01  linmin:  1.098e-07  t[s]:   3076.28
	FillingsUpdate:  mu: +0.490147365  nElectrons: 192.000000
	SubspaceRotationAdjust: set factor to 1.9
ElecMinimize: Iter:   6  F: -933.066350261434877  |grad|_K:  1.687e-07  alpha:  5.634e-01  linmin:  3.627e-07  t[s]:   3130.83
	FillingsUpdate:  mu: +0.490144854  nElectrons: 192.000000
	SubspaceRotationAdjust: set factor to 1.98
ElecMinimize: Iter:   7  F: -933.066350743793691  |grad|_K:  9.469e-08  alpha:  4.603e-01  linmin:  1.614e-07  t[s]:   3185.10
	FillingsUpdate:  mu: +0.490145586  nElectrons: 192.000000
	SubspaceRotationAdjust: set factor to 1.95
ElecMinimize: Iter:   8  F: -933.066350920760897  |grad|_K:  5.851e-08  alpha:  5.359e-01  linmin: -7.113e-07  t[s]:   3239.12
	FillingsUpdate:  mu: +0.490142950  nElectrons: 192.000000
	SubspaceRotationAdjust: set factor to 2.06
ElecMinimize: Iter:   9  F: -933.066350976048625  |grad|_K:  3.530e-08  alpha:  4.387e-01  linmin:  1.086e-07  t[s]:   3292.99
	FillingsUpdate:  mu: +0.490143945  nElectrons: 192.000000
	SubspaceRotationAdjust: set factor to 1.93
ElecMinimize: Iter:  10  F: -933.066351004132912  |grad|_K:  1.783e-08  alpha:  6.107e-01  linmin: -3.005e-06  t[s]:   3348.78
	FillingsUpdate:  mu: +0.490143965  nElectrons: 192.000000
	SubspaceRotationAdjust: set factor to 2.04
ElecMinimize: Iter:  11  F: -933.066351009871596  |grad|_K:  1.205e-08  alpha:  4.908e-01  linmin: -5.399e-07  t[s]:   3403.82
	FillingsUpdate:  mu: +0.490144340  nElectrons: 192.000000
	SubspaceRotationAdjust: set factor to 2.02
ElecMinimize: Iter:  12  F: -933.066351012450809  |grad|_K:  7.382e-09  alpha:  4.831e-01  linmin: -9.068e-06  t[s]:   3457.78
ElecMinimize: Converged (|Delta F|<1.000000e-08 for 2 iters).
Setting wave functions to eigenvectors of Hamiltonian
# Lattice vectors:
R = 
[      11.1043     -5.55217            0  ]
[            0      9.61664            0  ]
[            0            0      17.6095  ]
unit cell volume = 1880.46

# Strain tensor in Cartesian coordinates:
[  -0.00404027            0            0  ]
[            0  -0.00404027            0  ]
[            0            0  -0.00442684  ]

# Stress tensor in Cartesian coordinates [Eh/a0^3]:
[  1.85211e-08            0            0  ]
[            0  1.85211e-08            0  ]
[            0            0  1.52281e-06  ]

# Ionic positions in cartesian coordinates:
ion Ti   0.000000000000000  -0.000000000000000  -0.000000373339935 1
ion Ti   0.000000000000000   3.205546189680788   4.402383583251067 1
ion Ti   0.000000000000000  -0.000000000000000   8.804767539842070 1
ion Ti   0.000000000000000   3.205546189680788  13.207151496433072 1
ion Ti  -2.776084370684678   4.808319284521183  -0.000000373339935 1
ion Ti  -2.776084370684678   8.013865474201971   4.402383583251067 1
ion Ti  -2.776084370684678   4.808319284521183   8.804767539842070 1
ion Ti  -2.776084370684678   8.013865474201971  13.207151496433072 1
ion Ti   5.552168741369356  -0.000000000000000  -0.000000373339935 1
ion Ti   5.552168741369356   3.205546189680788   4.402383583251067 1
ion Ti   5.552168741369356  -0.000000000000000   8.804767539842070 1
ion Ti   5.552168741369356   3.205546189680788  13.207151496433072 1
ion Ti   2.776084370684678   4.808319284521183  -0.000000373339935 1
ion Ti   2.776084370684679   8.013865474201971   4.402383583251067 1
ion Ti   2.776084370684678   4.808319284521183   8.804767539842070 1
ion Ti   2.776084370684679   8.013865474201971  13.207151496433072 1

# Forces in Cartesian coordinates:
force Ti   0.000000000000000   0.000000000000000   0.000000000000000 1
force Ti  -0.000000000000000   0.000000000000000  -0.000000000000000 1
force Ti   0.000000000000000  -0.000000000000000  -0.000000000000000 1
force Ti  -0.000000000000000   0.000000000000000  -0.000000000000000 1
force Ti  -0.000000000000000  -0.000000000000000   0.000000000000000 1
force Ti  -0.000000000000000  -0.000000000000000  -0.000000000000000 1
force Ti   0.000000000000000   0.000000000000000  -0.000000000000000 1
force Ti  -0.000000000000000   0.000000000000000  -0.000000000000000 1
force Ti   0.000000000000000  -0.000000000000000   0.000000000000000 1
force Ti  -0.000000000000000   0.000000000000000   0.000000000000000 1
force Ti   0.000000000000000  -0.000000000000000   0.000000000000000 1
force Ti  -0.000000000000000   0.000000000000000  -0.000000000000000 1
force Ti   0.000000000000000  -0.000000000000000  -0.000000000000000 1
force Ti   0.000000000000000   0.000000000000000  -0.000000000000000 1
force Ti   0.000000000000000  -0.000000000000000  -0.000000000000000 1
force Ti   0.000000000000000   0.000000000000000  -0.000000000000000 1

# Energy components:
   Eewald =     -679.1576571942415512
       EH =      194.2796307189685194
     Eloc =     -613.7178716297250958
      Enl =       87.4576879554917355
      Exc =     -144.2969055385601109
 Exc_core =       20.9511350986655280
       KE =      201.4449724198165654
-------------------------------------
     Etot =     -933.0390081695843492
       TS =        0.0273428428664192
-------------------------------------
        F =     -933.0663510124508093

LatticeMinimize: Iter:   2  F: -933.066351012450809  |grad|_K:  2.311e-04  alpha:  1.000e+00  linmin: -6.262e-01  t[s]:   3481.20

#--- Lowdin population analysis ---
# oxidation-state Ti +0.337 +0.337 +0.337 +0.337 +0.337 +0.337 +0.337 +0.337 +0.337 +0.337 +0.337 +0.337 +0.337 +0.337 +0.337 +0.337


-------- Electronic minimization -----------
	FillingsUpdate:  mu: +0.490205795  nElectrons: 192.000000
ElecMinimize: Iter:   0  F: -933.066350997721088  |grad|_K:  1.296e-07  alpha:  1.000e+00
	FillingsUpdate:  mu: +0.490230308  nElectrons: 192.000000
	SubspaceRotationAdjust: set factor to 2.2
ElecMinimize: Iter:   1  F: -933.066351191548620  |grad|_K:  6.377e-08  alpha:  3.137e-01  linmin:  1.082e-06  t[s]:   3600.45
	FillingsUpdate:  mu: +0.490222677  nElectrons: 192.000000
	SubspaceRotationAdjust: set factor to 1.62
ElecMinimize: Iter:   2  F: -933.066351253376638  |grad|_K:  2.534e-08  alpha:  4.131e-01  linmin:  6.670e-06  t[s]:   3656.06
	FillingsUpdate:  mu: +0.490224011  nElectrons: 192.000000
	SubspaceRotationAdjust: set factor to 1.71
ElecMinimize: Iter:   3  F: -933.066351273243185  |grad|_K:  1.557e-08  alpha:  8.305e-01  linmin: -2.110e-05  t[s]:   3711.42
	FillingsUpdate:  mu: +0.490224524  nElectrons: 192.000000
	SubspaceRotationAdjust: set factor to 1.7
ElecMinimize: Iter:   4  F: -933.066351278301454  |grad|_K:  1.009e-08  alpha:  5.565e-01  linmin:  2.623e-06  t[s]:   3767.88
	FillingsUpdate:  mu: +0.490224598  nElectrons: 192.000000
	SubspaceRotationAdjust: set factor to 1.79
ElecMinimize: Iter:   5  F: -933.066351279683204  |grad|_K:  5.479e-09  alpha:  3.808e-01  linmin: -1.313e-05  t[s]:   3821.99
ElecMinimize: Converged (|Delta F|<1.000000e-08 for 2 iters).
Setting wave functions to eigenvectors of Hamiltonian
# Lattice vectors:
R = 
[      11.1043     -5.55216            0  ]
[            0      9.61663            0  ]
[            0            0      17.6072  ]
unit cell volume = 1880.2

# Strain tensor in Cartesian coordinates:
[   -0.0040413            0            0  ]
[            0   -0.0040413            0  ]
[            0            0  -0.00456029  ]

# Stress tensor in Cartesian coordinates [Eh/a0^3]:
[ -3.06829e-07            0            0  ]
[            0 -3.06829e-07            0  ]
[            0            0   5.7285e-07  ]

# Ionic positions in cartesian coordinates:
ion Ti   0.000000000000000  -0.000000000000000  -0.000000373289889 1
ion Ti   0.000000000000000   3.205542872338860   4.401793444681771 1
ion Ti   0.000000000000000  -0.000000000000000   8.803587262653430 1
ion Ti   0.000000000000000   3.205542872338860  13.205381080625092 1
ion Ti  -2.776081497782489   4.808314308508290  -0.000000373289889 1
ion Ti  -2.776081497782489   8.013857180847150   4.401793444681771 1
ion Ti  -2.776081497782489   4.808314308508290   8.803587262653430 1
ion Ti  -2.776081497782489   8.013857180847150  13.205381080625092 1
ion Ti   5.552162995564979  -0.000000000000000  -0.000000373289889 1
ion Ti   5.552162995564979   3.205542872338860   4.401793444681771 1
ion Ti   5.552162995564979  -0.000000000000000   8.803587262653430 1
ion Ti   5.552162995564979   3.205542872338860  13.205381080625092 1
ion Ti   2.776081497782489   4.808314308508290  -0.000000373289889 1
ion Ti   2.776081497782489   8.013857180847150   4.401793444681771 1
ion Ti   2.776081497782489   4.808314308508290   8.803587262653430 1
ion Ti   2.776081497782489   8.013857180847150  13.205381080625092 1

# Forces in Cartesian coordinates:
force Ti  -0.000000000000000  -0.000000000000000  -0.000000000000000 1
force Ti   0.000000000000000  -0.000000000000000  -0.000000000000000 1
force Ti  -0.000000000000000  -0.000000000000000   0.000000000000000 1
force Ti   0.000000000000000  -0.000000000000000  -0.000000000000000 1
force Ti  -0.000000000000000   0.000000000000000   0.000000000000000 1
force Ti  -0.000000000000000   0.000000000000000   0.000000000000000 1
force Ti   0.000000000000000   0.000000000000000  -0.000000000000000 1
force Ti  -0.000000000000000  -0.000000000000000   0.000000000000000 1
force Ti   0.000000000000000  -0.000000000000000   0.000000000000000 1
force Ti   0.000000000000000  -0.000000000000000  -0.000000000000000 1
force Ti  -0.000000000000000  -0.000000000000000  -0.000000000000000 1
force Ti   0.000000000000000  -0.000000000000000  -0.000000000000000 1
force Ti   0.000000000000000  -0.000000000000000   0.000000000000000 1
force Ti   0.000000000000000  -0.000000000000000  -0.000000000000000 1
force Ti   0.000000000000000  -0.000000000000000  -0.000000000000000 1
force Ti  -0.000000000000000  -0.000000000000000   0.000000000000000 1

# Energy components:
   Eewald =     -679.1877283072228693
       EH =      194.2657057328703161
     Eloc =     -613.6753052871171121
      Enl =       87.4578496274891393
      Exc =     -144.2977598484254145
 Exc_core =       20.9511350519072010
       KE =      201.4470887720616474
-------------------------------------
     Etot =     -933.0390142584370778
       TS =        0.0273370212461188
-------------------------------------
        F =     -933.0663512796832038

LatticeMinimize: Iter:   3  F: -933.066351279683204  |grad|_K:  1.090e-04  alpha:  1.000e+00  linmin: -7.905e-01  t[s]:   3845.58

#--- Lowdin population analysis ---
# oxidation-state Ti +0.337 +0.337 +0.337 +0.337 +0.337 +0.337 +0.337 +0.337 +0.337 +0.337 +0.337 +0.337 +0.337 +0.337 +0.337 +0.337


-------- Electronic minimization -----------
	FillingsUpdate:  mu: +0.490223313  nElectrons: 192.000000
ElecMinimize: Iter:   0  F: -933.066351291292222  |grad|_K:  5.930e-08  alpha:  1.000e+00
	FillingsUpdate:  mu: +0.490221602  nElectrons: 192.000000
	SubspaceRotationAdjust: set factor to 1.48
ElecMinimize: Iter:   1  F: -933.066351365656487  |grad|_K:  1.982e-08  alpha:  5.748e-01  linmin:  2.595e-06  t[s]:   3964.29
	FillingsUpdate:  mu: +0.490223292  nElectrons: 192.000000
	SubspaceRotationAdjust: set factor to 1.46
ElecMinimize: Iter:   2  F: -933.066351371623455  |grad|_K:  1.434e-08  alpha:  4.090e-01  linmin:  7.285e-06  t[s]:   4020.42
	FillingsUpdate:  mu: +0.490222592  nElectrons: 192.000000
	SubspaceRotationAdjust: set factor to 1.63
ElecMinimize: Iter:   3  F: -933.066351376049170  |grad|_K:  9.322e-09  alpha:  5.944e-01  linmin: -3.363e-07  t[s]:   4075.16
ElecMinimize: Converged (|Delta F|<1.000000e-08 for 2 iters).
Setting wave functions to eigenvectors of Hamiltonian
# Lattice vectors:
R = 
[      11.1047     -5.55236            0  ]
[            0      9.61697            0  ]
[            0            0       17.606  ]
unit cell volume = 1880.21

# Strain tensor in Cartesian coordinates:
[  -0.00400605            0            0  ]
[            0  -0.00400606            0  ]
[            0            0  -0.00462564  ]

# Stress tensor in Cartesian coordinates [Eh/a0^3]:
[ -2.13844e-07            0            0  ]
[            0 -2.13844e-07            0  ]
[            0            0  5.25192e-07  ]

# Ionic positions in cartesian coordinates:
ion Ti   0.000000000000000  -0.000000000000000  -0.000000373265384 1
ion Ti   0.000000000000000   3.205656311520402   4.401504478687319 1
ion Ti   0.000000000000000  -0.000000000000000   8.803009330640021 1
ion Ti   0.000000000000000   3.205656311520402  13.204514182592725 1
ion Ti  -2.776179738988845   4.808484467280603  -0.000000373265384 1
ion Ti  -2.776179738988845   8.014140778801004   4.401504478687319 1
ion Ti  -2.776179738988845   4.808484467280603   8.803009330640021 1
ion Ti  -2.776179738988845   8.014140778801004  13.204514182592725 1
ion Ti   5.552359477977689  -0.000000000000000  -0.000000373265384 1
ion Ti   5.552359477977689   3.205656311520402   4.401504478687319 1
ion Ti   5.552359477977689  -0.000000000000000   8.803009330640021 1
ion Ti   5.552359477977689   3.205656311520402  13.204514182592725 1
ion Ti   2.776179738988845   4.808484467280603  -0.000000373265384 1
ion Ti   2.776179738988844   8.014140778801004   4.401504478687319 1
ion Ti   2.776179738988845   4.808484467280603   8.803009330640021 1
ion Ti   2.776179738988844   8.014140778801004  13.204514182592725 1

# Forces in Cartesian coordinates:
force Ti   0.000000000000000   0.000000000000000   0.000000000000000 1
force Ti   0.000000000000000   0.000000000000000   0.000000000000000 1
force Ti   0.000000000000000   0.000000000000000  -0.000000000000000 1
force Ti  -0.000000000000000   0.000000000000000   0.000000000000000 1
force Ti  -0.000000000000000   0.000000000000000   0.000000000000000 1
force Ti  -0.000000000000000   0.000000000000000   0.000000000000000 1
force Ti   0.000000000000000   0.000000000000000   0.000000000000000 1
force Ti  -0.000000000000000   0.000000000000000   0.000000000000000 1
force Ti  -0.000000000000000   0.000000000000000   0.000000000000000 1
force Ti  -0.000000000000000   0.000000000000000   0.000000000000000 1
force Ti  -0.000000000000000  -0.000000000000000   0.000000000000000 1
force Ti  -0.000000000000000   0.000000000000000  -0.000000000000000 1
force Ti  -0.000000000000000   0.000000000000000   0.000000000000000 1
force Ti  -0.000000000000000  -0.000000000000000  -0.000000000000000 1
force Ti  -0.000000000000000   0.000000000000000   0.000000000000000 1
force Ti  -0.000000000000000  -0.000000000000000   0.000000000000000 1

# Energy components:
   Eewald =     -679.1859982479758173
       EH =      194.2666075520956497
     Eloc =     -613.6778322379660722
      Enl =       87.4578051848595663
      Exc =     -144.2977199941145727
 Exc_core =       20.9511353044691262
       KE =      201.4469873933581994
-------------------------------------
     Etot =     -933.0390150452739135
       TS =        0.0273363307752911
-------------------------------------
        F =     -933.0663513760491696

LatticeMinimize: Iter:   4  F: -933.066351376049170  |grad|_K:  9.193e-05  alpha:  1.000e+00  linmin: -9.917e-01  t[s]:   4098.55
LatticeMinimize: Converged (|Delta F|<1.000000e-06 for 2 iters).

#--- Lowdin population analysis ---
# oxidation-state Ti +0.337 +0.337 +0.337 +0.337 +0.337 +0.337 +0.337 +0.337 +0.337 +0.337 +0.337 +0.337 +0.337 +0.337 +0.337 +0.337


Dumping 'Ti16.Ecomponents' ... done
End date and time: Mon Nov 13 19:05:47 2023  (Duration: 0-1:08:45.40)
Done!
