--------------------------------------------------------------------------
Initialization of PSM library failed.

  Error: PSM is in the finalized state
--------------------------------------------------------------------------

*************** JDFTx 1.7.0  ***************

Start date and time: Mon Nov 13 17:57:07 2023
Executable jdftx with command-line: -i /home/cam559/Valla_project/Ti/Ti16O_oct.in
Running on hosts (process indices):  node3101.physics.cornell.edu (0-9)
Divided in process groups (process indices):  0 (0)  1 (1)  2 (2)  3 (3)  4 (4)  5 (5)  6 (6)  7 (7)  8 (8)  9 (9)
Resource initialization completed at t[s]:      0.00
Run totals: 10 processes, 30 threads, 0 GPUs


Input parsed successfully to the following command list (including defaults):

basis kpoint-dependent
coords-type Cartesian
core-overlap-check vector
coulomb-interaction Periodic
davidson-band-ratio 1.1
dump End Ecomponents
dump-name Ti16O_oct.$VAR
elec-cutoff 20 100
elec-eigen-algo Davidson
elec-ex-corr gga-PBE
elec-smearing Fermi 0.004
electronic-minimize  \
	dirUpdateScheme      FletcherReeves \
	linminMethod         DirUpdateRecommended \
	nIterations          100 \
	history              15 \
	knormThreshold       0 \
	energyDiffThreshold  1e-08 \
	nEnergyDiff          2 \
	alphaTstart          1 \
	alphaTmin            1e-10 \
	updateTestStepSize   yes \
	alphaTreduceFactor   0.1 \
	alphaTincreaseFactor 3 \
	nAlphaAdjustMax      3 \
	wolfeEnergy          0.0001 \
	wolfeGradient        0.9 \
	fdTest               no
exchange-regularization WignerSeitzTruncated
fluid None
fluid-ex-corr lda-TF lda-PZ
fluid-gummel-loop 10 1.000000e-05
fluid-minimize  \
	dirUpdateScheme      PolakRibiere \
	linminMethod         DirUpdateRecommended \
	nIterations          100 \
	history              15 \
	knormThreshold       0 \
	energyDiffThreshold  0 \
	nEnergyDiff          2 \
	alphaTstart          1 \
	alphaTmin            1e-10 \
	updateTestStepSize   yes \
	alphaTreduceFactor   0.1 \
	alphaTincreaseFactor 3 \
	nAlphaAdjustMax      3 \
	wolfeEnergy          0.0001 \
	wolfeGradient        0.9 \
	fdTest               no
fluid-solvent H2O 55.338 ScalarEOS \
	epsBulk 78.4 \
	pMol 0.92466 \
	epsInf 1.77 \
	Pvap 1.06736e-10 \
	sigmaBulk 4.62e-05 \
	Rvdw 2.61727 \
	Res 1.42 \
	tauNuc 343133 \
	poleEl 15 7 1
forces-output-coords Positions
initial-state Ti16O_oct.$VAR
ion Ti   0.000000000000000   0.000000000000000   0.000000000000000 1
ion Ti   0.000000000000000   3.218550000000000   4.421959000000000 1
ion Ti   0.000000000000000   0.000000000000000   8.843918000000000 1
ion Ti   0.000000000000000   3.218550000000000  13.265877000000000 1
ion Ti  -2.787346000000000   4.827825000000000   0.000000000000000 1
ion Ti  -2.787346000000000   8.046374999999999   4.421959000000000 1
ion Ti  -2.787346000000000   4.827825000000000   8.843918000000000 1
ion Ti  -2.787346000000000   8.046374999999999  13.265877000000000 1
ion Ti   5.574692000000000   0.000000000000000   0.000000000000000 1
ion Ti   5.574692000000000   3.218550000000000   4.421959000000000 1
ion Ti   5.574692000000000   0.000000000000000   8.843918000000000 1
ion Ti   5.574692000000000   3.218550000000000  13.265877000000000 1
ion Ti   2.787346000000000   4.827825000000000   0.000000000000000 1
ion Ti   2.787346000000000   8.046374999999999   4.421959000000000 1
ion Ti   2.787346000000000   4.827825000000000   8.843918000000000 1
ion Ti   2.787346000000000   8.046374999999999  13.265877000000000 1
ion O   3.735358999999999   1.877128000000000   4.440856000000000 1
ion-species GBRV/$ID_pbe.uspp
ion-width 0
ionic-minimize  \
	dirUpdateScheme      L-BFGS \
	linminMethod         DirUpdateRecommended \
	nIterations          0 \
	history              15 \
	knormThreshold       0.0001 \
	energyDiffThreshold  1e-06 \
	nEnergyDiff          2 \
	alphaTstart          1 \
	alphaTmin            1e-10 \
	updateTestStepSize   yes \
	alphaTreduceFactor   0.1 \
	alphaTincreaseFactor 3 \
	nAlphaAdjustMax      3 \
	wolfeEnergy          0.0001 \
	wolfeGradient        0.9 \
	fdTest               no
kpoint   0.000000000000   0.000000000000   0.000000000000  1.00000000000000
kpoint-folding 6 6 6 
latt-move-scale 1 1 1
latt-scale 1 1 1 
lattice  \
	  11.149384000000000   -5.574692000000000    0.000000000000000  \
	   0.000000000000000    9.655650000000000    0.000000000000000  \
	   0.000000000000000    0.000000000000000   17.687836999999998 
lattice-minimize  \
	dirUpdateScheme      L-BFGS \
	linminMethod         DirUpdateRecommended \
	nIterations          30 \
	history              15 \
	knormThreshold       0 \
	energyDiffThreshold  1e-06 \
	nEnergyDiff          2 \
	alphaTstart          1 \
	alphaTmin            1e-10 \
	updateTestStepSize   yes \
	alphaTreduceFactor   0.1 \
	alphaTincreaseFactor 3 \
	nAlphaAdjustMax      3 \
	wolfeEnergy          0.0001 \
	wolfeGradient        0.9 \
	fdTest               no
lcao-params -1 1e-06 0.004
pcm-variant GLSSA13
spintype no-spin
subspace-rotation-factor 1 yes
symmetries automatic
symmetry-threshold 0.0001



---------- Setting up symmetries ----------

Found 24 point-group symmetries of the bravais lattice
Found 1 space-group symmetries with basis
Applied RMS atom displacement 0 bohrs to make symmetries exact.

---------- Initializing the Grid ----------
R = 
[      11.1494     -5.57469            0  ]
[            0      9.65565            0  ]
[            0            0      17.6878  ]
unit cell volume = 1904.18
G =
[   0.563546   0.325363         -0  ]
[          0   0.650726          0  ]
[          0         -0   0.355226  ]
Minimum fftbox size, Smin = [  52  52  80  ]
Chosen fftbox size, S = [  54  54  80  ]

---------- Initializing tighter grid for wavefunction operations ----------
R = 
[      11.1494     -5.57469            0  ]
[            0      9.65565            0  ]
[            0            0      17.6878  ]
unit cell volume = 1904.18
G =
[   0.563546   0.325363         -0  ]
[          0   0.650726          0  ]
[          0         -0   0.355226  ]
Minimum fftbox size, Smin = [  48  48  72  ]
Chosen fftbox size, S = [  48  48  72  ]

---------- Exchange Correlation functional ----------
Initalized PBE GGA exchange.
Initalized PBE GGA correlation.

---------- Setting up pseudopotentials ----------
Width of ionic core gaussian charges (only for fluid interactions / plotting) set to 0

Reading pseudopotential file '/home/cam559/JDFTx/build/pseudopotentials/GBRV/ti_pbe.uspp':
  Title: Ti.  Created by USPP 7.3.6 on 31-3-15
  Reference state energy: -59.020943.  12 valence electrons in orbitals:
    |300>  occupation: 2  eigenvalue: -2.777623
    |310>  occupation: 6  eigenvalue: -1.894596
    |400>  occupation: 2  eigenvalue: -0.438610
    |320>  occupation: 1  eigenvalue: -0.583119
  lMax: 2  lLocal: 3  QijEcut: 6
  6 projectors sampled on a log grid with 597 points:
    l: 0  eig: -2.777624  rCut: 1.8
    l: 0  eig: -0.438611  rCut: 1.8
    l: 1  eig: -1.894596  rCut: 1.8
    l: 1  eig: 0.500000  rCut: 1.8
    l: 2  eig: -0.583118  rCut: 1.8
    l: 2  eig: 0.150000  rCut: 1.8
  Partial core density with radius 0.8
  Transforming core density to a uniform radial grid of dG=0.02 with 1685 points.
  Transforming local potential to a uniform radial grid of dG=0.02 with 1685 points.
  Transforming nonlocal projectors to a uniform radial grid of dG=0.02 with 432 points.
  Transforming density augmentations to a uniform radial grid of dG=0.02 with 1685 points.
  Transforming atomic orbitals to a uniform radial grid of dG=0.02 with 432 points.
  Core radius for overlap checks: 1.80 bohrs.

Reading pseudopotential file '/home/cam559/JDFTx/build/pseudopotentials/GBRV/o_pbe.uspp':
  Title: O.  Created by USPP 7.3.6 on 3-2-2014
  Reference state energy: -15.894388.  6 valence electrons in orbitals:
    |200>  occupation: 2  eigenvalue: -0.878823
    |210>  occupation: 4  eigenvalue: -0.332131
  lMax: 2  lLocal: 2  QijEcut: 6
  5 projectors sampled on a log grid with 511 points:
    l: 0  eig: -0.878823  rCut: 1.25
    l: 0  eig: 0.000000  rCut: 1.25
    l: 1  eig: -0.332132  rCut: 1.25
    l: 1  eig: 0.000000  rCut: 1.25
    l: 2  eig: 1.000000  rCut: 1.25
  Partial core density with radius 0.7
  Transforming core density to a uniform radial grid of dG=0.02 with 1685 points.
  Transforming local potential to a uniform radial grid of dG=0.02 with 1685 points.
  Transforming nonlocal projectors to a uniform radial grid of dG=0.02 with 432 points.
  Transforming density augmentations to a uniform radial grid of dG=0.02 with 1685 points.
  Transforming atomic orbitals to a uniform radial grid of dG=0.02 with 432 points.
  Core radius for overlap checks: 1.25 bohrs.

Initialized 2 species with 17 total atoms.

Folded 1 k-points by 6x6x6 to 216 k-points.

---------- Setting up k-points, bands, fillings ----------
Adding inversion symmetry to k-mesh for non-inversion-symmetric unit cell.
Reduced to 112 k-points under symmetry. 
Computing the number of bands and number of electrons
Calculating initial fillings.
nElectrons: 198.000000   nBands: 164   nStates: 112

----- Setting up reduced wavefunction bases (one per k-point) -----
average nbasis = 8135.236 , ideal nbasis = 8134.786

---------- Setting up ewald sum ----------
Optimum gaussian width for ewald sums = 3.083692 bohr.
Real space sum over 847 unit cells with max indices [  5  5  3  ]
Reciprocal space sum over 4725 terms with max indices [  7  7  10  ]

---------- Allocating electronic variables ----------
Initializing wave functions:  linear combination of atomic orbitals
Ti pseudo-atom occupations:   s ( 2 0 )  p ( 6 )  d ( 4 )
O pseudo-atom occupations:   s ( 2 )  p ( 4 )
	FillingsUpdate:  mu: +0.605649402  nElectrons: 198.000000
LCAOMinimize: Iter:   0  F: -943.7090096230192557  |grad|_K:  1.297e-03  alpha:  1.000e+00
	FillingsUpdate:  mu: +0.618674733  nElectrons: 198.000000
LCAOMinimize: Iter:   1  F: -943.9000540451862662  |grad|_K:  9.260e-04  alpha:  5.552e-02  linmin: -1.036e-01  cgtest:  4.627e-01  t[s]:    148.73
LCAOMinimize: 	Predicted alpha/alphaT>3.000000, increasing alphaT to 1.665519e-01.
	FillingsUpdate:  mu: +0.598172414  nElectrons: 198.000000
LCAOMinimize: Iter:   2  F: -944.2950783594096720  |grad|_K:  2.507e-03  alpha:  3.261e-01  linmin:  1.534e-02  cgtest: -3.406e-01  t[s]:    209.02
	FillingsUpdate:  mu: +0.598330091  nElectrons: 198.000000
LCAOMinimize: Iter:   3  F: -944.3345547642057909  |grad|_K:  2.611e-03  alpha:  5.471e-03  linmin: -7.117e-03  cgtest:  9.871e-01  t[s]:    257.73
LCAOMinimize: 	Predicted alpha/alphaT>3.000000, increasing alphaT to 1.641335e-02.
	FillingsUpdate:  mu: +0.654627193  nElectrons: 198.000000
LCAOMinimize: Iter:   4  F: -944.7193124719765365  |grad|_K:  9.021e-04  alpha:  4.019e-02  linmin:  1.187e-01  cgtest: -5.330e-01  t[s]:    317.96
	FillingsUpdate:  mu: +0.636650768  nElectrons: 198.000000
LCAOMinimize: Iter:   5  F: -944.7752696894903011  |grad|_K:  1.351e-03  alpha:  1.167e-01  linmin:  3.267e-02  cgtest:  6.009e-01  t[s]:    366.04
	FillingsUpdate:  mu: +0.651805191  nElectrons: 198.000000
LCAOMinimize: Iter:   6  F: -944.8291562103108845  |grad|_K:  7.750e-04  alpha:  2.013e-02  linmin: -3.784e-02  cgtest:  7.973e-01  t[s]:    413.70
LCAOMinimize: Encountered beta<0, resetting CG.
	FillingsUpdate:  mu: +0.664703681  nElectrons: 198.000000
LCAOMinimize: Iter:   7  F: -944.8780032402626148  |grad|_K:  4.558e-04  alpha:  5.250e-02  linmin: -1.442e-02  cgtest:  4.284e-02  t[s]:    462.11
	FillingsUpdate:  mu: +0.671012672  nElectrons: 198.000000
LCAOMinimize: Iter:   8  F: -944.8975589238757493  |grad|_K:  2.858e-04  alpha:  5.983e-02  linmin: -8.361e-03  cgtest: -6.176e-02  t[s]:    510.96
LCAOMinimize: 	Predicted alpha/alphaT>3.000000, increasing alphaT to 1.794807e-01.
	FillingsUpdate:  mu: +0.677940170  nElectrons: 198.000000
LCAOMinimize: Iter:   9  F: -944.9259583020423179  |grad|_K:  3.553e-04  alpha:  2.255e-01  linmin:  5.138e-03  cgtest: -9.696e-02  t[s]:    572.21
	FillingsUpdate:  mu: +0.683157440  nElectrons: 198.000000
LCAOMinimize: Iter:  10  F: -944.9438174896741884  |grad|_K:  3.217e-04  alpha:  8.999e-02  linmin: -4.824e-03  cgtest:  2.145e-01  t[s]:    621.19
	FillingsUpdate:  mu: +0.685999222  nElectrons: 198.000000
LCAOMinimize: Iter:  11  F: -944.9522388712699694  |grad|_K:  1.208e-04  alpha:  4.885e-02  linmin: -5.677e-03  cgtest: -1.081e-01  t[s]:    669.27
	FillingsUpdate:  mu: +0.686422976  nElectrons: 198.000000
LCAOMinimize: Iter:  12  F: -944.9533422328076995  |grad|_K:  5.777e-05  alpha:  4.828e-02  linmin:  2.728e-03  cgtest:  1.765e-02  t[s]:    717.37
	FillingsUpdate:  mu: +0.686424533  nElectrons: 198.000000
LCAOMinimize: Iter:  13  F: -944.9536960406479693  |grad|_K:  5.587e-05  alpha:  7.000e-02  linmin:  2.255e-04  cgtest:  2.524e-02  t[s]:    765.63
	FillingsUpdate:  mu: +0.686572828  nElectrons: 198.000000
LCAOMinimize: Iter:  14  F: -944.9541170648864181  |grad|_K:  5.011e-05  alpha:  8.858e-02  linmin:  5.172e-05  cgtest: -1.922e-03  t[s]:    813.83
	FillingsUpdate:  mu: +0.687032618  nElectrons: 198.000000
LCAOMinimize: Iter:  15  F: -944.9543753195392810  |grad|_K:  2.397e-05  alpha:  6.751e-02  linmin: -6.508e-05  cgtest:  9.222e-03  t[s]:    861.79
	FillingsUpdate:  mu: +0.687061894  nElectrons: 198.000000
LCAOMinimize: Iter:  16  F: -944.9544156927350969  |grad|_K:  1.238e-05  alpha:  4.612e-02  linmin: -2.172e-05  cgtest: -3.609e-03  t[s]:    910.18
	FillingsUpdate:  mu: +0.687076071  nElectrons: 198.000000
LCAOMinimize: Iter:  17  F: -944.9544375412290265  |grad|_K:  1.249e-05  alpha:  9.344e-02  linmin: -4.808e-04  cgtest: -1.779e-04  t[s]:    958.15
	FillingsUpdate:  mu: +0.686871990  nElectrons: 198.000000
LCAOMinimize: Iter:  18  F: -944.9544698028353196  |grad|_K:  1.349e-05  alpha:  1.351e-01  linmin: -1.612e-04  cgtest: -5.579e-03  t[s]:   1005.51
	FillingsUpdate:  mu: +0.686748445  nElectrons: 198.000000
LCAOMinimize: Iter:  19  F: -944.9544869971443859  |grad|_K:  7.519e-06  alpha:  6.196e-02  linmin:  1.266e-04  cgtest: -5.129e-03  t[s]:   1053.01
	FillingsUpdate:  mu: +0.686668193  nElectrons: 198.000000
LCAOMinimize: Iter:  20  F: -944.9544915015075048  |grad|_K:  2.229e-06  alpha:  5.230e-02  linmin:  1.038e-04  cgtest:  3.521e-03  t[s]:   1101.31
	FillingsUpdate:  mu: +0.686660624  nElectrons: 198.000000
LCAOMinimize: Iter:  21  F: -944.9544919077745817  |grad|_K:  1.607e-06  alpha:  5.364e-02  linmin:  9.112e-05  cgtest:  1.946e-04  t[s]:   1149.58
	FillingsUpdate:  mu: +0.686635084  nElectrons: 198.000000
LCAOMinimize: Iter:  22  F: -944.9544924351055215  |grad|_K:  2.061e-06  alpha:  1.339e-01  linmin: -3.981e-05  cgtest:  6.550e-04  t[s]:   1196.82
LCAOMinimize: Converged (|Delta F|<1.000000e-06 for 2 iters).


---- Citations for features of the code used in this run ----

   Software package:
      R. Sundararaman, K. Letchworth-Weaver, K.A. Schwarz, D. Gunceler, Y. Ozhabes and T.A. Arias, 'JDFTx: software for joint density-functional theory', SoftwareX 6, 278 (2017)

   gga-PBE exchange-correlation functional:
      J.P. Perdew, K. Burke and M. Ernzerhof, Phys. Rev. Lett. 77, 3865 (1996)

   Pseudopotentials:
      KF Garrity, JW Bennett, KM Rabe and D Vanderbilt, Comput. Mater. Sci. 81, 446 (2014)

   Total energy minimization with Auxiliary Hamiltonian:
      C. Freysoldt, S. Boeck, and J. Neugebauer, Phys. Rev. B 79, 241103(R) (2009)

This list may not be complete. Please suggest additional citations or
report any other bugs at https://github.com/shankar1729/jdftx/issues

Initialization completed successfully at t[s]:   1230.58


--------- Lattice Minimization ---------

-------- Electronic minimization -----------
	FillingsUpdate:  mu: +0.686635084  nElectrons: 198.000000
ElecMinimize: Iter:   0  F: -944.954492435105408  |grad|_K:  2.073e-04  alpha:  1.000e+00
	FillingsUpdate:  mu: +0.539528846  nElectrons: 198.000000
	SubspaceRotationAdjust: set factor to 1
ElecMinimize: Iter:   1  F: -946.929996979735620  |grad|_K:  1.066e-04  alpha:  3.141e-01  linmin:  6.545e-04  t[s]:   1471.03
	FillingsUpdate:  mu: +0.517995938  nElectrons: 198.000000
	SubspaceRotationAdjust: set factor to 1.04
ElecMinimize: Iter:   2  F: -948.111891422418239  |grad|_K:  6.503e-05  alpha:  7.086e-01  linmin: -6.362e-05  t[s]:   1637.23
	FillingsUpdate:  mu: +0.502680702  nElectrons: 198.000000
	SubspaceRotationAdjust: set factor to 0.599
ElecMinimize: Iter:   3  F: -948.219245553381711  |grad|_K:  1.248e-04  alpha:  1.679e-01  linmin:  1.864e-05  t[s]:   1802.93
	FillingsUpdate:  mu: +0.500574759  nElectrons: 198.000000
	SubspaceRotationAdjust: set factor to 0.434
ElecMinimize: Iter:   4  F: -948.387934305704448  |grad|_K:  6.547e-05  alpha:  7.053e-02  linmin: -5.831e-05  t[s]:   1968.36
	FillingsUpdate:  mu: +0.501035800  nElectrons: 198.000000
	SubspaceRotationAdjust: set factor to 0.354
ElecMinimize: Iter:   5  F: -948.509102686069355  |grad|_K:  4.763e-05  alpha:  1.829e-01  linmin: -2.115e-04  t[s]:   2134.06
	FillingsUpdate:  mu: +0.501994296  nElectrons: 198.000000
	SubspaceRotationAdjust: set factor to 0.277
ElecMinimize: Iter:   6  F: -948.559767908808340  |grad|_K:  3.902e-05  alpha:  1.458e-01  linmin: -8.195e-05  t[s]:   2300.59
	FillingsUpdate:  mu: +0.502684168  nElectrons: 198.000000
	SubspaceRotationAdjust: set factor to 0.313
ElecMinimize: Iter:   7  F: -948.612772843049243  |grad|_K:  2.554e-05  alpha:  2.291e-01  linmin:  1.220e-04  t[s]:   2467.19
	FillingsUpdate:  mu: +0.499381908  nElectrons: 198.000000
	SubspaceRotationAdjust: set factor to 0.257
ElecMinimize: Iter:   8  F: -948.647734537572433  |grad|_K:  2.736e-05  alpha:  3.570e-01  linmin:  4.434e-04  t[s]:   2630.75
	FillingsUpdate:  mu: +0.497769360  nElectrons: 198.000000
	SubspaceRotationAdjust: set factor to 0.217
ElecMinimize: Iter:   9  F: -948.668082132618565  |grad|_K:  1.996e-05  alpha:  1.818e-01  linmin:  6.061e-05  t[s]:   2796.20
	FillingsUpdate:  mu: +0.495080032  nElectrons: 198.000000
	SubspaceRotationAdjust: set factor to 0.291
ElecMinimize: Iter:  10  F: -948.688434538595288  |grad|_K:  1.664e-05  alpha:  3.442e-01  linmin:  3.789e-04  t[s]:   2961.35
	FillingsUpdate:  mu: +0.495252078  nElectrons: 198.000000
	SubspaceRotationAdjust: set factor to 0.258
ElecMinimize: Iter:  11  F: -948.697492593655056  |grad|_K:  1.397e-05  alpha:  2.240e-01  linmin:  3.400e-05  t[s]:   3125.92
	FillingsUpdate:  mu: +0.495065459  nElectrons: 198.000000
	SubspaceRotationAdjust: set factor to 0.324
ElecMinimize: Iter:  12  F: -948.706762709440000  |grad|_K:  1.110e-05  alpha:  3.175e-01  linmin:  1.380e-04  t[s]:   3290.81
	FillingsUpdate:  mu: +0.494424896  nElectrons: 198.000000
	SubspaceRotationAdjust: set factor to 0.314
ElecMinimize: Iter:  13  F: -948.712257850296510  |grad|_K:  1.156e-05  alpha:  3.016e-01  linmin:  6.210e-05  t[s]:   3454.73
	FillingsUpdate:  mu: +0.494576001  nElectrons: 198.000000
	SubspaceRotationAdjust: set factor to 0.299
ElecMinimize: Iter:  14  F: -948.716150856132344  |grad|_K:  7.832e-06  alpha:  1.935e-01  linmin:  7.130e-06  t[s]:   3622.16
	FillingsUpdate:  mu: +0.494258605  nElectrons: 198.000000
	SubspaceRotationAdjust: set factor to 0.361
ElecMinimize: Iter:  15  F: -948.719185948388940  |grad|_K:  7.226e-06  alpha:  3.302e-01  linmin:  1.082e-04  t[s]:   3786.78
	FillingsUpdate:  mu: +0.493873693  nElectrons: 198.000000
	SubspaceRotationAdjust: set factor to 0.336
ElecMinimize: Iter:  16  F: -948.720943074635443  |grad|_K:  6.805e-06  alpha:  2.249e-01  linmin:  1.350e-05  t[s]:   3951.27
	FillingsUpdate:  mu: +0.494002893  nElectrons: 198.000000
	SubspaceRotationAdjust: set factor to 0.395
ElecMinimize: Iter:  17  F: -948.722513490990650  |grad|_K:  4.971e-06  alpha:  2.251e-01  linmin:  1.292e-04  t[s]:   4114.43
	FillingsUpdate:  mu: +0.494285785  nElectrons: 198.000000
	SubspaceRotationAdjust: set factor to 0.358
ElecMinimize: Iter:  18  F: -948.723647773594735  |grad|_K:  5.090e-06  alpha:  3.109e-01  linmin:  2.583e-04  t[s]:   4278.16
	FillingsUpdate:  mu: +0.494416924  nElectrons: 198.000000
	SubspaceRotationAdjust: set factor to 0.381
ElecMinimize: Iter:  19  F: -948.724259993425335  |grad|_K:  4.137e-06  alpha:  1.578e-01  linmin: -6.519e-05  t[s]:   4442.41
	FillingsUpdate:  mu: +0.494660690  nElectrons: 198.000000
	SubspaceRotationAdjust: set factor to 0.418
ElecMinimize: Iter:  20  F: -948.724922162630719  |grad|_K:  3.650e-06  alpha:  2.568e-01  linmin:  4.010e-04  t[s]:   4613.49
	FillingsUpdate:  mu: +0.494856568  nElectrons: 198.000000
	SubspaceRotationAdjust: set factor to 0.332
ElecMinimize: Iter:  21  F: -948.725329356731208  |grad|_K:  3.835e-06  alpha:  2.062e-01  linmin:  1.282e-04  t[s]:   4780.86
	FillingsUpdate:  mu: +0.494899611  nElectrons: 198.000000
	SubspaceRotationAdjust: set factor to 0.436
ElecMinimize: Iter:  22  F: -948.725676205110744  |grad|_K:  2.737e-06  alpha:  1.569e-01  linmin:  7.149e-05  t[s]:   4946.83
	FillingsUpdate:  mu: +0.494966089  nElectrons: 198.000000
	SubspaceRotationAdjust: set factor to 0.363
ElecMinimize: Iter:  23  F: -948.725965729327299  |grad|_K:  3.052e-06  alpha:  2.580e-01  linmin:  7.360e-05  t[s]:   5111.82
	FillingsUpdate:  mu: +0.495131013  nElectrons: 198.000000
	SubspaceRotationAdjust: set factor to 0.414
ElecMinimize: Iter:  24  F: -948.726162876957119  |grad|_K:  2.559e-06  alpha:  1.415e-01  linmin:  1.494e-05  t[s]:   5277.22
	FillingsUpdate:  mu: +0.495221809  nElectrons: 198.000000
	SubspaceRotationAdjust: set factor to 0.401
ElecMinimize: Iter:  25  F: -948.726384797084393  |grad|_K:  2.277e-06  alpha:  2.241e-01  linmin: -5.038e-05  t[s]:   5443.92
	FillingsUpdate:  mu: +0.495175294  nElectrons: 198.000000
	SubspaceRotationAdjust: set factor to 0.396
ElecMinimize: Iter:  26  F: -948.726495507220534  |grad|_K:  2.122e-06  alpha:  1.410e-01  linmin:  1.116e-05  t[s]:   5612.50
	FillingsUpdate:  mu: +0.495163795  nElectrons: 198.000000
	SubspaceRotationAdjust: set factor to 0.504
ElecMinimize: Iter:  27  F: -948.726646587399159  |grad|_K:  1.925e-06  alpha:  2.211e-01  linmin: -9.516e-05  t[s]:   5776.31
	FillingsUpdate:  mu: +0.495172919  nElectrons: 198.000000
	SubspaceRotationAdjust: set factor to 0.43
ElecMinimize: Iter:  28  F: -948.726744775563702  |grad|_K:  2.027e-06  alpha:  1.737e-01  linmin: -1.766e-05  t[s]:   5941.88
	FillingsUpdate:  mu: +0.495088284  nElectrons: 198.000000
	SubspaceRotationAdjust: set factor to 0.504
ElecMinimize: Iter:  29  F: -948.726831563490691  |grad|_K:  1.433e-06  alpha:  1.401e-01  linmin: -2.347e-05  t[s]:   6107.05
	FillingsUpdate:  mu: +0.495028465  nElectrons: 198.000000
	SubspaceRotationAdjust: set factor to 0.43
ElecMinimize: Iter:  30  F: -948.726914399460952  |grad|_K:  1.568e-06  alpha:  2.647e-01  linmin: -1.286e-04  t[s]:   6274.87
	FillingsUpdate:  mu: +0.495051963  nElectrons: 198.000000
	SubspaceRotationAdjust: set factor to 0.39
ElecMinimize: Iter:  31  F: -948.726960205903993  |grad|_K:  1.288e-06  alpha:  1.225e-01  linmin:  4.373e-05  t[s]:   6442.55
	FillingsUpdate:  mu: +0.495014353  nElectrons: 198.000000
	SubspaceRotationAdjust: set factor to 0.47
ElecMinimize: Iter:  32  F: -948.727021059251570  |grad|_K:  1.111e-06  alpha:  2.438e-01  linmin:  1.203e-05  t[s]:   6610.04
	FillingsUpdate:  mu: +0.494953695  nElectrons: 198.000000
	SubspaceRotationAdjust: set factor to 0.427
ElecMinimize: Iter:  33  F: -948.727054412013217  |grad|_K:  1.132e-06  alpha:  1.793e-01  linmin:  1.536e-05  t[s]:   6780.11
	FillingsUpdate:  mu: +0.494941738  nElectrons: 198.000000
	SubspaceRotationAdjust: set factor to 0.482
ElecMinimize: Iter:  34  F: -948.727084664668951  |grad|_K:  8.344e-07  alpha:  1.565e-01  linmin:  1.761e-05  t[s]:   6947.87
	FillingsUpdate:  mu: +0.494948892  nElectrons: 198.000000
	SubspaceRotationAdjust: set factor to 0.452
ElecMinimize: Iter:  35  F: -948.727111972828084  |grad|_K:  8.688e-07  alpha:  2.605e-01  linmin:  2.136e-05  t[s]:   7116.77
	FillingsUpdate:  mu: +0.494936020  nElectrons: 198.000000
	SubspaceRotationAdjust: set factor to 0.409
ElecMinimize: Iter:  36  F: -948.727126831260080  |grad|_K:  7.611e-07  alpha:  1.307e-01  linmin:  7.818e-07  t[s]:   7283.33
	FillingsUpdate:  mu: +0.494953776  nElectrons: 198.000000
	SubspaceRotationAdjust: set factor to 0.517
ElecMinimize: Iter:  37  F: -948.727147523109352  |grad|_K:  6.232e-07  alpha:  2.370e-01  linmin:  2.526e-05  t[s]:   7449.76
	FillingsUpdate:  mu: +0.494958392  nElectrons: 198.000000
	SubspaceRotationAdjust: set factor to 0.441
ElecMinimize: Iter:  38  F: -948.727157660314447  |grad|_K:  6.520e-07  alpha:  1.734e-01  linmin:  4.330e-06  t[s]:   7617.65
	FillingsUpdate:  mu: +0.494929995  nElectrons: 198.000000
	SubspaceRotationAdjust: set factor to 0.504
ElecMinimize: Iter:  39  F: -948.727167330132829  |grad|_K:  4.935e-07  alpha:  1.507e-01  linmin:  9.552e-06  t[s]:   7783.91
	FillingsUpdate:  mu: +0.494929882  nElectrons: 198.000000
	SubspaceRotationAdjust: set factor to 0.537
ElecMinimize: Iter:  40  F: -948.727176731850818  |grad|_K:  4.893e-07  alpha:  2.564e-01  linmin:  2.990e-05  t[s]:   7949.66
	FillingsUpdate:  mu: +0.494962395  nElectrons: 198.000000
	SubspaceRotationAdjust: set factor to 0.462
ElecMinimize: Iter:  41  F: -948.727181933594352  |grad|_K:  4.867e-07  alpha:  1.443e-01  linmin: -1.812e-06  t[s]:   8116.56
	FillingsUpdate:  mu: +0.494989977  nElectrons: 198.000000
	SubspaceRotationAdjust: set factor to 0.618
ElecMinimize: Iter:  42  F: -948.727187778421012  |grad|_K:  3.257e-07  alpha:  1.635e-01  linmin:  1.656e-05  t[s]:   8284.40
	FillingsUpdate:  mu: +0.494997873  nElectrons: 198.000000
	SubspaceRotationAdjust: set factor to 0.478
ElecMinimize: Iter:  43  F: -948.727191728757248  |grad|_K:  3.940e-07  alpha:  2.472e-01  linmin:  1.194e-05  t[s]:   8453.12
	FillingsUpdate:  mu: +0.495011192  nElectrons: 198.000000
	SubspaceRotationAdjust: set factor to 0.467
ElecMinimize: Iter:  44  F: -948.727194299715620  |grad|_K:  3.134e-07  alpha:  1.098e-01  linmin: -1.077e-06  t[s]:   8621.28
	FillingsUpdate:  mu: +0.495004112  nElectrons: 198.000000
	SubspaceRotationAdjust: set factor to 0.575
ElecMinimize: Iter:  45  F: -948.727197426332509  |grad|_K:  2.615e-07  alpha:  2.109e-01  linmin:  6.151e-06  t[s]:   8792.01
	FillingsUpdate:  mu: +0.494991024  nElectrons: 198.000000
	SubspaceRotationAdjust: set factor to 0.451
ElecMinimize: Iter:  46  F: -948.727199200756900  |grad|_K:  2.911e-07  alpha:  1.721e-01  linmin:  1.485e-06  t[s]:   8961.52
	FillingsUpdate:  mu: +0.494992440  nElectrons: 198.000000
	SubspaceRotationAdjust: set factor to 0.51
ElecMinimize: Iter:  47  F: -948.727200794027908  |grad|_K:  2.063e-07  alpha:  1.246e-01  linmin:  5.807e-07  t[s]:   9133.82
	FillingsUpdate:  mu: +0.494999519  nElectrons: 198.000000
	SubspaceRotationAdjust: set factor to 0.466
ElecMinimize: Iter:  48  F: -948.727202507321522  |grad|_K:  2.200e-07  alpha:  2.666e-01  linmin: -1.907e-06  t[s]:   9303.97
	FillingsUpdate:  mu: +0.494996262  nElectrons: 198.000000
	SubspaceRotationAdjust: set factor to 0.42
ElecMinimize: Iter:  49  F: -948.727203333818693  |grad|_K:  1.786e-07  alpha:  1.131e-01  linmin:  2.043e-06  t[s]:   9472.64
	FillingsUpdate:  mu: +0.494995490  nElectrons: 198.000000
	SubspaceRotationAdjust: set factor to 0.512
ElecMinimize: Iter:  50  F: -948.727204427024958  |grad|_K:  1.551e-07  alpha:  2.272e-01  linmin: -1.582e-06  t[s]:   9639.08
	FillingsUpdate:  mu: +0.494995013  nElectrons: 198.000000
	SubspaceRotationAdjust: set factor to 0.477
ElecMinimize: Iter:  51  F: -948.727205019764597  |grad|_K:  1.575e-07  alpha:  1.633e-01  linmin:  5.864e-07  t[s]:   9807.07
	FillingsUpdate:  mu: +0.494986220  nElectrons: 198.000000
	SubspaceRotationAdjust: set factor to 0.528
ElecMinimize: Iter:  52  F: -948.727205586413561  |grad|_K:  1.226e-07  alpha:  1.514e-01  linmin: -3.035e-07  t[s]:   9974.70
	FillingsUpdate:  mu: +0.494981990  nElectrons: 198.000000
	SubspaceRotationAdjust: set factor to 0.538
ElecMinimize: Iter:  53  F: -948.727206142550813  |grad|_K:  1.229e-07  alpha:  2.449e-01  linmin: -1.548e-06  t[s]:  10143.22
	FillingsUpdate:  mu: +0.494984390  nElectrons: 198.000000
	SubspaceRotationAdjust: set factor to 0.473
ElecMinimize: Iter:  54  F: -948.727206409413498  |grad|_K:  1.077e-07  alpha:  1.170e-01  linmin:  8.439e-07  t[s]:  10312.43
	FillingsUpdate:  mu: +0.494981952  nElectrons: 198.000000
	SubspaceRotationAdjust: set factor to 0.674
ElecMinimize: Iter:  55  F: -948.727206775678383  |grad|_K:  8.557e-08  alpha:  2.093e-01  linmin:  9.058e-07  t[s]:  10482.09
	FillingsUpdate:  mu: +0.494978052  nElectrons: 198.000000
	SubspaceRotationAdjust: set factor to 0.52
ElecMinimize: Iter:  56  F: -948.727207003222816  |grad|_K:  1.055e-07  alpha:  2.060e-01  linmin:  1.080e-06  t[s]:  10646.76
	FillingsUpdate:  mu: +0.494979679  nElectrons: 198.000000
	SubspaceRotationAdjust: set factor to 0.496
ElecMinimize: Iter:  57  F: -948.727207177854211  |grad|_K:  7.699e-08  alpha:  1.039e-01  linmin: -4.665e-07  t[s]:  10814.49
	FillingsUpdate:  mu: +0.494980702  nElectrons: 198.000000
	SubspaceRotationAdjust: set factor to 0.653
ElecMinimize: Iter:  58  F: -948.727207365453751  |grad|_K:  6.259e-08  alpha:  2.098e-01  linmin:  4.506e-06  t[s]:  10982.97
	FillingsUpdate:  mu: +0.494979963  nElectrons: 198.000000
	SubspaceRotationAdjust: set factor to 0.507
ElecMinimize: Iter:  59  F: -948.727207470405119  |grad|_K:  7.656e-08  alpha:  1.776e-01  linmin:  1.617e-06  t[s]:  11154.65
	FillingsUpdate:  mu: +0.494982582  nElectrons: 198.000000
	SubspaceRotationAdjust: set factor to 0.525
ElecMinimize: Iter:  60  F: -948.727207576902970  |grad|_K:  5.294e-08  alpha:  1.205e-01  linmin: -5.629e-07  t[s]:  11322.86
	FillingsUpdate:  mu: +0.494984021  nElectrons: 198.000000
	SubspaceRotationAdjust: set factor to 0.599
ElecMinimize: Iter:  61  F: -948.727207683215624  |grad|_K:  4.789e-08  alpha:  2.518e-01  linmin:  8.431e-06  t[s]:  11492.90
	FillingsUpdate:  mu: +0.494983386  nElectrons: 198.000000
	SubspaceRotationAdjust: set factor to 0.536
ElecMinimize: Iter:  62  F: -948.727207731666113  |grad|_K:  4.854e-08  alpha:  1.400e-01  linmin:  5.445e-07  t[s]:  11660.08
	FillingsUpdate:  mu: +0.494984964  nElectrons: 198.000000
	SubspaceRotationAdjust: set factor to 0.588
ElecMinimize: Iter:  63  F: -948.727207787022962  |grad|_K:  3.765e-08  alpha:  1.556e-01  linmin: -5.487e-06  t[s]:  11825.62
	FillingsUpdate:  mu: +0.494985515  nElectrons: 198.000000
	SubspaceRotationAdjust: set factor to 0.715
ElecMinimize: Iter:  64  F: -948.727207838073241  |grad|_K:  3.359e-08  alpha:  2.383e-01  linmin:  4.542e-06  t[s]:  11993.98
	FillingsUpdate:  mu: +0.494985229  nElectrons: 198.000000
	SubspaceRotationAdjust: set factor to 0.546
ElecMinimize: Iter:  65  F: -948.727207865937316  |grad|_K:  3.936e-08  alpha:  1.638e-01  linmin:  6.670e-08  t[s]:  12166.61
	FillingsUpdate:  mu: +0.494986633  nElectrons: 198.000000
	SubspaceRotationAdjust: set factor to 0.521
ElecMinimize: Iter:  66  F: -948.727207891273110  |grad|_K:  2.696e-08  alpha:  1.083e-01  linmin: -2.684e-06  t[s]:  12336.02
	FillingsUpdate:  mu: +0.494986748  nElectrons: 198.000000
	SubspaceRotationAdjust: set factor to 0.669
ElecMinimize: Iter:  67  F: -948.727207919453122  |grad|_K:  2.398e-08  alpha:  2.551e-01  linmin: -1.025e-05  t[s]:  12505.03
	FillingsUpdate:  mu: +0.494985932  nElectrons: 198.000000
	SubspaceRotationAdjust: set factor to 0.555
ElecMinimize: Iter:  68  F: -948.727207935494675  |grad|_K:  2.640e-08  alpha:  1.840e-01  linmin: -6.400e-06  t[s]:  12671.09
	FillingsUpdate:  mu: +0.494986277  nElectrons: 198.000000
	SubspaceRotationAdjust: set factor to 0.497
ElecMinimize: Iter:  69  F: -948.727207947016041  |grad|_K:  2.036e-08  alpha:  1.093e-01  linmin: -2.141e-06  t[s]:  12837.25
	FillingsUpdate:  mu: +0.494985975  nElectrons: 198.000000
	SubspaceRotationAdjust: set factor to 0.654
ElecMinimize: Iter:  70  F: -948.727207961354111  |grad|_K:  1.656e-08  alpha:  2.275e-01  linmin: -1.258e-05  t[s]:  13004.51
	FillingsUpdate:  mu: +0.494985110  nElectrons: 198.000000
	SubspaceRotationAdjust: set factor to 0.528
ElecMinimize: Iter:  71  F: -948.727207970413360  |grad|_K:  1.931e-08  alpha:  2.172e-01  linmin:  1.006e-05  t[s]:  13172.42
	FillingsUpdate:  mu: +0.494985029  nElectrons: 198.000000
	SubspaceRotationAdjust: set factor to 0.468
ElecMinimize: Iter:  72  F: -948.727207976051659  |grad|_K:  1.415e-08  alpha:  1.010e-01  linmin: -1.190e-06  t[s]:  13335.51
ElecMinimize: Converged (|Delta F|<1.000000e-08 for 2 iters).
Setting wave functions to eigenvectors of Hamiltonian
# Lattice vectors:
R = 
[      11.1494     -5.57469            0  ]
[            0      9.65565            0  ]
[            0            0      17.6878  ]
unit cell volume = 1904.18

# Strain tensor in Cartesian coordinates:
[            0            0            0  ]
[            0            0            0  ]
[            0            0            0  ]

# Stress tensor in Cartesian coordinates [Eh/a0^3]:
[  -0.00100304 -0.000672275   1.0094e-05  ]
[ -0.000672275 -0.000619712  6.27172e-06  ]
[   1.0094e-05  6.27172e-06 -0.000131102  ]

# Ionic positions in cartesian coordinates:
ion Ti   0.000000000000000   0.000000000000000   0.000000000000000 1
ion Ti   0.000000000000000   3.218550000000000   4.421959000000000 1
ion Ti   0.000000000000000   0.000000000000000   8.843918000000000 1
ion Ti   0.000000000000000   3.218550000000000  13.265877000000000 1
ion Ti  -2.787346000000000   4.827825000000000   0.000000000000000 1
ion Ti  -2.787346000000000   8.046374999999999   4.421959000000000 1
ion Ti  -2.787346000000000   4.827825000000000   8.843918000000000 1
ion Ti  -2.787346000000000   8.046374999999999  13.265877000000000 1
ion Ti   5.574692000000000   0.000000000000000   0.000000000000000 1
ion Ti   5.574692000000000   3.218550000000000   4.421959000000000 1
ion Ti   5.574692000000000   0.000000000000000   8.843918000000000 1
ion Ti   5.574692000000000   3.218550000000000  13.265877000000000 1
ion Ti   2.787346000000000   4.827825000000000   0.000000000000000 1
ion Ti   2.787346000000000   8.046374999999999   4.421959000000000 1
ion Ti   2.787346000000000   4.827825000000000   8.843918000000000 1
ion Ti   2.787346000000000   8.046374999999999  13.265877000000000 1
ion O   3.735358999999999   1.877128000000000   4.440856000000000 1

# Forces in Cartesian coordinates:
force Ti  -0.007641452860332  -0.004279968731795  -0.008723215299377 1
force Ti  -0.001948746661108  -0.002398268096204  -0.000075991839499 1
force Ti  -0.008007914327981  -0.004457645735971   0.008979346683309 1
force Ti   0.000834785769127   0.000835204702689   0.000020990490991 1
force Ti   0.001694873731623   0.001343060270988  -0.005485825395590 1
force Ti  -0.013119733896125  -0.033829257605314  -0.000501196687569 1
force Ti   0.001812584336431   0.001482588977586   0.005262244178833 1
force Ti   0.001410281649105   0.000257890005152   0.000020270508608 1
force Ti   0.003937741515632  -0.005727159458742  -0.016142518389248 1
force Ti   0.966493318869412   0.703137763899728  -0.010484366612849 1
force Ti   0.003942733467471  -0.005803138419169   0.016190656664312 1
force Ti   0.000286793961865  -0.000928621738981  -0.000033456656523 1
force Ti  -0.003032190700348   0.007354204243421  -0.014780276594162 1
force Ti   0.013214978341300   0.000925960151912  -0.000232399219797 1
force Ti  -0.003152917531992   0.007592054468822   0.014955180725225 1
force Ti  -0.000000529002235   0.000203968436006  -0.000067247375293 1
force O  -0.956729472519722  -0.665716444684163   0.011080007447720 1

# Energy components:
   Eewald =     -684.4314894011090473
       EH =      206.3215701159169271
     Eloc =     -643.9241368555649387
      Enl =       90.3017012252138613
      Exc =     -148.4679443226698936
 Exc_core =       21.0162150172890989
       KE =      210.4866071393001334
-------------------------------------
     Etot =     -948.6974770816236742
       TS =        0.0297308944280164
-------------------------------------
        F =     -948.7272079760516590

LatticeMinimize: Iter:   0  F: -948.727207976051659  |grad|_K:  1.687e+00  t[s]:  13424.96

#--- Lowdin population analysis ---
# oxidation-state Ti +0.348 +0.353 +0.348 +0.345 +0.351 +0.362 +0.352 +0.347 +0.339 +0.118 +0.339 +0.351 +0.338 +0.337 +0.338 +0.356
# oxidation-state O -0.028


-------- Electronic minimization -----------
	FillingsUpdate:  mu: +0.495635317  nElectrons: 198.000000
ElecMinimize: Iter:   0  F: -948.592418220106651  |grad|_K:  6.903e-05  alpha:  1.000e+00
	FillingsUpdate:  mu: +0.493180464  nElectrons: 198.000000
	SubspaceRotationAdjust: set factor to 0.44
ElecMinimize: Iter:   1  F: -948.836239373243188  |grad|_K:  3.598e-05  alpha:  3.580e-01  linmin:  3.109e-03  t[s]:  13786.94
	FillingsUpdate:  mu: +0.494051677  nElectrons: 198.000000
	SubspaceRotationAdjust: set factor to 0.312
ElecMinimize: Iter:   2  F: -948.876932778337732  |grad|_K:  2.385e-05  alpha:  2.185e-01  linmin: -4.264e-05  t[s]:  13957.11
	FillingsUpdate:  mu: +0.493443183  nElectrons: 198.000000
	SubspaceRotationAdjust: set factor to 0.213
ElecMinimize: Iter:   3  F: -948.893646489491857  |grad|_K:  1.644e-05  alpha:  1.944e-01  linmin:  6.948e-05  t[s]:  14127.11
	FillingsUpdate:  mu: +0.494091410  nElectrons: 198.000000
	SubspaceRotationAdjust: set factor to 0.165
ElecMinimize: Iter:   4  F: -948.901083088152518  |grad|_K:  9.576e-06  alpha:  1.826e-01  linmin:  1.900e-05  t[s]:  14296.61
	FillingsUpdate:  mu: +0.494328265  nElectrons: 198.000000
	SubspaceRotationAdjust: set factor to 0.213
ElecMinimize: Iter:   5  F: -948.907224696303501  |grad|_K:  7.510e-06  alpha:  4.444e-01  linmin:  5.111e-05  t[s]:  14467.72
	FillingsUpdate:  mu: +0.493973108  nElectrons: 198.000000
	SubspaceRotationAdjust: set factor to 0.177
ElecMinimize: Iter:   6  F: -948.910267752695063  |grad|_K:  6.665e-06  alpha:  3.579e-01  linmin:  1.758e-05  t[s]:  14637.74
	FillingsUpdate:  mu: +0.494191562  nElectrons: 198.000000
	SubspaceRotationAdjust: set factor to 0.182
ElecMinimize: Iter:   7  F: -948.912550314461669  |grad|_K:  4.384e-06  alpha:  3.407e-01  linmin: -6.119e-06  t[s]:  14805.49
	FillingsUpdate:  mu: +0.494297102  nElectrons: 198.000000
	SubspaceRotationAdjust: set factor to 0.212
ElecMinimize: Iter:   8  F: -948.913888270633606  |grad|_K:  3.191e-06  alpha:  4.613e-01  linmin:  4.408e-05  t[s]:  14970.80
	FillingsUpdate:  mu: +0.494247507  nElectrons: 198.000000
	SubspaceRotationAdjust: set factor to 0.172
ElecMinimize: Iter:   9  F: -948.914437928245206  |grad|_K:  2.628e-06  alpha:  3.583e-01  linmin:  1.291e-05  t[s]:  15137.37
	FillingsUpdate:  mu: +0.494325032  nElectrons: 198.000000
	SubspaceRotationAdjust: set factor to 0.138
ElecMinimize: Iter:  10  F: -948.914762948232237  |grad|_K:  1.720e-06  alpha:  3.119e-01  linmin: -1.236e-05  t[s]:  15301.80
	FillingsUpdate:  mu: +0.494256639  nElectrons: 198.000000
	SubspaceRotationAdjust: set factor to 0.165
ElecMinimize: Iter:  11  F: -948.914947062509100  |grad|_K:  1.090e-06  alpha:  4.119e-01  linmin: -1.745e-06  t[s]:  15467.41
	FillingsUpdate:  mu: +0.494280065  nElectrons: 198.000000
	SubspaceRotationAdjust: set factor to 0.172
ElecMinimize: Iter:  12  F: -948.915025326972795  |grad|_K:  7.918e-07  alpha:  4.363e-01  linmin: -6.339e-06  t[s]:  15633.57
	FillingsUpdate:  mu: +0.494323617  nElectrons: 198.000000
	SubspaceRotationAdjust: set factor to 0.149
ElecMinimize: Iter:  13  F: -948.915059353592710  |grad|_K:  5.931e-07  alpha:  3.595e-01  linmin: -6.890e-06  t[s]:  15799.36
	FillingsUpdate:  mu: +0.494286336  nElectrons: 198.000000
	SubspaceRotationAdjust: set factor to 0.171
ElecMinimize: Iter:  14  F: -948.915082396411890  |grad|_K:  4.309e-07  alpha:  4.339e-01  linmin:  1.893e-06  t[s]:  15963.65
	FillingsUpdate:  mu: +0.494278919  nElectrons: 198.000000
	SubspaceRotationAdjust: set factor to 0.2
ElecMinimize: Iter:  15  F: -948.915097339929730  |grad|_K:  3.729e-07  alpha:  5.332e-01  linmin: -1.030e-05  t[s]:  16132.60
	FillingsUpdate:  mu: +0.494303908  nElectrons: 198.000000
	SubspaceRotationAdjust: set factor to 0.183
ElecMinimize: Iter:  16  F: -948.915106915951583  |grad|_K:  3.321e-07  alpha:  4.559e-01  linmin: -1.201e-06  t[s]:  16298.07
	FillingsUpdate:  mu: +0.494288660  nElectrons: 198.000000
	SubspaceRotationAdjust: set factor to 0.147
ElecMinimize: Iter:  17  F: -948.915112576731758  |grad|_K:  2.453e-07  alpha:  3.399e-01  linmin:  3.171e-06  t[s]:  16467.27
	FillingsUpdate:  mu: +0.494285445  nElectrons: 198.000000
	SubspaceRotationAdjust: set factor to 0.15
ElecMinimize: Iter:  18  F: -948.915116608833841  |grad|_K:  1.629e-07  alpha:  4.439e-01  linmin:  3.952e-06  t[s]:  16632.47
	FillingsUpdate:  mu: +0.494295655  nElectrons: 198.000000
	SubspaceRotationAdjust: set factor to 0.163
ElecMinimize: Iter:  19  F: -948.915118218738485  |grad|_K:  1.051e-07  alpha:  4.021e-01  linmin:  3.582e-07  t[s]:  16798.27
	FillingsUpdate:  mu: +0.494294782  nElectrons: 198.000000
	SubspaceRotationAdjust: set factor to 0.143
ElecMinimize: Iter:  20  F: -948.915118933728422  |grad|_K:  7.785e-08  alpha:  4.287e-01  linmin:  4.306e-06  t[s]:  16965.12
	FillingsUpdate:  mu: +0.494294384  nElectrons: 198.000000
	SubspaceRotationAdjust: set factor to 0.136
ElecMinimize: Iter:  21  F: -948.915119256070284  |grad|_K:  4.930e-08  alpha:  3.524e-01  linmin: -6.219e-07  t[s]:  17130.61
	FillingsUpdate:  mu: +0.494293635  nElectrons: 198.000000
	SubspaceRotationAdjust: set factor to 0.166
ElecMinimize: Iter:  22  F: -948.915119442694277  |grad|_K:  3.730e-08  alpha:  5.086e-01  linmin: -7.990e-06  t[s]:  17296.81
	FillingsUpdate:  mu: +0.494295058  nElectrons: 198.000000
	SubspaceRotationAdjust: set factor to 0.18
ElecMinimize: Iter:  23  F: -948.915119539614579  |grad|_K:  2.874e-08  alpha:  4.609e-01  linmin: -1.653e-06  t[s]:  17461.84
	FillingsUpdate:  mu: +0.494295627  nElectrons: 198.000000
	SubspaceRotationAdjust: set factor to 0.169
ElecMinimize: Iter:  24  F: -948.915119596662748  |grad|_K:  2.521e-08  alpha:  4.570e-01  linmin: -8.002e-06  t[s]:  17626.11
	FillingsUpdate:  mu: +0.494294066  nElectrons: 198.000000
	SubspaceRotationAdjust: set factor to 0.155
ElecMinimize: Iter:  25  F: -948.915119633952258  |grad|_K:  1.788e-08  alpha:  3.884e-01  linmin: -1.764e-06  t[s]:  17791.40
	FillingsUpdate:  mu: +0.494294890  nElectrons: 198.000000
	SubspaceRotationAdjust: set factor to 0.162
ElecMinimize: Iter:  26  F: -948.915119656998854  |grad|_K:  1.320e-08  alpha:  4.772e-01  linmin:  4.133e-06  t[s]:  17958.60
	FillingsUpdate:  mu: +0.494295061  nElectrons: 198.000000
	SubspaceRotationAdjust: set factor to 0.175
ElecMinimize: Iter:  27  F: -948.915119668386524  |grad|_K:  8.836e-09  alpha:  4.317e-01  linmin: -9.633e-06  t[s]:  18122.64
	FillingsUpdate:  mu: +0.494294431  nElectrons: 198.000000
	SubspaceRotationAdjust: set factor to 0.15
ElecMinimize: Iter:  28  F: -948.915119673208096  |grad|_K:  6.516e-09  alpha:  4.025e-01  linmin: -3.242e-05  t[s]:  18286.22
	FillingsUpdate:  mu: +0.494294712  nElectrons: 198.000000
	SubspaceRotationAdjust: set factor to 0.129
ElecMinimize: Iter:  29  F: -948.915119675584720  |grad|_K:  4.254e-09  alpha:  3.654e-01  linmin: -4.047e-05  t[s]:  18452.00
ElecMinimize: Converged (|Delta F|<1.000000e-08 for 2 iters).
Setting wave functions to eigenvectors of Hamiltonian
# Lattice vectors:
R = 
[       11.161     -5.57376 -0.000185147  ]
[   0.00777275      9.65797 -0.000115037  ]
[ -0.000116706 -4.44504e-06      17.6902  ]
unit cell volume = 1907.64

# Strain tensor in Cartesian coordinates:
[   0.00104015  0.000697146 -1.04675e-05  ]
[  0.000697146  0.000642638 -6.50374e-06  ]
[ -1.04675e-05 -6.50374e-06  0.000135952  ]

# Stress tensor in Cartesian coordinates [Eh/a0^3]:
[ -0.000695211 -0.000456625  6.80849e-06  ]
[ -0.000456625 -0.000451574   3.9296e-06  ]
[  6.80849e-06   3.9296e-06 -0.000109942  ]

# Ionic positions in cartesian coordinates:
ion Ti  -0.000640201225583  -0.000358713987553  -0.000729825942673 1
ion Ti   0.002034185810829   3.220388749938479   4.422532972201138 1
ion Ti  -0.000763492067947  -0.000431138360132   8.845871797395871 1
ion Ti   0.002174926097000   3.220602094379417  13.267661428863276 1
ion Ti  -2.786737499065657   4.829096937080903  -0.000461168306072 1
ion Ti  -2.785782788579123   8.046741109144593   4.422495197184645 1
ion Ti  -2.786820215173206   4.829051100640785   8.845558531285556 1
ion Ti  -2.784656463365659   8.049538154272925  13.267659145908519 1
ion Ti   5.580820001008639   0.003407182479463  -0.001409004693439 1
ion Ti   5.663674338261826   3.283397859459951   4.421602457630549 1
ion Ti   5.580727813070505   0.003343285794090   8.846416847431630 1
ion Ti   5.582619433238976   3.224340771315239  13.267598521578170 1
ion Ti   2.793357466004549   4.833486282243483  -0.001297241470143 1
ion Ti   2.796915315401823   8.053538664497555   4.422459294257694 1
ion Ti   2.793254769507735   4.833448652870427   8.846311244322402 1
ion Ti   2.795715881155367   8.053419931152334  13.267593471226226 1
ion O   3.660340119957175   1.825121133379608   4.442336850804867 1

# Forces in Cartesian coordinates:
force Ti  -0.009179684048545  -0.005106449085165  -0.008955158018249 1
force Ti   0.000399250021501  -0.001387260241357  -0.000157845498076 1
force Ti  -0.009558065711243  -0.005286429604500   0.009191698194680 1
force Ti   0.001695738517985   0.000759213465992   0.000024041185660 1
force Ti   0.002653949620330   0.001584093847042  -0.005542888236304 1
force Ti  -0.012017473085726  -0.036183797688019  -0.000583341657877 1
force Ti   0.002802835956747   0.001730065604092   0.005274698400986 1
force Ti   0.001889419204874   0.001174325109514   0.000020858553222 1
force Ti   0.003340220380134  -0.003987331806299  -0.013349054130911 1
force Ti   0.591304480979407   0.431056363533654  -0.006615372505003 1
force Ti   0.003345633250999  -0.004015223151437   0.013279109142921 1
force Ti  -0.000899527156104  -0.001510471057991  -0.000068129092033 1
force Ti  -0.002174053569942   0.006433407988213  -0.012805239409459 1
force Ti   0.013963520054892   0.001117521606901  -0.000272481521813 1
force Ti  -0.002279414265933   0.006604948710985   0.012859431179548 1
force Ti   0.000213211918861   0.000240000237803  -0.000063587235489 1
force O  -0.585353627416413  -0.393215019131626   0.007774391305770 1

# Energy components:
   Eewald =     -685.9536376619112161
       EH =      204.9738312133545151
     Eloc =     -640.7776470585141624
      Enl =       90.0931859675138043
      Exc =     -148.3362532041613804
 Exc_core =       21.0162178090498237
       KE =      210.0996003773034886
-------------------------------------
     Etot =     -948.8847025573652445
       TS =        0.0304171182194716
-------------------------------------
        F =     -948.9151196755847195

LatticeMinimize: Iter:   1  F: -948.915119675584720  |grad|_K:  1.031e+00  alpha:  8.366e-02  linmin: -4.606e-01  t[s]:  18538.86

#--- Lowdin population analysis ---
# oxidation-state Ti +0.349 +0.366 +0.349 +0.347 +0.350 +0.379 +0.351 +0.349 +0.348 +0.229 +0.349 +0.353 +0.345 +0.339 +0.345 +0.360
# oxidation-state O -0.244


-------- Electronic minimization -----------
	FillingsUpdate:  mu: +0.494313021  nElectrons: 198.000000
ElecMinimize: Iter:   0  F: -948.713688341084776  |grad|_K:  6.370e-05  alpha:  1.000e+00
	FillingsUpdate:  mu: +0.493493661  nElectrons: 198.000000
	SubspaceRotationAdjust: set factor to 0.144
ElecMinimize: Iter:   1  F: -948.942608690338034  |grad|_K:  2.701e-05  alpha:  3.902e-01  linmin:  7.450e-03  t[s]:  18897.96
	FillingsUpdate:  mu: +0.493419034  nElectrons: 198.000000
	SubspaceRotationAdjust: set factor to 0.177
ElecMinimize: Iter:   2  F: -948.979801484333507  |grad|_K:  1.126e-05  alpha:  3.510e-01  linmin: -4.346e-04  t[s]:  19064.02
	FillingsUpdate:  mu: +0.493242273  nElectrons: 198.000000
	SubspaceRotationAdjust: set factor to 0.227
ElecMinimize: Iter:   3  F: -948.993102612599046  |grad|_K:  1.070e-05  alpha:  6.942e-01  linmin:  3.242e-05  t[s]:  19230.15
	FillingsUpdate:  mu: +0.492966402  nElectrons: 198.000000
	SubspaceRotationAdjust: set factor to 0.262
ElecMinimize: Iter:   4  F: -949.008373391630926  |grad|_K:  1.295e-05  alpha:  8.842e-01  linmin: -3.281e-05  t[s]:  19398.06
	FillingsUpdate:  mu: +0.492440749  nElectrons: 198.000000
	SubspaceRotationAdjust: set factor to 0.238
ElecMinimize: Iter:   5  F: -949.019761107201361  |grad|_K:  1.095e-05  alpha:  4.371e-01  linmin: -2.054e-04  t[s]:  19563.85
	FillingsUpdate:  mu: +0.492911512  nElectrons: 198.000000
	SubspaceRotationAdjust: set factor to 0.155
ElecMinimize: Iter:   6  F: -949.024370846914053  |grad|_K:  8.078e-06  alpha:  2.519e-01  linmin:  1.060e-05  t[s]:  19729.37
	FillingsUpdate:  mu: +0.492930171  nElectrons: 198.000000
	SubspaceRotationAdjust: set factor to 0.153
ElecMinimize: Iter:   7  F: -949.027307835738952  |grad|_K:  3.868e-06  alpha:  2.985e-01  linmin:  3.453e-05  t[s]:  19896.67
	FillingsUpdate:  mu: +0.492901787  nElectrons: 198.000000
	SubspaceRotationAdjust: set factor to 0.162
ElecMinimize: Iter:   8  F: -949.028394428906608  |grad|_K:  2.576e-06  alpha:  4.816e-01  linmin: -3.747e-05  t[s]:  20063.32
	FillingsUpdate:  mu: +0.493005829  nElectrons: 198.000000
	SubspaceRotationAdjust: set factor to 0.142
ElecMinimize: Iter:   9  F: -949.028759983566260  |grad|_K:  1.872e-06  alpha:  3.648e-01  linmin: -3.753e-05  t[s]:  20226.97
	FillingsUpdate:  mu: +0.492999027  nElectrons: 198.000000
	SubspaceRotationAdjust: set factor to 0.166
ElecMinimize: Iter:  10  F: -949.028978784517335  |grad|_K:  1.245e-06  alpha:  4.135e-01  linmin: -1.954e-05  t[s]:  20391.93
	FillingsUpdate:  mu: +0.493017817  nElectrons: 198.000000
	SubspaceRotationAdjust: set factor to 0.216
ElecMinimize: Iter:  11  F: -949.029102706742833  |grad|_K:  1.030e-06  alpha:  5.292e-01  linmin: -2.022e-05  t[s]:  20558.30
	FillingsUpdate:  mu: +0.493024743  nElectrons: 198.000000
	SubspaceRotationAdjust: set factor to 0.261
ElecMinimize: Iter:  12  F: -949.029183951235382  |grad|_K:  9.305e-07  alpha:  5.067e-01  linmin: -1.123e-05  t[s]:  20725.95
	FillingsUpdate:  mu: +0.492978708  nElectrons: 198.000000
	SubspaceRotationAdjust: set factor to 0.249
ElecMinimize: Iter:  13  F: -949.029241427324109  |grad|_K:  1.020e-06  alpha:  4.395e-01  linmin:  1.112e-07  t[s]:  20890.78
	FillingsUpdate:  mu: +0.492995962  nElectrons: 198.000000
	SubspaceRotationAdjust: set factor to 0.185
ElecMinimize: Iter:  14  F: -949.029284957214600  |grad|_K:  7.086e-07  alpha:  2.774e-01  linmin:  2.466e-07  t[s]:  21059.13
	FillingsUpdate:  mu: +0.492998917  nElectrons: 198.000000
	SubspaceRotationAdjust: set factor to 0.169
ElecMinimize: Iter:  15  F: -949.029312137534248  |grad|_K:  4.970e-07  alpha:  3.587e-01  linmin: -3.263e-07  t[s]:  21224.56
	FillingsUpdate:  mu: +0.493000104  nElectrons: 198.000000
	SubspaceRotationAdjust: set factor to 0.146
ElecMinimize: Iter:  16  F: -949.029326807779512  |grad|_K:  3.733e-07  alpha:  3.935e-01  linmin: -2.112e-07  t[s]:  21392.16
	FillingsUpdate:  mu: +0.493009843  nElectrons: 198.000000
	SubspaceRotationAdjust: set factor to 0.128
ElecMinimize: Iter:  17  F: -949.029334037335047  |grad|_K:  2.379e-07  alpha:  3.438e-01  linmin: -6.153e-06  t[s]:  21559.70
	FillingsUpdate:  mu: +0.493010932  nElectrons: 198.000000
	SubspaceRotationAdjust: set factor to 0.155
ElecMinimize: Iter:  18  F: -949.029337814334212  |grad|_K:  1.764e-07  alpha:  4.422e-01  linmin: -8.658e-06  t[s]:  21727.53
	FillingsUpdate:  mu: +0.493011890  nElectrons: 198.000000
	SubspaceRotationAdjust: set factor to 0.182
ElecMinimize: Iter:  19  F: -949.029339890162646  |grad|_K:  1.296e-07  alpha:  4.417e-01  linmin: -1.784e-05  t[s]:  21894.73
	FillingsUpdate:  mu: +0.493013021  nElectrons: 198.000000
	SubspaceRotationAdjust: set factor to 0.2
ElecMinimize: Iter:  20  F: -949.029341016419608  |grad|_K:  1.202e-07  alpha:  4.437e-01  linmin: -8.423e-06  t[s]:  22063.41
	FillingsUpdate:  mu: +0.493012801  nElectrons: 198.000000
	SubspaceRotationAdjust: set factor to 0.224
ElecMinimize: Iter:  21  F: -949.029341945198780  |grad|_K:  9.509e-08  alpha:  4.260e-01  linmin: -4.055e-06  t[s]:  22228.74
	FillingsUpdate:  mu: +0.493014360  nElectrons: 198.000000
	SubspaceRotationAdjust: set factor to 0.246
ElecMinimize: Iter:  22  F: -949.029342569554501  |grad|_K:  8.403e-08  alpha:  4.574e-01  linmin:  5.146e-07  t[s]:  22392.83
	FillingsUpdate:  mu: +0.493013564  nElectrons: 198.000000
	SubspaceRotationAdjust: set factor to 0.251
ElecMinimize: Iter:  23  F: -949.029343038065690  |grad|_K:  6.692e-08  alpha:  4.396e-01  linmin:  7.221e-07  t[s]:  22564.92
	FillingsUpdate:  mu: +0.493012511  nElectrons: 198.000000
	SubspaceRotationAdjust: set factor to 0.224
ElecMinimize: Iter:  24  F: -949.029343277034400  |grad|_K:  6.317e-08  alpha:  3.537e-01  linmin: -1.802e-07  t[s]:  22731.72
	FillingsUpdate:  mu: +0.493011401  nElectrons: 198.000000
	SubspaceRotationAdjust: set factor to 0.177
ElecMinimize: Iter:  25  F: -949.029343451369527  |grad|_K:  4.878e-08  alpha:  2.894e-01  linmin:  5.267e-07  t[s]:  22895.28
	FillingsUpdate:  mu: +0.493011447  nElectrons: 198.000000
	SubspaceRotationAdjust: set factor to 0.178
ElecMinimize: Iter:  26  F: -949.029343581373837  |grad|_K:  3.428e-08  alpha:  3.619e-01  linmin:  1.932e-06  t[s]:  23059.11
	FillingsUpdate:  mu: +0.493011805  nElectrons: 198.000000
	SubspaceRotationAdjust: set factor to 0.207
ElecMinimize: Iter:  27  F: -949.029343660031486  |grad|_K:  2.543e-08  alpha:  4.441e-01  linmin:  1.542e-06  t[s]:  23225.28
	FillingsUpdate:  mu: +0.493011158  nElectrons: 198.000000
	SubspaceRotationAdjust: set factor to 0.215
ElecMinimize: Iter:  28  F: -949.029343700951699  |grad|_K:  2.168e-08  alpha:  4.194e-01  linmin:  7.672e-06  t[s]:  23390.76
	FillingsUpdate:  mu: +0.493011322  nElectrons: 198.000000
	SubspaceRotationAdjust: set factor to 0.204
ElecMinimize: Iter:  29  F: -949.029343724655178  |grad|_K:  1.754e-08  alpha:  3.341e-01  linmin: -3.438e-06  t[s]:  23555.26
	FillingsUpdate:  mu: +0.493011500  nElectrons: 198.000000
	SubspaceRotationAdjust: set factor to 0.215
ElecMinimize: Iter:  30  F: -949.029343740553941  |grad|_K:  1.344e-08  alpha:  3.429e-01  linmin:  2.895e-06  t[s]:  23720.42
	FillingsUpdate:  mu: +0.493011447  nElectrons: 198.000000
	SubspaceRotationAdjust: set factor to 0.245
ElecMinimize: Iter:  31  F: -949.029343752467071  |grad|_K:  1.093e-08  alpha:  4.388e-01  linmin:  9.420e-06  t[s]:  23886.73
	FillingsUpdate:  mu: +0.493011522  nElectrons: 198.000000
	SubspaceRotationAdjust: set factor to 0.253
ElecMinimize: Iter:  32  F: -949.029343760058282  |grad|_K:  9.982e-09  alpha:  4.269e-01  linmin:  2.404e-05  t[s]:  24051.03
	FillingsUpdate:  mu: +0.493011240  nElectrons: 198.000000
	SubspaceRotationAdjust: set factor to 0.225
ElecMinimize: Iter:  33  F: -949.029343765080739  |grad|_K:  8.182e-09  alpha:  3.346e-01  linmin:  2.399e-06  t[s]:  24214.66
ElecMinimize: Converged (|Delta F|<1.000000e-08 for 2 iters).
Setting wave functions to eigenvectors of Hamiltonian
# Lattice vectors:
R = 
[      11.1766     -5.57289 -0.000419665  ]
[    0.0177725      9.66223  -0.00023778  ]
[ -0.000264523  2.47024e-06      17.6949  ]
unit cell volume = 1912.64

# Strain tensor in Cartesian coordinates:
[   0.00243826   0.00159398 -2.37262e-05  ]
[   0.00159403   0.00160182 -1.34431e-05  ]
[ -2.37253e-05  -1.3442e-05  0.000401007  ]

# Stress tensor in Cartesian coordinates [Eh/a0^3]:
[ -0.000475367 -0.000306467  4.53444e-06  ]
[ -0.000306467 -0.000328842  2.41768e-06  ]
[  4.53444e-06  2.41768e-06 -8.99875e-05  ]

# Ionic positions in cartesian coordinates:
ion Ti  -0.002856744427587  -0.001587538818963  -0.002720434791721 1
ion Ti   0.005250939649883   3.223272450676118   4.423637170766286 1
ion Ti  -0.003181917214597  -0.001761208565545   8.850255139491978 1
ion Ti   0.005366208497429   3.223753963664979  13.271160573418078 1
ion Ti  -2.785601016841149   4.831606653923559  -0.001678781004274 1
ion Ti  -2.785026660937802   8.043691566445480   4.423509802714127 1
ion Ti  -2.785764309058916   4.831532283553623   8.849061936840746 1
ion Ti  -2.781039351703825   8.055040604992657  13.271160730259240 1
ion Ti   5.589264771660026   0.007759867030844  -0.004042894335286 1
ion Ti   5.755342229664241   3.350739585130355   4.421728813398538 1
ion Ti   5.589056456991506   0.007634675035451   8.851215679852674 1
ion Ti   5.592769451675140   3.231928804263562  13.270998705254817 1
ion Ti   2.801217709470841   4.841906315039267  -0.003914806343131 1
ion Ti   2.811125677633214   8.063999146080844   4.423473309439005 1
ion Ti   2.800976592693867   4.841836214549473   8.851127499115668 1
ion Ti   2.806724807602705   8.063602846912959  13.271003070182482 1
ion O   3.586955154200461   1.779302238040658   4.444726797542146 1

# Forces in Cartesian coordinates:
force Ti  -0.010134846453755  -0.005616992448503  -0.009032480441986 1
force Ti   0.001414224759120   0.000174380774105  -0.000218701235961 1
force Ti  -0.010490281018498  -0.005782893673174   0.009223262350055 1
force Ti   0.002409535175413   0.000538787972780   0.000027642788217 1
force Ti   0.003361982556813   0.001571507605468  -0.005793926446164 1
force Ti  -0.010429722346803  -0.038398106554628  -0.000649937608105 1
force Ti   0.003510473438328   0.001698102219178   0.005463305320961 1
force Ti   0.002117803885699   0.001991029688778   0.000023348680293 1
force Ti   0.002941524908858  -0.002707469561093  -0.010932931700155 1
force Ti   0.356180126993876   0.261685061845201  -0.004228075084009 1
force Ti   0.002966468859135  -0.002708029572085   0.010788249046955 1
force Ti  -0.001864027931791  -0.001925702759668  -0.000090731094054 1
force Ti  -0.001524411086768   0.005835706266411  -0.010886805899289 1
force Ti   0.014289723771212   0.000947467197908  -0.000302622266775 1
force Ti  -0.001603341054874   0.005943403541947   0.010835588458306 1
force Ti   0.000447524000083   0.000266992983969  -0.000053569804292 1
force O  -0.353475763876727  -0.223563828826663   0.005886453509809 1

# Energy components:
   Eewald =     -686.8721229095212948
       EH =      203.9678194219895317
     Eloc =     -638.6114959215894942
      Enl =       89.9723822871828958
      Exc =     -148.2300743155626321
 Exc_core =       21.0162241673296215
       KE =      209.7588719925347505
-------------------------------------
     Etot =     -948.9983952776365186
       TS =        0.0309484874441959
-------------------------------------
        F =     -949.0293437650807391

LatticeMinimize: Iter:   2  F: -949.029343765080739  |grad|_K:  6.212e-01  alpha:  6.413e-01  linmin: -4.158e-01  t[s]:  24302.60

#--- Lowdin population analysis ---
# oxidation-state Ti +0.351 +0.379 +0.351 +0.350 +0.351 +0.393 +0.352 +0.352 +0.358 +0.310 +0.358 +0.355 +0.352 +0.342 +0.353 +0.364
# oxidation-state O -0.413


-------- Electronic minimization -----------
	FillingsUpdate:  mu: +0.492342552  nElectrons: 198.000000
ElecMinimize: Iter:   0  F: -948.784698008096143  |grad|_K:  6.331e-05  alpha:  1.000e+00
	FillingsUpdate:  mu: +0.490228615  nElectrons: 198.000000
	SubspaceRotationAdjust: set factor to 0.246
ElecMinimize: Iter:   1  F: -949.014288525965753  |grad|_K:  2.855e-05  alpha:  3.940e-01  linmin:  4.143e-03  t[s]:  24667.08
	FillingsUpdate:  mu: +0.490634579  nElectrons: 198.000000
	SubspaceRotationAdjust: set factor to 0.174
ElecMinimize: Iter:   2  F: -949.051438583929666  |grad|_K:  1.752e-05  alpha:  3.128e-01  linmin: -2.226e-04  t[s]:  24834.21
	FillingsUpdate:  mu: +0.490715172  nElectrons: 198.000000
	SubspaceRotationAdjust: set factor to 0.149
ElecMinimize: Iter:   3  F: -949.062630235527308  |grad|_K:  1.220e-05  alpha:  2.408e-01  linmin:  1.819e-05  t[s]:  24999.85
	FillingsUpdate:  mu: +0.490952714  nElectrons: 198.000000
	SubspaceRotationAdjust: set factor to 0.201
ElecMinimize: Iter:   4  F: -949.076306524216534  |grad|_K:  1.066e-05  alpha:  6.087e-01  linmin:  7.144e-06  t[s]:  25166.25
	FillingsUpdate:  mu: +0.490692547  nElectrons: 198.000000
	SubspaceRotationAdjust: set factor to 0.201
ElecMinimize: Iter:   5  F: -949.086386141836897  |grad|_K:  1.086e-05  alpha:  5.883e-01  linmin: -4.253e-05  t[s]:  25331.59
	FillingsUpdate:  mu: +0.490727480  nElectrons: 198.000000
	SubspaceRotationAdjust: set factor to 0.143
ElecMinimize: Iter:   6  F: -949.091871751079452  |grad|_K:  7.717e-06  alpha:  3.045e-01  linmin: -1.074e-04  t[s]:  25500.71
	FillingsUpdate:  mu: +0.490960800  nElectrons: 198.000000
	SubspaceRotationAdjust: set factor to 0.14
ElecMinimize: Iter:   7  F: -949.094953375656701  |grad|_K:  4.269e-06  alpha:  3.411e-01  linmin:  6.620e-06  t[s]:  25666.43
	FillingsUpdate:  mu: +0.491081584  nElectrons: 198.000000
	SubspaceRotationAdjust: set factor to 0.159
ElecMinimize: Iter:   8  F: -949.096019124150189  |grad|_K:  2.499e-06  alpha:  3.877e-01  linmin: -7.280e-07  t[s]:  25833.02
	FillingsUpdate:  mu: +0.491029433  nElectrons: 198.000000
	SubspaceRotationAdjust: set factor to 0.133
ElecMinimize: Iter:   9  F: -949.096381147142552  |grad|_K:  1.757e-06  alpha:  3.839e-01  linmin:  4.173e-06  t[s]:  25997.66
	FillingsUpdate:  mu: +0.491073755  nElectrons: 198.000000
	SubspaceRotationAdjust: set factor to 0.138
ElecMinimize: Iter:  10  F: -949.096560362286482  |grad|_K:  1.148e-06  alpha:  3.847e-01  linmin: -1.439e-05  t[s]:  26162.16
	FillingsUpdate:  mu: +0.491088443  nElectrons: 198.000000
	SubspaceRotationAdjust: set factor to 0.181
ElecMinimize: Iter:  11  F: -949.096662245725838  |grad|_K:  9.194e-07  alpha:  5.122e-01  linmin: -1.898e-05  t[s]:  26328.91
	FillingsUpdate:  mu: +0.491072438  nElectrons: 198.000000
	SubspaceRotationAdjust: set factor to 0.189
ElecMinimize: Iter:  12  F: -949.096727356090128  |grad|_K:  8.605e-07  alpha:  5.100e-01  linmin:  6.857e-06  t[s]:  26495.59
	FillingsUpdate:  mu: +0.491086893  nElectrons: 198.000000
	SubspaceRotationAdjust: set factor to 0.167
ElecMinimize: Iter:  13  F: -949.096774857711580  |grad|_K:  7.646e-07  alpha:  4.251e-01  linmin: -2.871e-06  t[s]:  26662.57
	FillingsUpdate:  mu: +0.491061365  nElectrons: 198.000000
	SubspaceRotationAdjust: set factor to 0.163
ElecMinimize: Iter:  14  F: -949.096816230525405  |grad|_K:  6.171e-07  alpha:  4.689e-01  linmin:  2.555e-06  t[s]:  26830.88
	FillingsUpdate:  mu: +0.491073007  nElectrons: 198.000000
	SubspaceRotationAdjust: set factor to 0.184
ElecMinimize: Iter:  15  F: -949.096843943769841  |grad|_K:  3.795e-07  alpha:  4.822e-01  linmin:  6.952e-06  t[s]:  26995.34
	FillingsUpdate:  mu: +0.491075817  nElectrons: 198.000000
	SubspaceRotationAdjust: set factor to 0.17
ElecMinimize: Iter:  16  F: -949.096854578723423  |grad|_K:  3.002e-07  alpha:  4.894e-01  linmin:  3.347e-06  t[s]:  27159.94
	FillingsUpdate:  mu: +0.491067602  nElectrons: 198.000000
	SubspaceRotationAdjust: set factor to 0.12
ElecMinimize: Iter:  17  F: -949.096858777229954  |grad|_K:  1.938e-07  alpha:  3.087e-01  linmin: -2.423e-07  t[s]:  27328.30
	FillingsUpdate:  mu: +0.491075404  nElectrons: 198.000000
	SubspaceRotationAdjust: set factor to 0.126
ElecMinimize: Iter:  18  F: -949.096861065991106  |grad|_K:  1.244e-07  alpha:  4.036e-01  linmin:  1.926e-06  t[s]:  27493.50
	FillingsUpdate:  mu: +0.491076060  nElectrons: 198.000000
	SubspaceRotationAdjust: set factor to 0.151
ElecMinimize: Iter:  19  F: -949.096862189819831  |grad|_K:  8.253e-08  alpha:  4.808e-01  linmin:  2.856e-06  t[s]:  27660.29
	FillingsUpdate:  mu: +0.491073692  nElectrons: 198.000000
	SubspaceRotationAdjust: set factor to 0.142
ElecMinimize: Iter:  20  F: -949.096862638549851  |grad|_K:  6.515e-08  alpha:  4.365e-01  linmin:  3.655e-06  t[s]:  27826.02
	FillingsUpdate:  mu: +0.491076332  nElectrons: 198.000000
	SubspaceRotationAdjust: set factor to 0.154
ElecMinimize: Iter:  21  F: -949.096862934819228  |grad|_K:  4.598e-08  alpha:  4.626e-01  linmin: -6.674e-07  t[s]:  27993.61
	FillingsUpdate:  mu: +0.491076470  nElectrons: 198.000000
	SubspaceRotationAdjust: set factor to 0.18
ElecMinimize: Iter:  22  F: -949.096863106383580  |grad|_K:  3.704e-08  alpha:  5.373e-01  linmin: -5.342e-06  t[s]:  28159.28
	FillingsUpdate:  mu: +0.491075847  nElectrons: 198.000000
	SubspaceRotationAdjust: set factor to 0.202
ElecMinimize: Iter:  23  F: -949.096863200892813  |grad|_K:  2.710e-08  alpha:  4.562e-01  linmin: -2.739e-06  t[s]:  28324.48
	FillingsUpdate:  mu: +0.491076595  nElectrons: 198.000000
	SubspaceRotationAdjust: set factor to 0.187
ElecMinimize: Iter:  24  F: -949.096863250057140  |grad|_K:  2.273e-08  alpha:  4.439e-01  linmin: -6.733e-06  t[s]:  28488.88
	FillingsUpdate:  mu: +0.491076294  nElectrons: 198.000000
	SubspaceRotationAdjust: set factor to 0.142
ElecMinimize: Iter:  25  F: -949.096863276126896  |grad|_K:  1.685e-08  alpha:  3.337e-01  linmin:  1.940e-06  t[s]:  28657.84
	FillingsUpdate:  mu: +0.491076389  nElectrons: 198.000000
	SubspaceRotationAdjust: set factor to 0.143
ElecMinimize: Iter:  26  F: -949.096863293690376  |grad|_K:  1.048e-08  alpha:  4.115e-01  linmin:  1.200e-05  t[s]:  28828.49
	FillingsUpdate:  mu: +0.491076355  nElectrons: 198.000000
	SubspaceRotationAdjust: set factor to 0.15
ElecMinimize: Iter:  27  F: -949.096863301488042  |grad|_K:  7.716e-09  alpha:  4.712e-01  linmin:  1.979e-05  t[s]:  28995.46
	FillingsUpdate:  mu: +0.491076301  nElectrons: 198.000000
	SubspaceRotationAdjust: set factor to 0.136
ElecMinimize: Iter:  28  F: -949.096863305291890  |grad|_K:  5.179e-09  alpha:  4.203e-01  linmin:  6.828e-06  t[s]:  29162.31
ElecMinimize: Converged (|Delta F|<1.000000e-08 for 2 iters).
Setting wave functions to eigenvectors of Hamiltonian
# Lattice vectors:
R = 
[      11.1965     -5.57211 -0.000707498  ]
[    0.0302122      9.66907 -0.000367167  ]
[ -0.000445928  2.25819e-05      17.7025  ]
unit cell volume = 1919.46

# Strain tensor in Cartesian coordinates:
[    0.0042289   0.00270948 -3.99991e-05  ]
[   0.00270976   0.00295433 -2.07581e-05  ]
[ -3.99958e-05 -2.07528e-05  0.000829605  ]

# Stress tensor in Cartesian coordinates [Eh/a0^3]:
[ -0.000309035 -0.000196603  2.88561e-06  ]
[ -0.000196603 -0.000234228  1.40001e-06  ]
[  2.88561e-06  1.40001e-06 -7.08599e-05  ]

# Ionic positions in cartesian coordinates:
ion Ti  -0.007627631425564  -0.004226370012632  -0.006720115103015 1
ion Ti   0.009807244401538   3.227987355318811   4.425393278428639 1
ion Ti  -0.008252029974511  -0.004536583602247   8.858117210969123 1
ion Ti   0.009990419656531   3.228214290362568  13.276833624748823 1
ion Ti  -2.783525729375948   4.835750045287825  -0.004247457549287 1
ion Ti  -2.785402293175484   8.034004935957455   4.425086587601390 1
ion Ti  -2.783763789325627   4.835665146730069   8.855278991592302 1
ion Ti  -2.776254288133832   8.063807952471613  13.276841504298377 1
ion Ti   5.600409646640915   0.013169449814138  -0.008283876042699 1
ion Ti   5.849643292597828   3.421551597571263   4.422426978313950 1
ion Ti   5.600070487785170   0.012988608547511   8.858974239997599 1
ion Ti   5.605035585247674   3.241435732549046  13.276521305828943 1
ion Ti   2.811112290650901   4.853919529956627  -0.008289131201297 1
ion Ti   2.831429496648953   8.078393193171605   4.425120812166336 1
ion Ti   2.810697510227907   4.853815776768164   8.859076514672893 1
ion Ti   2.820723744995489   8.077625507396197  13.276560744720234 1
ion O   3.515203937399855   1.742531840585303   4.448492305483515 1

# Forces in Cartesian coordinates:
force Ti  -0.010349681375654  -0.005711482975896  -0.008645491267143 1
force Ti   0.002018327269585   0.001843119941461  -0.000278035682955 1
force Ti  -0.010664220079360  -0.005848167516979   0.008770155491780 1
force Ti   0.002975511593610   0.000178534292928   0.000020674513284 1
force Ti   0.003691668063973   0.001305886349254  -0.005916082326804 1
force Ti  -0.008356845718726  -0.038219268781263  -0.000671636506473 1
force Ti   0.003812221224787   0.001399331828366   0.005487282502020 1
force Ti   0.002174913967303   0.002683195190830   0.000009901378826 1
force Ti   0.002682373521268  -0.001950989358134  -0.009064339260291 1
force Ti   0.201915163315663   0.151965650798018  -0.002636387228860 1
force Ti   0.002730678441848  -0.001940366574147   0.008867145041724 1
force Ti  -0.002471101061646  -0.002186328811180  -0.000112853091189 1
force Ti  -0.001138442796423   0.005585419232092  -0.009168639972298 1
force Ti   0.014242429809822   0.000658647987111  -0.000314253407043 1
force Ti  -0.001194262011924   0.005639876840293   0.009029887015974 1
force Ti   0.000575167786835   0.000279789250347  -0.000053254434791 1
force O  -0.202704525950914  -0.115674408178746   0.004814639414212 1

# Energy components:
   Eewald =     -687.2641521972152532
       EH =      203.2925960901566498
     Eloc =     -637.3486782150057479
      Enl =       89.9009282054947079
      Exc =     -148.1446483335835183
 Exc_core =       21.0162421453349424
       KE =      209.4821174519938722
-------------------------------------
     Etot =     -949.0655948528244608
       TS =        0.0312684524673755
-------------------------------------
        F =     -949.0968633052918904

LatticeMinimize: Iter:   3  F: -949.096863305291890  |grad|_K:  3.559e-01  alpha:  6.638e-01  linmin: -3.704e-01  t[s]:  29249.36

#--- Lowdin population analysis ---
# oxidation-state Ti +0.353 +0.393 +0.353 +0.353 +0.352 +0.405 +0.353 +0.355 +0.365 +0.364 +0.367 +0.356 +0.358 +0.344 +0.359 +0.367
# oxidation-state O -0.536


-------- Electronic minimization -----------
	FillingsUpdate:  mu: +0.489508120  nElectrons: 198.000000
ElecMinimize: Iter:   0  F: -948.807715043216149  |grad|_K:  6.176e-05  alpha:  1.000e+00
	FillingsUpdate:  mu: +0.487718087  nElectrons: 198.000000
	SubspaceRotationAdjust: set factor to 0.155
ElecMinimize: Iter:   1  F: -949.037686805375301  |grad|_K:  2.640e-05  alpha:  4.101e-01  linmin:  4.694e-03  t[s]:  29606.47
	FillingsUpdate:  mu: +0.488470322  nElectrons: 198.000000
	SubspaceRotationAdjust: set factor to 0.147
ElecMinimize: Iter:   2  F: -949.074501085214251  |grad|_K:  1.291e-05  alpha:  3.590e-01  linmin: -9.592e-05  t[s]:  29775.15
	FillingsUpdate:  mu: +0.487753524  nElectrons: 198.000000
	SubspaceRotationAdjust: set factor to 0.162
ElecMinimize: Iter:   3  F: -949.091553645103431  |grad|_K:  1.386e-05  alpha:  6.775e-01  linmin: -1.853e-05  t[s]:  29940.57
	FillingsUpdate:  mu: +0.488063440  nElectrons: 198.000000
	SubspaceRotationAdjust: set factor to 0.156
ElecMinimize: Iter:   4  F: -949.108427817724987  |grad|_K:  1.361e-05  alpha:  5.827e-01  linmin: -7.532e-05  t[s]:  30106.68
	FillingsUpdate:  mu: +0.488144089  nElectrons: 198.000000
	SubspaceRotationAdjust: set factor to 0.129
ElecMinimize: Iter:   5  F: -949.125448593079000  |grad|_K:  1.007e-05  alpha:  6.069e-01  linmin:  2.469e-04  t[s]:  30272.83
	FillingsUpdate:  mu: +0.488387981  nElectrons: 198.000000
	SubspaceRotationAdjust: set factor to 0.0986
ElecMinimize: Iter:   6  F: -949.131846057677649  |grad|_K:  5.644e-06  alpha:  4.236e-01  linmin: -6.631e-06  t[s]:  30440.43
	FillingsUpdate:  mu: +0.488407556  nElectrons: 198.000000
	SubspaceRotationAdjust: set factor to 0.104
ElecMinimize: Iter:   7  F: -949.133749291663435  |grad|_K:  2.949e-06  alpha:  3.957e-01  linmin:  4.304e-07  t[s]:  30611.02
	FillingsUpdate:  mu: +0.488421853  nElectrons: 198.000000
	SubspaceRotationAdjust: set factor to 0.123
ElecMinimize: Iter:   8  F: -949.134389420040520  |grad|_K:  1.713e-06  alpha:  4.876e-01  linmin: -9.021e-06  t[s]:  30778.62
	FillingsUpdate:  mu: +0.488444607  nElectrons: 198.000000
	SubspaceRotationAdjust: set factor to 0.149
ElecMinimize: Iter:   9  F: -949.134653369260377  |grad|_K:  1.210e-06  alpha:  5.961e-01  linmin: -1.433e-05  t[s]:  30946.67
	FillingsUpdate:  mu: +0.488436507  nElectrons: 198.000000
	SubspaceRotationAdjust: set factor to 0.177
ElecMinimize: Iter:  10  F: -949.134793682864029  |grad|_K:  1.113e-06  alpha:  6.348e-01  linmin:  6.628e-06  t[s]:  31113.50
	FillingsUpdate:  mu: +0.488437780  nElectrons: 198.000000
	SubspaceRotationAdjust: set factor to 0.213
ElecMinimize: Iter:  11  F: -949.134898241269184  |grad|_K:  9.243e-07  alpha:  5.590e-01  linmin: -2.205e-06  t[s]:  31282.45
	FillingsUpdate:  mu: +0.488395423  nElectrons: 198.000000
	SubspaceRotationAdjust: set factor to 0.21
ElecMinimize: Iter:  12  F: -949.134987584536134  |grad|_K:  9.695e-07  alpha:  6.931e-01  linmin:  2.041e-05  t[s]:  31452.86
	FillingsUpdate:  mu: +0.488412955  nElectrons: 198.000000
	SubspaceRotationAdjust: set factor to 0.151
ElecMinimize: Iter:  13  F: -949.135031574012601  |grad|_K:  7.331e-07  alpha:  3.106e-01  linmin:  5.424e-06  t[s]:  31622.46
	FillingsUpdate:  mu: +0.488408297  nElectrons: 198.000000
	SubspaceRotationAdjust: set factor to 0.124
ElecMinimize: Iter:  14  F: -949.135062734433291  |grad|_K:  5.105e-07  alpha:  3.843e-01  linmin:  9.831e-06  t[s]:  31791.85
	FillingsUpdate:  mu: +0.488403106  nElectrons: 198.000000
	SubspaceRotationAdjust: set factor to 0.126
ElecMinimize: Iter:  15  F: -949.135080657396657  |grad|_K:  3.524e-07  alpha:  4.559e-01  linmin:  4.051e-06  t[s]:  31960.83
	FillingsUpdate:  mu: +0.488411115  nElectrons: 198.000000
	SubspaceRotationAdjust: set factor to 0.119
ElecMinimize: Iter:  16  F: -949.135089211949321  |grad|_K:  2.443e-07  alpha:  4.564e-01  linmin: -3.948e-08  t[s]:  32128.76
	FillingsUpdate:  mu: +0.488412626  nElectrons: 198.000000
	SubspaceRotationAdjust: set factor to 0.138
ElecMinimize: Iter:  17  F: -949.135093811796196  |grad|_K:  1.723e-07  alpha:  5.105e-01  linmin:  1.379e-06  t[s]:  32298.04
	FillingsUpdate:  mu: +0.488413519  nElectrons: 198.000000
	SubspaceRotationAdjust: set factor to 0.166
ElecMinimize: Iter:  18  F: -949.135095970358179  |grad|_K:  1.323e-07  alpha:  4.816e-01  linmin: -5.339e-07  t[s]:  32464.85
	FillingsUpdate:  mu: +0.488416744  nElectrons: 198.000000
	SubspaceRotationAdjust: set factor to 0.176
ElecMinimize: Iter:  19  F: -949.135097379425702  |grad|_K:  1.096e-07  alpha:  5.337e-01  linmin:  1.042e-06  t[s]:  32629.49
	FillingsUpdate:  mu: +0.488418447  nElectrons: 198.000000
	SubspaceRotationAdjust: set factor to 0.165
ElecMinimize: Iter:  20  F: -949.135098137642558  |grad|_K:  9.110e-08  alpha:  4.179e-01  linmin: -1.305e-06  t[s]:  32793.15
	FillingsUpdate:  mu: +0.488420006  nElectrons: 198.000000
	SubspaceRotationAdjust: set factor to 0.146
ElecMinimize: Iter:  21  F: -949.135098658792685  |grad|_K:  6.320e-08  alpha:  4.160e-01  linmin: -2.982e-06  t[s]:  32956.85
	FillingsUpdate:  mu: +0.488418999  nElectrons: 198.000000
	SubspaceRotationAdjust: set factor to 0.147
ElecMinimize: Iter:  22  F: -949.135098931350399  |grad|_K:  4.665e-08  alpha:  4.520e-01  linmin:  8.695e-08  t[s]:  33122.68
	FillingsUpdate:  mu: +0.488419365  nElectrons: 198.000000
	SubspaceRotationAdjust: set factor to 0.164
ElecMinimize: Iter:  23  F: -949.135099109425823  |grad|_K:  3.483e-08  alpha:  5.422e-01  linmin:  3.092e-06  t[s]:  33288.56
	FillingsUpdate:  mu: +0.488419656  nElectrons: 198.000000
	SubspaceRotationAdjust: set factor to 0.174
ElecMinimize: Iter:  24  F: -949.135099199615411  |grad|_K:  2.702e-08  alpha:  4.925e-01  linmin: -8.067e-06  t[s]:  33453.46
	FillingsUpdate:  mu: +0.488418845  nElectrons: 198.000000
	SubspaceRotationAdjust: set factor to 0.174
ElecMinimize: Iter:  25  F: -949.135099252463533  |grad|_K:  2.231e-08  alpha:  4.797e-01  linmin: -1.256e-05  t[s]:  33618.20
	FillingsUpdate:  mu: +0.488419273  nElectrons: 198.000000
	SubspaceRotationAdjust: set factor to 0.181
ElecMinimize: Iter:  26  F: -949.135099287166668  |grad|_K:  1.779e-08  alpha:  4.603e-01  linmin: -1.966e-06  t[s]:  33783.73
	FillingsUpdate:  mu: +0.488419009  nElectrons: 198.000000
	SubspaceRotationAdjust: set factor to 0.196
ElecMinimize: Iter:  27  F: -949.135099309787847  |grad|_K:  1.396e-08  alpha:  4.752e-01  linmin: -1.527e-06  t[s]:  33950.76
	FillingsUpdate:  mu: +0.488418809  nElectrons: 198.000000
	SubspaceRotationAdjust: set factor to 0.202
ElecMinimize: Iter:  28  F: -949.135099325068040  |grad|_K:  1.130e-08  alpha:  5.183e-01  linmin:  6.869e-06  t[s]:  34114.42
	FillingsUpdate:  mu: +0.488418689  nElectrons: 198.000000
	SubspaceRotationAdjust: set factor to 0.18
ElecMinimize: Iter:  29  F: -949.135099333857966  |grad|_K:  1.022e-08  alpha:  4.548e-01  linmin: -1.775e-06  t[s]:  34278.99
	FillingsUpdate:  mu: +0.488418800  nElectrons: 198.000000
	SubspaceRotationAdjust: set factor to 0.132
ElecMinimize: Iter:  30  F: -949.135099338972964  |grad|_K:  7.424e-09  alpha:  3.279e-01  linmin: -1.304e-05  t[s]:  34445.08
ElecMinimize: Converged (|Delta F|<1.000000e-08 for 2 iters).
Setting wave functions to eigenvectors of Hamiltonian
# Lattice vectors:
R = 
[      11.2211     -5.57131  -0.00105334  ]
[    0.0453254      9.67948  -0.00050151  ]
[ -0.000663887  5.83251e-05      17.7138  ]
unit cell volume = 1928.45

# Strain tensor in Cartesian coordinates:
[   0.00643209    0.0040642 -5.95517e-05  ]
[   0.00406528   0.00481513 -2.83534e-05  ]
[ -5.95447e-05 -2.83377e-05   0.00146896  ]

# Stress tensor in Cartesian coordinates [Eh/a0^3]:
[ -0.000183491 -0.000117681   1.6739e-06  ]
[ -0.000117681 -0.000158483  7.29389e-07  ]
[   1.6739e-06  7.29389e-07 -5.01685e-05  ]

# Ionic positions in cartesian coordinates:
ion Ti  -0.016369514914932  -0.009058287674164  -0.013745360172746 1
ion Ti   0.016179020563417   3.235876423020284   4.427941427155907 1
ion Ti  -0.017419208722215  -0.009544109001413   8.870870950371968 1
ion Ti   0.016745781317834   3.234191144632425  13.285300249455602 1
ion Ti  -2.779893399059256   4.842032082049244  -0.009079932303329 1
ion Ti  -2.787127813798527   8.013551421174162   4.427336429955394 1
ion Ti  -2.780204784968304   4.841952147094533   8.865418420339122 1
ion Ti  -2.769887663759137   8.077346088259439  13.285316332433238 1
ion Ti   5.614733138605263   0.019564540988884  -0.014985900035654 1
ion Ti   5.945840456083237   3.497732633641928   4.423838805548074 1
ion Ti   5.614263891246199   0.019334927986137   8.870910566095047 1
ion Ti   5.619103966245730   3.252959144407287  13.284762055925333 1
ion Ti   2.823092145124387   4.871017335080348  -0.015227040030601 1
ion Ti   2.860098466194143   8.097657470022540   4.427560439620699 1
ion Ti   2.822465305005303   4.870870755132888   8.871325353144337 1
ion Ti   2.838040189702721   8.096512441393251  13.284877761406417 1
ion O   3.444581881252890   1.717826462734253   4.454443735879584 1

# Forces in Cartesian coordinates:
force Ti  -0.009890701094073  -0.005389503345884  -0.007678013492708 1
force Ti   0.002561755260781   0.003036377378372  -0.000401198690369 1
force Ti  -0.010159940142911  -0.005492847777070   0.007722088296230 1
force Ti   0.003443893539316  -0.000280350652338   0.000045404602739 1
force Ti   0.003674638317924   0.000880015702861  -0.005782552258121 1
force Ti  -0.005767148952480  -0.033135637200575  -0.000691758528021 1
force Ti   0.003753990223675   0.000942594475235   0.005223495503537 1
force Ti   0.002158064920281   0.003243259869580   0.000022903808908 1
force Ti   0.002401197238791  -0.001525034527312  -0.007500686163615 1
force Ti   0.102082666310020   0.081718966692208  -0.001571048652490 1
force Ti   0.002471763812361  -0.001509924828297   0.007250828435199 1
force Ti  -0.002627777434120  -0.002309105517572  -0.000100501464514 1
force Ti  -0.000985496812290   0.005468735834395  -0.007532024892624 1
force Ti   0.013687686369981   0.000585748985112  -0.000377561591232 1
force Ti  -0.001020564803673   0.005487989849214   0.007322006323018 1
force Ti   0.000531644251144   0.000287749998864  -0.000023179468100 1
force O  -0.106290914668288  -0.052034462855797   0.004266100609203 1

# Energy components:
   Eewald =     -687.1815858200254752
       EH =      202.9171845140612334
     Eloc =     -636.8971201035594731
      Enl =       89.8576545172700492
      Exc =     -148.0725517922092251
 Exc_core =       21.0162772486753937
       KE =      209.2564993444919992
-------------------------------------
[...]
	SubspaceRotationAdjust: set factor to 0.181
ElecMinimize: Iter:  12  F: -949.272012463815713  |grad|_K:  9.310e-07  alpha:  6.195e-01  linmin:  3.466e-06  t[s]: 169250.89
	FillingsUpdate:  mu: +0.494199600  nElectrons: 198.000000
	SubspaceRotationAdjust: set factor to 0.166
ElecMinimize: Iter:  13  F: -949.272085781276360  |grad|_K:  8.058e-07  alpha:  5.606e-01  linmin: -3.403e-06  t[s]: 169416.06
	FillingsUpdate:  mu: +0.494266638  nElectrons: 198.000000
	SubspaceRotationAdjust: set factor to 0.136
ElecMinimize: Iter:  14  F: -949.272121907994347  |grad|_K:  6.061e-07  alpha:  3.685e-01  linmin: -1.827e-07  t[s]: 169586.14
	FillingsUpdate:  mu: +0.494206807  nElectrons: 198.000000
	SubspaceRotationAdjust: set factor to 0.13
ElecMinimize: Iter:  15  F: -949.272150328206067  |grad|_K:  4.218e-07  alpha:  5.125e-01  linmin: -2.370e-06  t[s]: 169751.15
	FillingsUpdate:  mu: +0.494216239  nElectrons: 198.000000
	SubspaceRotationAdjust: set factor to 0.143
ElecMinimize: Iter:  16  F: -949.272163330258309  |grad|_K:  2.985e-07  alpha:  4.842e-01  linmin: -2.935e-07  t[s]: 169915.41
	FillingsUpdate:  mu: +0.494235785  nElectrons: 198.000000
	SubspaceRotationAdjust: set factor to 0.139
ElecMinimize: Iter:  17  F: -949.272169652800812  |grad|_K:  2.022e-07  alpha:  4.701e-01  linmin:  9.921e-07  t[s]: 170082.03
	FillingsUpdate:  mu: +0.494214766  nElectrons: 198.000000
	SubspaceRotationAdjust: set factor to 0.107
ElecMinimize: Iter:  18  F: -949.272172255109467  |grad|_K:  1.463e-07  alpha:  4.217e-01  linmin: -4.206e-07  t[s]: 170249.78
	FillingsUpdate:  mu: +0.494216863  nElectrons: 198.000000
	SubspaceRotationAdjust: set factor to 0.12
ElecMinimize: Iter:  19  F: -949.272173880077275  |grad|_K:  1.012e-07  alpha:  5.033e-01  linmin:  1.006e-06  t[s]: 170415.51
	FillingsUpdate:  mu: +0.494223866  nElectrons: 198.000000
	SubspaceRotationAdjust: set factor to 0.14
ElecMinimize: Iter:  20  F: -949.272174666693900  |grad|_K:  7.509e-08  alpha:  5.088e-01  linmin:  8.461e-07  t[s]: 170583.91
	FillingsUpdate:  mu: +0.494217564  nElectrons: 198.000000
	SubspaceRotationAdjust: set factor to 0.141
ElecMinimize: Iter:  21  F: -949.272175089905772  |grad|_K:  5.509e-08  alpha:  4.973e-01  linmin: -1.233e-06  t[s]: 170749.22
	FillingsUpdate:  mu: +0.494216429  nElectrons: 198.000000
	SubspaceRotationAdjust: set factor to 0.146
ElecMinimize: Iter:  22  F: -949.272175351294322  |grad|_K:  4.812e-08  alpha:  5.705e-01  linmin:  5.907e-07  t[s]: 170917.04
	FillingsUpdate:  mu: +0.494217254  nElectrons: 198.000000
	SubspaceRotationAdjust: set factor to 0.154
ElecMinimize: Iter:  23  F: -949.272175525689704  |grad|_K:  3.488e-08  alpha:  4.992e-01  linmin:  2.430e-06  t[s]: 171083.53
	FillingsUpdate:  mu: +0.494218442  nElectrons: 198.000000
	SubspaceRotationAdjust: set factor to 0.157
ElecMinimize: Iter:  24  F: -949.272175618748520  |grad|_K:  2.534e-08  alpha:  5.066e-01  linmin:  2.851e-06  t[s]: 171249.17
	FillingsUpdate:  mu: +0.494215542  nElectrons: 198.000000
	SubspaceRotationAdjust: set factor to 0.152
ElecMinimize: Iter:  25  F: -949.272175667030410  |grad|_K:  1.794e-08  alpha:  4.986e-01  linmin:  1.387e-05  t[s]: 171415.75
	FillingsUpdate:  mu: +0.494216781  nElectrons: 198.000000
	SubspaceRotationAdjust: set factor to 0.129
ElecMinimize: Iter:  26  F: -949.272175690047789  |grad|_K:  1.246e-08  alpha:  4.737e-01  linmin: -2.878e-05  t[s]: 171583.58
	FillingsUpdate:  mu: +0.494217414  nElectrons: 198.000000
	SubspaceRotationAdjust: set factor to 0.103
ElecMinimize: Iter:  27  F: -949.272175699251534  |grad|_K:  7.788e-09  alpha:  3.943e-01  linmin:  1.621e-04  t[s]: 171751.33
	FillingsUpdate:  mu: +0.494216486  nElectrons: 198.000000
	SubspaceRotationAdjust: set factor to 0.111
ElecMinimize: Iter:  28  F: -949.272175703831294  |grad|_K:  5.307e-09  alpha:  5.169e-01  linmin:  5.998e-04  t[s]: 171918.10
ElecMinimize: Converged (|Delta F|<1.000000e-08 for 2 iters).
Setting wave functions to eigenvectors of Hamiltonian
# Lattice vectors:
R = 
[       11.114     -5.33857    0.0552398  ]
[     0.249796      9.54763   -0.0496367  ]
[    0.0331157   -0.0439709      17.6681  ]
unit cell volume = 1898.34

# Strain tensor in Cartesian coordinates:
[  -0.00317037    0.0226236   0.00312304  ]
[    0.0224044   0.00174779  -0.00280626  ]
[   0.00297018  -0.00283906   -0.0011148  ]

# Stress tensor in Cartesian coordinates [Eh/a0^3]:
[  -2.1913e-05  2.82197e-05  9.16208e-06  ]
[  2.82197e-05 -6.02711e-06 -5.86524e-06  ]
[  9.16208e-06 -5.86524e-06  -1.3964e-05  ]

# Ionic positions in cartesian coordinates:
ion Ti  -0.175392842282713  -0.047632963256208  -0.214927122034865 1
ion Ti   0.209513475591172   3.151362394354832   4.182042677109147 1
ion Ti   0.093132559333903  -0.059443327049378   8.732431747863819 1
ion Ti   0.387737875351660   3.109276338617694  13.086789899975814 1
ion Ti  -2.813605662556990   4.739110360721432  -0.213894127219641 1
ion Ti  -2.441054256520292   7.943762486057996   4.180566550345479 1
ion Ti  -2.625925969760916   4.681918094181007   8.791331444782017 1
ion Ti  -2.296042677460419   7.887149698232581  13.127023078578357 1
ion Ti   5.335793054380816   0.283828271126113  -0.120686886331451 1
ion Ti   5.564143891003404   3.380093066532237   4.171597522456545 1
ion Ti   5.668000149197123   0.103392853389218   9.004419423869789 1
ion Ti   5.896430728731535   3.413123597842776  13.131618125294052 1
ion Ti   2.659275295072116   5.099370993500920  -0.207019106436957 1
ion Ti   3.159446146763366   8.235640020570159   4.162447865494946 1
ion Ti   2.796186418169337   4.922822052538325   8.787090001412610 1
ion Ti   3.239447286043620   8.138285313061226  13.113322871650789 1
ion O   3.138580269843881   1.654854244962788   6.619700062862832 1

# Forces in Cartesian coordinates:
force Ti   0.003858444313258   0.002492324384793   0.002862622473284 1
force Ti  -0.003456248608547   0.001336903072522   0.000451010617267 1
force Ti   0.002989171511899   0.002326682546674  -0.000848838951565 1
force Ti  -0.003118417741978   0.001025423097766  -0.000691662406316 1
force Ti   0.000705796477338   0.001397296389513   0.004208243098228 1
force Ti   0.002923520247881   0.000219974481849   0.002651064453560 1
force Ti   0.000457924420136   0.002089413626719   0.000200033379717 1
force Ti  -0.001856389736417  -0.000571783599878  -0.000647004254757 1
force Ti   0.002427424010622  -0.001938741430976   0.003054239965006 1
force Ti   0.015667460559005   0.002417149722365   0.001685271809621 1
force Ti  -0.000472759335205   0.001517351043659  -0.004808832853906 1
force Ti  -0.002639806783148  -0.000444408767836  -0.000005067609903 1
force Ti   0.002742014092610  -0.004253556156901   0.002817567957152 1
force Ti  -0.002680416409834  -0.003262818022241   0.000338628079908 1
force Ti   0.003285835242328  -0.002290565049580  -0.000651077632476 1
force Ti   0.000583988813594  -0.000235291254070   0.000001057425448 1
force O  -0.021150854851605  -0.001917318241513  -0.009813476432599 1

# Energy components:
   Eewald =     -692.2654514396645027
       EH =      199.5490426405194455
     Eloc =     -628.2331223419575963
      Enl =       89.7406952796252710
      Exc =     -148.0420690880654888
 Exc_core =       21.0167086302263755
       KE =      208.9898997913451240
-------------------------------------
     Etot =     -949.2442965279715281
       TS =        0.0278791758597643
-------------------------------------
        F =     -949.2721757038312944

LatticeMinimize: Iter:  29  F: -949.272175703831294  |grad|_K:  3.310e-02  alpha:  3.381e-01  linmin: -2.143e-01  t[s]: 172004.03

#--- Lowdin population analysis ---
# oxidation-state Ti +0.336 +0.439 +0.440 +0.344 +0.333 +0.450 +0.376 +0.341 +0.344 +0.452 +0.442 +0.332 +0.348 +0.383 +0.446 +0.324
# oxidation-state O -0.821


-------- Electronic minimization -----------
	FillingsUpdate:  mu: +0.498995915  nElectrons: 198.000000
ElecMinimize: Iter:   0  F: -948.144473225509159  |grad|_K:  1.069e-04  alpha:  1.000e+00
	FillingsUpdate:  mu: +0.489716161  nElectrons: 198.000000
	SubspaceRotationAdjust: set factor to 0.115
ElecMinimize: Iter:   1  F: -948.799774306338122  |grad|_K:  4.879e-05  alpha:  3.819e-01  linmin:  2.523e-03  t[s]: 172365.04
	FillingsUpdate:  mu: +0.494526455  nElectrons: 198.000000
	SubspaceRotationAdjust: set factor to 0.113
ElecMinimize: Iter:   2  F: -948.946721229659829  |grad|_K:  2.580e-05  alpha:  4.136e-01  linmin: -6.236e-05  t[s]: 172533.05
	FillingsUpdate:  mu: +0.493317989  nElectrons: 198.000000
	SubspaceRotationAdjust: set factor to 0.144
ElecMinimize: Iter:   3  F: -949.041732852960081  |grad|_K:  3.108e-05  alpha:  9.428e-01  linmin: -1.641e-04  t[s]: 172697.73
	FillingsUpdate:  mu: +0.494985372  nElectrons: 198.000000
	SubspaceRotationAdjust: set factor to 0.158
ElecMinimize: Iter:   4  F: -949.147929573036436  |grad|_K:  3.048e-05  alpha:  7.232e-01  linmin: -4.396e-07  t[s]: 172862.98
	FillingsUpdate:  mu: +0.492598091  nElectrons: 198.000000
	SubspaceRotationAdjust: set factor to 0.142
ElecMinimize: Iter:   5  F: -949.236577363434435  |grad|_K:  2.206e-05  alpha:  6.328e-01  linmin: -8.054e-05  t[s]: 173031.44
	FillingsUpdate:  mu: +0.493809312  nElectrons: 198.000000
	SubspaceRotationAdjust: set factor to 0.0909
ElecMinimize: Iter:   6  F: -949.264418250382050  |grad|_K:  1.099e-05  alpha:  3.773e-01  linmin: -1.097e-05  t[s]: 173199.04
	FillingsUpdate:  mu: +0.493862225  nElectrons: 198.000000
	SubspaceRotationAdjust: set factor to 0.0684
ElecMinimize: Iter:   7  F: -949.272001913631811  |grad|_K:  6.469e-06  alpha:  4.156e-01  linmin: -2.788e-05  t[s]: 173365.43
	FillingsUpdate:  mu: +0.494072765  nElectrons: 198.000000
	SubspaceRotationAdjust: set factor to 0.0818
ElecMinimize: Iter:   8  F: -949.274555868670291  |grad|_K:  3.623e-06  alpha:  4.042e-01  linmin: -3.616e-05  t[s]: 173530.37
	FillingsUpdate:  mu: +0.494110219  nElectrons: 198.000000
	SubspaceRotationAdjust: set factor to 0.0873
ElecMinimize: Iter:   9  F: -949.275663953707181  |grad|_K:  2.277e-06  alpha:  5.591e-01  linmin: -5.725e-05  t[s]: 173695.79
	FillingsUpdate:  mu: +0.494193019  nElectrons: 198.000000
	SubspaceRotationAdjust: set factor to 0.107
ElecMinimize: Iter:  10  F: -949.276050384207906  |grad|_K:  1.683e-06  alpha:  4.937e-01  linmin: -9.843e-06  t[s]: 173860.96
	FillingsUpdate:  mu: +0.494117225  nElectrons: 198.000000
	SubspaceRotationAdjust: set factor to 0.141
ElecMinimize: Iter:  11  F: -949.276282411967259  |grad|_K:  1.305e-06  alpha:  5.425e-01  linmin: -8.682e-06  t[s]: 174025.82
	FillingsUpdate:  mu: +0.494070660  nElectrons: 198.000000
	SubspaceRotationAdjust: set factor to 0.167
ElecMinimize: Iter:  12  F: -949.276510207862884  |grad|_K:  1.478e-06  alpha:  8.855e-01  linmin:  2.206e-06  t[s]: 174191.71
	FillingsUpdate:  mu: +0.494199472  nElectrons: 198.000000
	SubspaceRotationAdjust: set factor to 0.191
ElecMinimize: Iter:  13  F: -949.276714850641156  |grad|_K:  1.299e-06  alpha:  6.204e-01  linmin:  5.107e-07  t[s]: 174358.70
	FillingsUpdate:  mu: +0.494197514  nElectrons: 198.000000
	SubspaceRotationAdjust: set factor to 0.203
ElecMinimize: Iter:  14  F: -949.276861713200788  |grad|_K:  1.104e-06  alpha:  5.769e-01  linmin: -6.257e-07  t[s]: 174524.91
	FillingsUpdate:  mu: +0.494070425  nElectrons: 198.000000
	SubspaceRotationAdjust: set factor to 0.191
ElecMinimize: Iter:  15  F: -949.276950402976695  |grad|_K:  8.395e-07  alpha:  4.824e-01  linmin: -6.401e-07  t[s]: 174690.95
	FillingsUpdate:  mu: +0.494171873  nElectrons: 198.000000
	SubspaceRotationAdjust: set factor to 0.15
ElecMinimize: Iter:  16  F: -949.276992967768024  |grad|_K:  6.679e-07  alpha:  4.001e-01  linmin:  7.274e-07  t[s]: 174855.03
	FillingsUpdate:  mu: +0.494157449  nElectrons: 198.000000
	SubspaceRotationAdjust: set factor to 0.132
ElecMinimize: Iter:  17  F: -949.277017905668345  |grad|_K:  4.330e-07  alpha:  3.704e-01  linmin:  7.840e-08  t[s]: 175018.69
	FillingsUpdate:  mu: +0.494128186  nElectrons: 198.000000
	SubspaceRotationAdjust: set factor to 0.155
ElecMinimize: Iter:  18  F: -949.277030620366986  |grad|_K:  3.102e-07  alpha:  4.493e-01  linmin:  1.334e-06  t[s]: 175187.81
	FillingsUpdate:  mu: +0.494130394  nElectrons: 198.000000
	SubspaceRotationAdjust: set factor to 0.177
ElecMinimize: Iter:  19  F: -949.277037808192176  |grad|_K:  2.236e-07  alpha:  4.948e-01  linmin:  9.817e-07  t[s]: 175353.16
	FillingsUpdate:  mu: +0.494139012  nElectrons: 198.000000
	SubspaceRotationAdjust: set factor to 0.197
ElecMinimize: Iter:  20  F: -949.277041298399013  |grad|_K:  1.894e-07  alpha:  4.624e-01  linmin:  4.804e-08  t[s]: 175520.91
	FillingsUpdate:  mu: +0.494141662  nElectrons: 198.000000
	SubspaceRotationAdjust: set factor to 0.231
ElecMinimize: Iter:  21  F: -949.277043647947721  |grad|_K:  1.430e-07  alpha:  4.341e-01  linmin:  3.185e-08  t[s]: 175685.92
	FillingsUpdate:  mu: +0.494116979  nElectrons: 198.000000
	SubspaceRotationAdjust: set factor to 0.24
ElecMinimize: Iter:  22  F: -949.277045214370787  |grad|_K:  1.369e-07  alpha:  5.077e-01  linmin: -1.764e-06  t[s]: 175853.24
	FillingsUpdate:  mu: +0.494130577  nElectrons: 198.000000
	SubspaceRotationAdjust: set factor to 0.208
ElecMinimize: Iter:  23  F: -949.277046305279214  |grad|_K:  1.142e-07  alpha:  3.858e-01  linmin:  8.259e-07  t[s]: 176022.12
	FillingsUpdate:  mu: +0.494133899  nElectrons: 198.000000
	SubspaceRotationAdjust: set factor to 0.174
ElecMinimize: Iter:  24  F: -949.277046938370404  |grad|_K:  8.714e-08  alpha:  3.219e-01  linmin: -8.711e-07  t[s]: 176189.57
	FillingsUpdate:  mu: +0.494134512  nElectrons: 198.000000
	SubspaceRotationAdjust: set factor to 0.18
ElecMinimize: Iter:  25  F: -949.277047441018567  |grad|_K:  6.234e-08  alpha:  4.385e-01  linmin: -2.157e-06  t[s]: 176357.98
	FillingsUpdate:  mu: +0.494127761  nElectrons: 198.000000
	SubspaceRotationAdjust: set factor to 0.211
ElecMinimize: Iter:  26  F: -949.277047738144688  |grad|_K:  4.937e-08  alpha:  5.064e-01  linmin: -2.063e-06  t[s]: 176524.91
	FillingsUpdate:  mu: +0.494130498  nElectrons: 198.000000
	SubspaceRotationAdjust: set factor to 0.232
ElecMinimize: Iter:  27  F: -949.277047908283407  |grad|_K:  4.073e-08  alpha:  4.626e-01  linmin:  9.188e-07  t[s]: 176692.54
	FillingsUpdate:  mu: +0.494136221  nElectrons: 198.000000
	SubspaceRotationAdjust: set factor to 0.214
ElecMinimize: Iter:  28  F: -949.277047996907413  |grad|_K:  3.514e-08  alpha:  3.539e-01  linmin:  4.415e-06  t[s]: 176861.63
	FillingsUpdate:  mu: +0.494132605  nElectrons: 198.000000
	SubspaceRotationAdjust: set factor to 0.213
ElecMinimize: Iter:  29  F: -949.277048066044699  |grad|_K:  2.693e-08  alpha:  3.710e-01  linmin:  1.978e-06  t[s]: 177030.22
	FillingsUpdate:  mu: +0.494131422  nElectrons: 198.000000
	SubspaceRotationAdjust: set factor to 0.241
ElecMinimize: Iter:  30  F: -949.277048117085997  |grad|_K:  1.988e-08  alpha:  4.663e-01  linmin: -3.182e-05  t[s]: 177197.12
	FillingsUpdate:  mu: +0.494133948  nElectrons: 198.000000
	SubspaceRotationAdjust: set factor to 0.264
ElecMinimize: Iter:  31  F: -949.277048145863205  |grad|_K:  1.543e-08  alpha:  4.824e-01  linmin:  8.801e-05  t[s]: 177365.75
	FillingsUpdate:  mu: +0.494134236  nElectrons: 198.000000
	SubspaceRotationAdjust: set factor to 0.271
ElecMinimize: Iter:  32  F: -949.277048163312429  |grad|_K:  1.269e-08  alpha:  4.858e-01  linmin: -9.050e-05  t[s]: 177530.06
	FillingsUpdate:  mu: +0.494132922  nElectrons: 198.000000
	SubspaceRotationAdjust: set factor to 0.228
ElecMinimize: Iter:  33  F: -949.277048171983779  |grad|_K:  1.172e-08  alpha:  3.540e-01  linmin: -1.011e-04  t[s]: 177694.24
	FillingsUpdate:  mu: +0.494132552  nElectrons: 198.000000
	SubspaceRotationAdjust: set factor to 0.177
ElecMinimize: Iter:  34  F: -949.277048177999404  |grad|_K:  8.241e-09  alpha:  2.899e-01  linmin:  2.424e-05  t[s]: 177859.63
ElecMinimize: Converged (|Delta F|<1.000000e-08 for 2 iters).
Setting wave functions to eigenvectors of Hamiltonian
# Lattice vectors:
R = 
[      11.1078     -5.38677    0.0265503  ]
[     0.191081      9.58098    -0.022051  ]
[    0.0153479   -0.0201967      17.6866  ]
unit cell volume = 1900.47

# Strain tensor in Cartesian coordinates:
[  -0.00372912    0.0173094   0.00150105  ]
[    0.0171383   0.00216186  -0.00124667  ]
[   0.00137657  -0.00129694 -6.95459e-05  ]

# Stress tensor in Cartesian coordinates [Eh/a0^3]:
[ -1.47492e-05  1.87809e-05  5.05187e-06  ]
[  1.87809e-05 -5.10288e-06  3.84375e-07  ]
[  5.05187e-06  3.84375e-07 -1.02801e-05  ]

# Ionic positions in cartesian coordinates:
ion Ti  -0.111629627278378  -0.009907834003605  -0.187902456132272 1
ion Ti   0.156747043259842   3.164843511626240   4.188110045451296 1
ion Ti   0.102207747190553  -0.013042537373609   8.747512807794669 1
ion Ti   0.299380524837912   3.142360416448449  13.093469027956093 1
ion Ti  -2.834066272183184   4.770089192471527  -0.170283997276533 1
ion Ti  -2.496753405654550   7.977819884966942   4.226175729351404 1
ion Ti  -2.661688891780671   4.744657183954261   8.804945860719865 1
ion Ti  -2.382194112750938   7.917286005554086  13.141846541099158 1
ion Ti   5.361428503884669   0.223989755625798  -0.100730890747874 1
ion Ti   5.604548182936016   3.295491911293953   4.210445647976180 1
ion Ti   5.637459058392358   0.129421864737052   8.919280248597472 1
ion Ti   5.827699244797307   3.389671888366624  13.143108655168914 1
ion Ti   2.683680933383306   5.040103068267445  -0.183790074817248 1
ion Ti   3.034776766978926   8.175114671633876   4.179303666954304 1
ion Ti   2.815960491453353   4.940021361535564   8.792792457097336 1
ion Ti   3.164654941997790   8.146913387324188  13.128099865908222 1
ion O   3.047512276140717   1.664851192704284   6.577717558862538 1

# Forces in Cartesian coordinates:
force Ti   0.001400071169779   0.000834020905082   0.001379854347833 1
force Ti  -0.001321486265657   0.001394138626031   0.000698738107966 1
force Ti  -0.000275839517915   0.001042029112970  -0.000222949152721 1
force Ti  -0.001576147517869   0.001102519833983  -0.000385865764802 1
force Ti   0.002012125927901   0.001375547165342   0.002054058936131 1
force Ti   0.000713017046322  -0.001666678168993   0.000221758713093 1
force Ti   0.001148285615353   0.001828389014369   0.000901995361379 1
force Ti  -0.001400744680576   0.000957839688048  -0.000569812497736 1
force Ti   0.003145490978306  -0.001939544733192   0.000933221090455 1
force Ti   0.010028418336768   0.005716097633738  -0.001802865441894 1
force Ti   0.003211779475550  -0.002042607140364  -0.000576533836612 1
force Ti  -0.002272075371922  -0.001431726403526  -0.000132309892563 1
force Ti   0.002135762593406  -0.002485105756884   0.001364097575595 1
force Ti   0.001165590119950  -0.002638206211372  -0.000495743461684 1
force Ti   0.001350230845699  -0.001297440475604  -0.000970732447785 1
force Ti  -0.001278646475043  -0.000096536460356  -0.000496257850532 1
force O  -0.018115998470713  -0.000740659676391  -0.006051665347921 1

# Energy components:
   Eewald =     -691.7682303114738716
       EH =      199.8806820611593480
     Eloc =     -629.0355101931487525
      Enl =       89.7329811904788102
      Exc =     -148.0308437522076019
 Exc_core =       21.0167970915183915
       KE =      208.9543172805464337
-------------------------------------
     Etot =     -949.2498066331273776
       TS =        0.0272415448720128
-------------------------------------
        F =     -949.2770481779994043

LatticeMinimize: Iter:  30  F: -949.277048177999404  |grad|_K:  2.504e-02  alpha:  4.738e-01  linmin: -1.917e-01  t[s]: 177946.46
LatticeMinimize: None of the convergence criteria satisfied after 30 iterations.

#--- Lowdin population analysis ---
# oxidation-state Ti +0.340 +0.439 +0.440 +0.345 +0.337 +0.445 +0.375 +0.345 +0.344 +0.450 +0.444 +0.337 +0.349 +0.381 +0.443 +0.331
# oxidation-state O -0.816


Dumping 'Ti16O_oct.Ecomponents' ... done
End date and time: Wed Nov 15 19:24:25 2023  (Duration: 2-1:27:18.02)
Done!
