--------------------------------------------------------------------------
Initialization of PSM library failed.

  Error: PSM is in the finalized state
--------------------------------------------------------------------------

*************** JDFTx 1.7.0 (git hash 3664913) ***************

Start date and time: Sun Jun 16 20:48:38 2024
Executable jdftx with command-line: -i Ir_oct.in
Running on hosts (process indices):  node3001.physics.cornell.edu (0-15)
Divided in process groups (process indices):  0 (0)  1 (1)  2 (2)  3 (3)  4 (4)  5 (5)  6 (6)  7 (7)  8 (8)  9 (9)  10 (10)  11 (11)  12 (12)  13 (13)  14 (14)  15 (15)
Resource initialization completed at t[s]:      0.00
Run totals: 16 processes, 32 threads, 0 GPUs


Input parsed successfully to the following command list (including defaults):

basis kpoint-dependent
coords-type Lattice
core-overlap-check vector
coulomb-interaction Periodic
davidson-band-ratio 1.1
dump End Ecomponents
dump-name $INPUT.$VAR
elec-cutoff 20 100
elec-eigen-algo Davidson
elec-ex-corr gga-PBEsol
elec-smearing Fermi 0.01
electronic-minimize  \
	dirUpdateScheme      FletcherReeves \
	linminMethod         DirUpdateRecommended \
	nIterations          100 \
	history              15 \
	knormThreshold       0 \
	maxThreshold         no \
	energyDiffThreshold  1e-08 \
	nEnergyDiff          2 \
	alphaTstart          1 \
	alphaTmin            1e-10 \
	updateTestStepSize   yes \
	alphaTreduceFactor   0.1 \
	alphaTincreaseFactor 3 \
	nAlphaAdjustMax      3 \
	wolfeEnergy          0.0001 \
	wolfeGradient        0.9 \
	fdTest               no
electronic-scf  \
	nIterations	50 \
	energyDiffThreshold	1e-08 \
	residualThreshold	1e-07 \
	mixFraction	0.5 \
	qMetric	0.8 \
	history	10 \
	nEigSteps	2 \
	eigDiffThreshold	1e-08 \
	mixedVariable	Density \
	qKerker	0.8 \
	qKappa	-1 \
	verbose	no \
	mixFractionMag	1.5
exchange-regularization WignerSeitzTruncated
fluid None
fluid-ex-corr lda-TF lda-PZ
fluid-gummel-loop 10 1.000000e-05
fluid-minimize  \
	dirUpdateScheme      PolakRibiere \
	linminMethod         DirUpdateRecommended \
	nIterations          100 \
	history              15 \
	knormThreshold       0 \
	maxThreshold         no \
	energyDiffThreshold  0 \
	nEnergyDiff          2 \
	alphaTstart          1 \
	alphaTmin            1e-10 \
	updateTestStepSize   yes \
	alphaTreduceFactor   0.1 \
	alphaTincreaseFactor 3 \
	nAlphaAdjustMax      3 \
	wolfeEnergy          0.0001 \
	wolfeGradient        0.9 \
	fdTest               no
fluid-solvent H2O 55.338 ScalarEOS \
	epsBulk 78.4 \
	pMol 0.92466 \
	epsInf 1.77 \
	Pvap 1.06736e-10 \
	sigmaBulk 4.62e-05 \
	Rvdw 2.61727 \
	Res 1.42 \
	tauNuc 343133 \
	poleEl 15 7 1
forces-output-coords Positions
ion Ir   0.000000000000000   0.000000000000000  -0.000000000000000 0
ion Ir   0.004830000000000   0.263660000000000   0.259690000000000 1
ion Ir   0.263280000000000   0.014530000000000   0.266050000000000 1
ion Ir   0.251840000000000   0.234730000000000   0.003810000000000 1
ion Ir   0.000110000000000  -0.011310000000000   0.517010000000000 1
ion Ir  -0.000960000000000   0.260290000000000   0.764450000000000 1
ion Ir   0.244800000000000  -0.004930000000000   0.753530000000000 1
ion Ir   0.262970000000000   0.252290000000000   0.496950000000000 1
ion Ir   0.000330000000000   0.496790000000000   0.015240000000000 1
ion Ir   0.003620000000000   0.754060000000000   0.269790000000000 1
ion Ir   0.249340000000000   0.514640000000000   0.246850000000000 1
ion Ir   0.267960000000000   0.764080000000000  -0.016920000000000 1
ion Ir  -0.007380000000000   0.504230000000000   0.495810000000000 1
ion Ir  -0.006220000000000   0.748970000000000   0.767090000000000 1
ion Ir   0.257180000000000   0.518050000000000   0.737970000000000 1
ion Ir   0.256250000000000   0.753340000000000   0.497260000000000 1
ion Ir   0.512130000000000   0.008350000000000   0.010540000000000 1
ion Ir   0.497660000000000   0.229540000000000   0.249510000000000 1
ion Ir   0.737610000000000  -0.010040000000000   0.256180000000000 1
ion Ir   0.749120000000000   0.240770000000000   0.008700000000000 1
ion Ir   0.490300000000000  -0.002030000000000   0.501190000000000 1
ion Ir   0.504770000000000   0.248120000000000   0.758890000000000 1
ion Ir   0.748700000000000  -0.004570000000000   0.739380000000000 1
ion Ir   0.762010000000000   0.255180000000000   0.501510000000000 1
ion Ir   0.497990000000000   0.496850000000000   0.003520000000000 1
ion Ir   0.496730000000000   0.755290000000000   0.254640000000000 1
ion Ir   0.748990000000000   0.510960000000000   0.234900000000000 1
ion Ir   0.754510000000000   0.758480000000000  -0.007590000000000 1
ion Ir   0.501200000000000   0.491010000000000   0.482560000000000 1
ion Ir   0.506930000000000   0.737020000000000   0.758910000000000 1
ion Ir   0.754240000000000   0.476980000000000   0.769830000000000 1
ion Ir   0.748750000000000   0.733960000000000   0.499470000000000 1
ion O   0.220000000000000   0.290000000000000   0.300000000000000 1
ion-species GBRV/$ID_pbesol.uspp
ion-width 0
ionic-minimize  \
	dirUpdateScheme      L-BFGS \
	linminMethod         DirUpdateRecommended \
	nIterations          30 \
	history              15 \
	knormThreshold       0.0001 \
	maxThreshold         no \
	energyDiffThreshold  1e-06 \
	nEnergyDiff          2 \
	alphaTstart          1 \
	alphaTmin            1e-10 \
	updateTestStepSize   yes \
	alphaTreduceFactor   0.1 \
	alphaTincreaseFactor 3 \
	nAlphaAdjustMax      3 \
	wolfeEnergy          0.0001 \
	wolfeGradient        0.9 \
	fdTest               no
kpoint   0.000000000000   0.000000000000   0.000000000000  1.00000000000000
kpoint-folding 4 4 4 
latt-move-scale 1 1 1
latt-scale 1 1 1 
lattice  \
	  13.892155804525276   -0.000000000000000   -0.000000000000000  \
	  -0.000000000000000   13.892155804525276   -0.000000000000000  \
	  -0.000000000000000   -0.000000000000000   13.892155804525276 
lattice-minimize  \
	dirUpdateScheme      L-BFGS \
	linminMethod         DirUpdateRecommended \
	nIterations          0 \
	history              15 \
	knormThreshold       0 \
	maxThreshold         no \
	energyDiffThreshold  1e-06 \
	nEnergyDiff          2 \
	alphaTstart          1 \
	alphaTmin            1e-10 \
	updateTestStepSize   yes \
	alphaTreduceFactor   0.1 \
	alphaTincreaseFactor 3 \
	nAlphaAdjustMax      3 \
	wolfeEnergy          0.0001 \
	wolfeGradient        0.9 \
	fdTest               no
lcao-params -1 1e-06 0.01
pcm-variant GLSSA13
perturb-minimize  \
	nIterations            0 \
	algorithm              MINRES \
	residualTol            0.0001 \
	residualDiffThreshold  0.0001 \
	CGBypass               no \
	recomputeResidual      no
spintype no-spin
subspace-rotation-factor 1 yes
symmetries automatic
symmetry-threshold 0.0001



---------- Setting up symmetries ----------

Found 48 point-group symmetries of the bravais lattice
Found 1 space-group symmetries with basis
Applied RMS atom displacement 0 bohrs to make symmetries exact.

---------- Initializing the Grid ----------
R = 
[      13.8922            0            0  ]
[            0      13.8922            0  ]
[            0            0      13.8922  ]
unit cell volume = 2681.07
G =
[   0.452283          0          0  ]
[          0   0.452283          0  ]
[          0          0   0.452283  ]
Minimum fftbox size, Smin = [  64  64  64  ]
Chosen fftbox size, S = [  64  64  64  ]

---------- Initializing tighter grid for wavefunction operations ----------
R = 
[      13.8922            0            0  ]
[            0      13.8922            0  ]
[            0            0      13.8922  ]
unit cell volume = 2681.07
G =
[   0.452283          0          0  ]
[          0   0.452283          0  ]
[          0          0   0.452283  ]
Minimum fftbox size, Smin = [  56  56  56  ]
Chosen fftbox size, S = [  56  56  56  ]

---------- Exchange Correlation functional ----------
Initalized PBEsol GGA exchange.
Initalized PBEsol GGA correlation.

---------- Setting up pseudopotentials ----------
Width of ionic core gaussian charges (only for fluid interactions / plotting) set to 0

Reading pseudopotential file '/home/rc652/build/pseudopotentials/GBRV/ir_pbesol.uspp':
  Title: Ir.  Created by USPP 7.3.6 on 3-2-2014
  Reference state energy: -90.341717.  15 valence electrons in orbitals:
    |510>  occupation: 6  eigenvalue: -2.020249
    |520>  occupation: 8.5  eigenvalue: -0.307346
    |600>  occupation: 0  eigenvalue: -0.313250
    |610>  occupation: 0  eigenvalue: -0.121182
  lMax: 2  lLocal: 3  QijEcut: 5
  7 projectors sampled on a log grid with 745 points:
    l: 0  eig: -0.313250  rCut: 2.55
    l: 0  eig: 0.250000  rCut: 2.55
    l: 1  eig: -2.020249  rCut: 1.62
    l: 1  eig: -0.121182  rCut: 1.62
    l: 1  eig: 1.000000  rCut: 1.62
    l: 2  eig: -0.500000  rCut: 1.65
    l: 2  eig: -0.307346  rCut: 1.65
  Partial core density with radius 1.15
  Transforming core density to a uniform radial grid of dG=0.02 with 1259 points.
  Transforming local potential to a uniform radial grid of dG=0.02 with 1259 points.
  Transforming nonlocal projectors to a uniform radial grid of dG=0.02 with 432 points.
  Transforming density augmentations to a uniform radial grid of dG=0.02 with 1259 points.
  Transforming atomic orbitals to a uniform radial grid of dG=0.02 with 432 points.
  Core radius for overlap checks: 2.55 bohrs.

Reading pseudopotential file '/home/rc652/build/pseudopotentials/GBRV/o_pbesol.uspp':
  Title: O.  Created by USPP 7.3.6 on 3-2-2014
  Reference state energy: -15.849885.  6 valence electrons in orbitals:
    |200>  occupation: 2  eigenvalue: -0.873214
    |210>  occupation: 4  eigenvalue: -0.330058
  lMax: 2  lLocal: 2  QijEcut: 6
  5 projectors sampled on a log grid with 511 points:
    l: 0  eig: -0.873214  rCut: 1.25
    l: 0  eig: 0.000000  rCut: 1.25
    l: 1  eig: -0.330058  rCut: 1.25
    l: 1  eig: 0.000000  rCut: 1.25
    l: 2  eig: 1.000000  rCut: 1.25
  Partial core density with radius 0.7
  Transforming core density to a uniform radial grid of dG=0.02 with 1259 points.
  Transforming local potential to a uniform radial grid of dG=0.02 with 1259 points.
  Transforming nonlocal projectors to a uniform radial grid of dG=0.02 with 432 points.
  Transforming density augmentations to a uniform radial grid of dG=0.02 with 1259 points.
  Transforming atomic orbitals to a uniform radial grid of dG=0.02 with 432 points.
  Core radius for overlap checks: 1.25 bohrs.

Initialized 2 species with 33 total atoms.

Folded 1 k-points by 4x4x4 to 64 k-points.

---------- Setting up k-points, bands, fillings ----------
Adding inversion symmetry to k-mesh for non-inversion-symmetric unit cell.
Reduced to 36 k-points under symmetry. 
Computing the number of bands and number of electrons
Calculating initial fillings.
nElectrons: 486.000000   nBands: 388   nStates: 36

----- Setting up reduced wavefunction bases (one per k-point) -----
average nbasis = 11446.484 , ideal nbasis = 11453.756

---------- Setting up ewald sum ----------
Optimum gaussian width for ewald sums = 3.094525 bohr.
Real space sum over 729 unit cells with max indices [  4  4  4  ]
Reciprocal space sum over 4913 terms with max indices [  8  8  8  ]

---------- Allocating electronic variables ----------
Initializing wave functions:  linear combination of atomic orbitals
Ir pseudo-atom occupations:   s ( 2 )  p ( 6 0 )  d ( 7 )
O pseudo-atom occupations:   s ( 2 )  p ( 4 )
	FillingsUpdate:  mu: +1.113729316  nElectrons: 486.000000
LCAOMinimize: Iter:   0  F: -2463.2311076979240170  |grad|_K:  1.164e-03  alpha:  1.000e+00
	FillingsUpdate:  mu: +1.108627641  nElectrons: 486.000000
LCAOMinimize: Iter:   1  F: -2463.3137256487543709  |grad|_K:  1.157e-03  alpha:  1.237e-01  linmin:  2.244e-01  cgtest: -8.081e-01  t[s]:     86.90
LCAOMinimize: 	Bad step direction: g.d > 0.
LCAOMinimize: 	Undoing step.
LCAOMinimize: 	Step failed: resetting search direction.
	FillingsUpdate:  mu: +1.108627641  nElectrons: 486.000000
LCAOMinimize: Iter:   2  F: -2463.3137256487543709  |grad|_K:  1.157e-03  alpha:  0.000e+00
	FillingsUpdate:  mu: +1.101560019  nElectrons: 486.000000
LCAOMinimize: Iter:   3  F: -2463.5294050076286112  |grad|_K:  2.216e-04  alpha:  5.870e-02  linmin: -8.491e-03  cgtest:  1.880e-02  t[s]:    140.32
LCAOMinimize: 	Predicted alpha/alphaT>3.000000, increasing alphaT to 1.760931e-01.
	FillingsUpdate:  mu: +1.096179496  nElectrons: 486.000000
LCAOMinimize: Iter:   4  F: -2463.5802434372772041  |grad|_K:  2.899e-04  alpha:  3.756e-01  linmin: -3.024e-03  cgtest:  1.160e-02  t[s]:    178.39
	FillingsUpdate:  mu: +1.092610013  nElectrons: 486.000000
LCAOMinimize: Iter:   5  F: -2463.6060267996035691  |grad|_K:  1.405e-04  alpha:  1.155e-01  linmin:  9.234e-03  cgtest: -1.254e-01  t[s]:    209.48
	FillingsUpdate:  mu: +1.091456991  nElectrons: 486.000000
LCAOMinimize: Iter:   6  F: -2463.6109379814324711  |grad|_K:  2.911e-05  alpha:  9.532e-02  linmin: -1.673e-03  cgtest:  2.698e-01  t[s]:    240.31
LCAOMinimize: Encountered beta<0, resetting CG.
	FillingsUpdate:  mu: +1.091451923  nElectrons: 486.000000
LCAOMinimize: Iter:   7  F: -2463.6112282615627009  |grad|_K:  1.847e-05  alpha:  1.258e-01  linmin:  4.539e-04  cgtest: -1.301e-03  t[s]:    270.61
	FillingsUpdate:  mu: +1.091502093  nElectrons: 486.000000
LCAOMinimize: Iter:   8  F: -2463.6113394795265776  |grad|_K:  1.132e-05  alpha:  1.198e-01  linmin:  4.546e-05  cgtest:  2.319e-03  t[s]:    301.11
	FillingsUpdate:  mu: +1.091583474  nElectrons: 486.000000
LCAOMinimize: Iter:   9  F: -2463.6114188581109374  |grad|_K:  8.064e-06  alpha:  2.273e-01  linmin:  2.132e-06  cgtest: -4.401e-04  t[s]:    332.27
	FillingsUpdate:  mu: +1.091613888  nElectrons: 486.000000
LCAOMinimize: Iter:  10  F: -2463.6114450593422589  |grad|_K:  4.163e-06  alpha:  1.479e-01  linmin: -8.965e-06  cgtest:  1.955e-04  t[s]:    363.08
	FillingsUpdate:  mu: +1.091622966  nElectrons: 486.000000
LCAOMinimize: Iter:  11  F: -2463.6114490620807373  |grad|_K:  1.927e-06  alpha:  8.476e-02  linmin: -5.723e-06  cgtest: -1.015e-04  t[s]:    394.06
LCAOMinimize: 	Predicted alpha/alphaT>3.000000, increasing alphaT to 2.542812e-01.
	FillingsUpdate:  mu: +1.091628015  nElectrons: 486.000000
LCAOMinimize: Iter:  12  F: -2463.6114525058692379  |grad|_K:  1.204e-06  alpha:  3.406e-01  linmin: -4.988e-05  cgtest: -3.174e-04  t[s]:    432.73
	FillingsUpdate:  mu: +1.091626225  nElectrons: 486.000000
LCAOMinimize: Iter:  13  F: -2463.6114531479515790  |grad|_K:  1.062e-06  alpha:  1.625e-01  linmin:  9.340e-06  cgtest: -2.025e-04  t[s]:    463.99
	FillingsUpdate:  mu: +1.091623613  nElectrons: 486.000000
LCAOMinimize: Iter:  14  F: -2463.6114535155470548  |grad|_K:  4.247e-07  alpha:  1.195e-01  linmin: -1.835e-04  cgtest:  1.295e-03  t[s]:    494.51
LCAOMinimize: Converged (|Delta F|<1.000000e-06 for 2 iters).


---- Citations for features of the code used in this run ----

   Software package:
      R. Sundararaman, K. Letchworth-Weaver, K.A. Schwarz, D. Gunceler, Y. Ozhabes and T.A. Arias, 'JDFTx: software for joint density-functional theory', SoftwareX 6, 278 (2017)

   gga-PBEsol exchange-correlation functional:
      J.P. Perdew et al., Phys. Rev. Lett. 100, 136406 (2008)

   Pseudopotentials:
      KF Garrity, JW Bennett, KM Rabe and D Vanderbilt, Comput. Mater. Sci. 81, 446 (2014)

This list may not be complete. Please suggest additional citations or
report any other bugs at https://github.com/shankar1729/jdftx/issues

Initialization completed successfully at t[s]:    508.20


-------- Electronic minimization -----------
Will mix electronic density at each iteration.
	FillingsUpdate:  mu: +1.091623613  nElectrons: 486.000000
	FillingsUpdate:  mu: +1.087676351  nElectrons: 486.000000
SCF: Cycle:  0   F: -2464.435965088287958   dF: -8.245e-01   |Residual|: 2.373e-01   |deigs|: 1.388e-01  t[s]:    643.07
	FillingsUpdate:  mu: +1.083974989  nElectrons: 486.000000
SCF: Cycle:  1   F: -2464.506657755383458   dF: -7.069e-02   |Residual|: 1.584e-01   |deigs|: 1.039e-02  t[s]:    757.16
	FillingsUpdate:  mu: +1.083084397  nElectrons: 486.000000
SCF: Cycle:  2   F: -2464.468359281720495   dF: +3.830e-02   |Residual|: 1.043e-01   |deigs|: 6.901e-03  t[s]:    870.13
	FillingsUpdate:  mu: +1.082561031  nElectrons: 486.000000
SCF: Cycle:  3   F: -2464.530718184172201   dF: -6.236e-02   |Residual|: 4.609e-02   |deigs|: 8.662e-03  t[s]:    982.83
	FillingsUpdate:  mu: +1.082568731  nElectrons: 486.000000
SCF: Cycle:  4   F: -2464.539115952430620   dF: -8.398e-03   |Residual|: 2.266e-02   |deigs|: 1.011e-02  t[s]:   1077.78
	FillingsUpdate:  mu: +1.082615664  nElectrons: 486.000000
SCF: Cycle:  5   F: -2464.540072369301470   dF: -9.564e-04   |Residual|: 1.201e-02   |deigs|: 6.922e-03  t[s]:   1168.26
	FillingsUpdate:  mu: +1.082625886  nElectrons: 486.000000
SCF: Cycle:  6   F: -2464.540498144738649   dF: -4.258e-04   |Residual|: 3.814e-03   |deigs|: 3.306e-03  t[s]:   1234.48
	FillingsUpdate:  mu: +1.082617119  nElectrons: 486.000000
SCF: Cycle:  7   F: -2464.540553141820510   dF: -5.500e-05   |Residual|: 1.185e-03   |deigs|: 2.828e-03  t[s]:   1302.62
	FillingsUpdate:  mu: +1.082610406  nElectrons: 486.000000
SCF: Cycle:  8   F: -2464.540553503769388   dF: -3.619e-07   |Residual|: 9.296e-04   |deigs|: 2.827e-03  t[s]:   1370.24
	FillingsUpdate:  mu: +1.082608580  nElectrons: 486.000000
SCF: Cycle:  9   F: -2464.540556984224622   dF: -3.480e-06   |Residual|: 2.500e-04   |deigs|: 4.735e-03  t[s]:   1462.84
	FillingsUpdate:  mu: +1.082609874  nElectrons: 486.000000
SCF: Cycle: 10   F: -2464.540557086460012   dF: -1.022e-07   |Residual|: 1.532e-04   |deigs|: 2.458e-03  t[s]:   1529.47
	FillingsUpdate:  mu: +1.082609788  nElectrons: 486.000000
SCF: Cycle: 11   F: -2464.540557168825217   dF: -8.237e-08   |Residual|: 4.843e-05   |deigs|: 3.717e-03  t[s]:   1618.96
	FillingsUpdate:  mu: +1.082609793  nElectrons: 486.000000
SCF: Cycle: 12   F: -2464.540557173407251   dF: -4.582e-09   |Residual|: 3.069e-05   |deigs|: 2.347e-03  t[s]:   1689.59
	FillingsUpdate:  mu: +1.082609799  nElectrons: 486.000000
SCF: Cycle: 13   F: -2464.540557177386745   dF: -3.979e-09   |Residual|: 1.292e-05   |deigs|: 3.822e-03  t[s]:   1780.33
SCF: Converged (|Delta E|<1.000000e-08 for 2 iters).

Setting wave functions to eigenvectors of Hamiltonian

# Ionic positions in lattice coordinates:
ion Ir   0.000000000000000   0.000000000000000   0.000000000000000 0
ion Ir   0.004830000000000   0.263660000000000   0.259690000000000 1
ion Ir   0.263280000000000   0.014530000000000   0.266050000000000 1
ion Ir   0.251840000000000   0.234730000000000   0.003810000000000 1
ion Ir   0.000110000000000  -0.011310000000000   0.517010000000000 1
ion Ir  -0.000960000000000   0.260290000000000   0.764450000000000 1
ion Ir   0.244800000000000  -0.004930000000000   0.753530000000000 1
ion Ir   0.262970000000000   0.252290000000000   0.496950000000000 1
ion Ir   0.000330000000000   0.496790000000000   0.015240000000000 1
ion Ir   0.003620000000000   0.754060000000000   0.269790000000000 1
ion Ir   0.249340000000000   0.514640000000000   0.246850000000000 1
ion Ir   0.267960000000000   0.764080000000000  -0.016920000000000 1
ion Ir  -0.007380000000000   0.504230000000000   0.495810000000000 1
ion Ir  -0.006220000000000   0.748970000000000   0.767090000000000 1
ion Ir   0.257180000000000   0.518050000000000   0.737970000000000 1
ion Ir   0.256250000000000   0.753340000000000   0.497260000000000 1
ion Ir   0.512130000000000   0.008350000000000   0.010540000000000 1
ion Ir   0.497660000000000   0.229540000000000   0.249510000000000 1
ion Ir   0.737610000000000  -0.010040000000000   0.256180000000000 1
ion Ir   0.749120000000000   0.240770000000000   0.008700000000000 1
ion Ir   0.490300000000000  -0.002030000000000   0.501190000000000 1
ion Ir   0.504770000000000   0.248120000000000   0.758890000000000 1
ion Ir   0.748700000000000  -0.004570000000000   0.739380000000000 1
ion Ir   0.762010000000000   0.255180000000000   0.501510000000000 1
ion Ir   0.497990000000000   0.496850000000000   0.003520000000000 1
ion Ir   0.496730000000000   0.755290000000000   0.254640000000000 1
ion Ir   0.748990000000000   0.510960000000000   0.234900000000000 1
ion Ir   0.754510000000000   0.758480000000000  -0.007590000000000 1
ion Ir   0.501200000000000   0.491010000000000   0.482560000000000 1
ion Ir   0.506930000000000   0.737020000000000   0.758910000000000 1
ion Ir   0.754240000000000   0.476980000000000   0.769830000000000 1
ion Ir   0.748750000000000   0.733960000000000   0.499470000000000 1
ion O   0.220000000000000   0.290000000000000   0.300000000000000 1

# Forces in Lattice coordinates:
force Ir   0.019706875129825  -0.090561173057252   0.480102430402250 0
force Ir  -4.914127740166206  -1.541318778519441  -1.099458924070104 1
force Ir  -1.272568166975671  -2.524869039466118  -1.061815221465097 1
force Ir   0.021825348889329   0.609578661076683  -1.218352650350392 1
force Ir  -0.061828301776137   0.475521123185990  -0.513563388855572 1
force Ir   0.619111345074921  -0.578270783193163  -0.535073462020196 1
force Ir   0.384140302634459   0.533504432377687  -0.259317189999063 1
force Ir   0.924639484536833  -1.309656199712027   8.972042917345187 1
force Ir   0.348269820070611   0.501751282544662  -0.836135517797482 1
force Ir  -0.097871149765636   0.360236256498405  -1.083377551679293 1
force Ir   0.586733883799338   2.981694191547181  -0.894507215338181 1
force Ir  -0.811342803479274  -0.636426081540590   1.331369618091705 1
force Ir   0.302498885120131   0.054522866318028   0.927818563993110 1
force Ir   0.342567055150110  -0.366147914761629  -0.709256151571712 1
force Ir  -0.448463587918867  -1.001035867959149   0.482419659501146 1
force Ir  -0.218927972511268  -0.101146356653653   0.420545270047092 1
force Ir  -0.459609883383695  -0.921490033407101  -1.023307464355113 1
force Ir   1.920119513611798   1.362924014136579   0.007878865890186 1
force Ir   1.221147609095935   0.286035429273019   0.303678280198875 1
force Ir   0.408232388343036   0.206275517048180   0.210973360065209 1
force Ir   1.076036152350609  -0.224296625092859   0.968698681164666 1
force Ir  -0.379657124466154  -0.086150799333347  -0.427983302630812 1
force Ir  -0.136433615859178   0.233522496765662   0.353997618902394 1
force Ir  -0.527768001215606  -0.388580402924413  -0.020971318161298 1
force Ir  -0.142218745710358  -0.012060412793961  -0.040548368209134 1
force Ir   0.076145101806049  -0.348592586976974  -0.387294832825790 1
force Ir  -0.147026043822487  -0.329651774943702   0.620083696047219 1
force Ir  -0.231787543407039  -0.357808512996899   0.661783854307793 1
force Ir   0.410538604977303   0.332161790118906   0.720455446426581 1
force Ir   0.432713918953291   0.496633406422341  -0.767823661082831 1
force Ir  -0.244143864809825   1.205256468038571  -0.686970518917152 1
force Ir  -0.220162233465577   0.513566912141136   0.397553982504357 1
force O   1.219110204989553   0.664262371822916  -5.293504755943936 1

# Energy components:
   Eewald =    -2384.1836802483830979
       EH =      260.3128119940901115
     Eloc =     -774.7410831989564031
      Enl =       26.4659784159751155
      Exc =     -811.4962446281338089
 Exc_core =      457.0356955378119892
       KE =      762.3043420977198821
-------------------------------------
     Etot =    -2464.3021800298756716
       TS =        0.2383771475110864
-------------------------------------
        F =    -2464.5405571773867450

IonicMinimize: Iter:   0  F: -2464.540557177386745  |grad|_K:  1.015e-01  t[s]:   1793.93

#--- Lowdin population analysis ---
# oxidation-state Ir -0.013 +0.092 +0.016 -0.018 -0.016 +0.002 +0.003 +0.144 -0.018 +0.007 +0.069 +0.016 -0.021 +0.024 -0.003 +0.023 +0.036 +0.031 +0.012 +0.015 +0.011 -0.017 +0.013 -0.010 -0.011 +0.022 +0.011 +0.022 -0.036 +0.016 +0.027 +0.015
# oxidation-state O +0.131


-------- Electronic minimization -----------
Will mix electronic density at each iteration.
	FillingsUpdate:  mu: +1.082609799  nElectrons: 486.000000
	FillingsUpdate:  mu: +1.084682081  nElectrons: 486.000000
SCF: Cycle:  0   F: -2455.511502274699524   dF: +8.480e+00   |Residual|: 1.071e+00   |deigs|: 4.818e-03  t[s]:   1950.00
	FillingsUpdate:  mu: +1.086162927  nElectrons: 486.000000
SCF: Cycle:  1   F: -2453.239323311549470   dF: +2.272e+00   |Residual|: 1.500e+00   |deigs|: 4.189e-02  t[s]:   2064.05
	FillingsUpdate:  mu: +1.082910571  nElectrons: 486.000000
SCF: Cycle:  2   F: -2464.455768563564106   dF: -1.122e+01   |Residual|: 2.950e-01   |deigs|: 3.232e-02  t[s]:   2176.55
	FillingsUpdate:  mu: +1.082619656  nElectrons: 486.000000
SCF: Cycle:  3   F: -2464.464590915007193   dF: -8.822e-03   |Residual|: 2.198e-01   |deigs|: 2.631e-03  t[s]:   2288.99
	FillingsUpdate:  mu: +1.082426260  nElectrons: 486.000000
SCF: Cycle:  4   F: -2464.651769982995575   dF: -1.872e-01   |Residual|: 6.760e-02   |deigs|: 2.152e-03  t[s]:   2399.83
	FillingsUpdate:  mu: +1.082426337  nElectrons: 486.000000
SCF: Cycle:  5   F: -2464.664820775372391   dF: -1.305e-02   |Residual|: 3.376e-02   |deigs|: 6.385e-04  t[s]:   2512.68
	FillingsUpdate:  mu: +1.082449049  nElectrons: 486.000000
SCF: Cycle:  6   F: -2464.668957075606158   dF: -4.136e-03   |Residual|: 1.650e-02   |deigs|: 2.866e-04  t[s]:   2580.37
	FillingsUpdate:  mu: +1.082461000  nElectrons: 486.000000
SCF: Cycle:  7   F: -2464.669748522238933   dF: -7.914e-04   |Residual|: 8.294e-03   |deigs|: 1.351e-04  t[s]:   2649.13
	FillingsUpdate:  mu: +1.082463730  nElectrons: 486.000000
SCF: Cycle:  8   F: -2464.669960851410451   dF: -2.123e-04   |Residual|: 2.992e-03   |deigs|: 6.386e-05  t[s]:   2716.10
	FillingsUpdate:  mu: +1.082460853  nElectrons: 486.000000
SCF: Cycle:  9   F: -2464.669991913264312   dF: -3.106e-05   |Residual|: 1.021e-03   |deigs|: 3.480e-05  t[s]:   2781.34
	FillingsUpdate:  mu: +1.082459703  nElectrons: 486.000000
SCF: Cycle: 10   F: -2464.669993930072451   dF: -2.017e-06   |Residual|: 6.544e-04   |deigs|: 9.571e-06  t[s]:   2847.02
	FillingsUpdate:  mu: +1.082459430  nElectrons: 486.000000
SCF: Cycle: 11   F: -2464.669995381102581   dF: -1.451e-06   |Residual|: 2.867e-04   |deigs|: 9.176e-06  t[s]:   2913.64
	FillingsUpdate:  mu: +1.082459392  nElectrons: 486.000000
SCF: Cycle: 12   F: -2464.669995662946803   dF: -2.818e-07   |Residual|: 1.738e-04   |deigs|: 3.742e-06  t[s]:   2980.87
	FillingsUpdate:  mu: +1.082459249  nElectrons: 486.000000
SCF: Cycle: 13   F: -2464.669995780078352   dF: -1.171e-07   |Residual|: 3.411e-05   |deigs|: 1.945e-06  t[s]:   3046.69
	FillingsUpdate:  mu: +1.082459301  nElectrons: 486.000000
SCF: Cycle: 14   F: -2464.669995778919656   dF: +1.159e-09   |Residual|: 3.070e-05   |deigs|: 5.297e-07  t[s]:   3112.52
	FillingsUpdate:  mu: +1.082459302  nElectrons: 486.000000
SCF: Cycle: 15   F: -2464.669995781989201   dF: -3.070e-09   |Residual|: 1.093e-05   |deigs|: 4.735e-07  t[s]:   3177.88
	FillingsUpdate:  mu: +1.082459311  nElectrons: 486.000000
SCF: Cycle: 16   F: -2464.669995781782291   dF: +2.069e-10   |Residual|: 9.489e-06   |deigs|: 3.887e-07  t[s]:   3242.02
	FillingsUpdate:  mu: +1.082459312  nElectrons: 486.000000
SCF: Cycle: 17   F: -2464.669995782439855   dF: -6.576e-10   |Residual|: 2.846e-06   |deigs|: 2.752e-07  t[s]:   3292.06
	FillingsUpdate:  mu: +1.082459312  nElectrons: 486.000000
SCF: Cycle: 18   F: -2464.669995782523074   dF: -8.322e-11   |Residual|: 1.777e-06   |deigs|: 1.590e-07  t[s]:   3334.71
SCF: Converged (|Delta E|<1.000000e-08 for 2 iters).

Setting wave functions to eigenvectors of Hamiltonian

# Ionic positions in lattice coordinates:
ion Ir   0.000000000000000   0.000000000000000   0.000000000000000 0
ion Ir   0.000948847810673   0.262442674552229   0.258821653136456 1
ion Ir   0.262274932368779   0.012535871739924   0.265211383934372 1
ion Ir   0.251857237545523   0.235211442013741   0.002847751498068 1
ion Ir   0.000061168333123  -0.010934435923137   0.516604390342212 1
ion Ir  -0.000471029122679   0.259833284783204   0.764027401799795 1
ion Ir   0.245103391986413  -0.004508641011137   0.753325192650067 1
ion Ir   0.263700275391585   0.251255640435996   0.504036072209065 1
ion Ir   0.000605061668339   0.497186280518479   0.014579624574887 1
ion Ir   0.003542701881744   0.754344512696761   0.268934354119613 1
ion Ir   0.249803399329050   0.516994926357497   0.246143522915816 1
ion Ir   0.267319205729985   0.763577354035076  -0.015868491292600 1
ion Ir  -0.007141087974849   0.504273061872456   0.496542786211784 1
ion Ir  -0.005949442345338   0.748680818306700   0.766529833229616 1
ion Ir   0.256825805821884   0.517259387147434   0.738351012504486 1
ion Ir   0.256077091841168   0.753260115140606   0.497592144437804 1
ion Ir   0.511767002536472   0.007622212028318   0.009731797157983 1
ion Ir   0.499176500271882   0.230616430203089   0.249516222686755 1
ion Ir   0.738574455945619  -0.009814090725507   0.256419843505168 1
ion Ir   0.749442419788729   0.240932915316192   0.008866625647847 1
ion Ir   0.491149847681890  -0.002207148292345   0.501955073112868 1
ion Ir   0.504470148804075   0.248051958552743   0.758551981043263 1
ion Ir   0.748592245449266  -0.004385565162832   0.739659585453669 1
ion Ir   0.761593171614235   0.254873101245779   0.501493436963445 1
ion Ir   0.497877676384200   0.496840474749540   0.003487975112498 1
ion Ir   0.496790139000085   0.755014683412059   0.254334116582267 1
ion Ir   0.748873879605488   0.510699642765576   0.235389738834994 1
ion Ir   0.754326935419851   0.758197404722261  -0.007067326599792 1
ion Ir   0.501524241226472   0.491272339631181   0.483129011914435 1
ion Ir   0.507271755172575   0.737412238446891   0.758303576919283 1
ion Ir   0.754047176462331   0.477931905206166   0.769287434304830 1
ion Ir   0.748576117028372   0.734365612440460   0.499783986040078 1
ion O   0.220962846814594   0.290524630920278   0.295819217843115 1

# Forces in Lattice coordinates:
force Ir   0.016703194290648  -0.094263353594492   0.452748314132704 0
force Ir  -3.964907609390403  -1.387562458740959  -0.802893592271347 1
force Ir  -1.127402513000739  -2.119064636460639  -0.894512729843975 1
force Ir   0.032636677189482   0.567360407221319  -1.101717573052494 1
force Ir  -0.044166205004191   0.474604118026159  -0.502214234312936 1
force Ir   0.539247835796491  -0.537306595635206  -0.512103684603561 1
force Ir   0.362956013928460   0.454601405232480  -0.205564047923315 1
force Ir   0.271031748128188  -0.834598361161699   5.929211336424697 1
force Ir   0.332439363127378   0.459594320448019  -0.771371386873821 1
force Ir  -0.109522885402675   0.327044731201824  -1.017651909106347 1
force Ir   0.489150033124849   2.663689326863770  -0.704821620503322 1
force Ir  -0.766772033183875  -0.591847661314911   1.215390073924611 1
force Ir   0.333994714732001   0.006742518916387   0.815845271470308 1
force Ir   0.325756530651333  -0.327765422043681  -0.677621212962062 1
force Ir  -0.406604340919441  -0.903520748019256   0.506693333356317 1
force Ir  -0.215603250921603  -0.100603560411663   0.420338600749122 1
force Ir  -0.424619352218814  -0.842056180327568  -0.928028400334594 1
force Ir   1.614505753071932   1.195187698081321   0.064276178762823 1
force Ir   1.127196841401929   0.280657217185919   0.269542687732452 1
force Ir   0.359546025999522   0.201314939786460   0.151770858154364 1
force Ir   0.992739843876788  -0.206156530207092   0.822962453316906 1
force Ir  -0.323697793071769  -0.065973581199351  -0.369557356217102 1
force Ir  -0.100328606710591   0.224381409690511   0.365587403939902 1
force Ir  -0.518094775996411  -0.360158035313663   0.019337950991567 1
force Ir  -0.120269879949675  -0.005525212980862  -0.054515404958085 1
force Ir   0.110110821026080  -0.296270911748514  -0.352070377507499 1
force Ir  -0.127019937204709  -0.312932096843723   0.596674253933981 1
force Ir  -0.208650227606085  -0.344918468444710   0.624310308803733 1
force Ir   0.333165969876518   0.303700235339480   0.684436601658363 1
force Ir   0.348636117740083   0.466825913708632  -0.702171686616080 1
force Ir  -0.222007479078154   1.114023396395782  -0.657249885159175 1
force Ir  -0.181066782843340   0.489494917427398   0.364388818730266 1
force O   1.270984517955632   0.100694441563252  -3.051123668085916 1

# Energy components:
   Eewald =    -2387.5194876149971606
       EH =      257.4046449881371927
     Eloc =     -768.2823329719296908
      Enl =       26.3558244747377799
      Exc =     -811.3885859984250146
 Exc_core =      457.0356343860097468
       KE =      761.9623308790784222
-------------------------------------
     Etot =    -2464.4319718573888167
       TS =        0.2380239251344743
-------------------------------------
        F =    -2464.6699957825230740

IonicMinimize: Iter:   1  F: -2464.669995782523074  |grad|_K:  7.529e-02  alpha:  1.524e-01  linmin: -9.839e-01  t[s]:   3348.11

#--- Lowdin population analysis ---
# oxidation-state Ir -0.012 +0.095 +0.017 -0.012 -0.013 +0.005 +0.007 +0.120 -0.018 +0.008 +0.081 +0.015 -0.019 +0.023 +0.001 +0.024 +0.035 +0.033 +0.013 +0.016 +0.012 -0.010 +0.013 -0.007 -0.011 +0.023 +0.013 +0.022 -0.032 +0.015 +0.025 +0.015
# oxidation-state O +0.079


-------- Electronic minimization -----------
Will mix electronic density at each iteration.
	FillingsUpdate:  mu: +1.082459312  nElectrons: 486.000000
	FillingsUpdate:  mu: +1.085234330  nElectrons: 486.000000
SCF: Cycle:  0   F: -2445.559332976806218   dF: +1.779e+01   |Residual|: 1.535e+00   |deigs|: 7.812e-03  t[s]:   3502.34
	FillingsUpdate:  mu: +1.090141116  nElectrons: 486.000000
SCF: Cycle:  1   F: -2446.079961113065565   dF: -5.206e-01   |Residual|: 1.977e+00   |deigs|: 5.347e-02  t[s]:   3616.73
	FillingsUpdate:  mu: +1.083103620  nElectrons: 486.000000
SCF: Cycle:  2   F: -2464.214971683354179   dF: -1.814e+01   |Residual|: 4.680e-01   |deigs|: 4.474e-02  t[s]:   3730.69
	FillingsUpdate:  mu: +1.082661985  nElectrons: 486.000000
SCF: Cycle:  3   F: -2464.352047964029225   dF: -1.371e-01   |Residual|: 3.341e-01   |deigs|: 3.661e-03  t[s]:   3842.17
	FillingsUpdate:  mu: +1.082263944  nElectrons: 486.000000
SCF: Cycle:  4   F: -2464.763496845467216   dF: -4.114e-01   |Residual|: 9.934e-02   |deigs|: 3.892e-03  t[s]:   3953.11
	FillingsUpdate:  mu: +1.082235217  nElectrons: 486.000000
SCF: Cycle:  5   F: -2464.788358681213140   dF: -2.486e-02   |Residual|: 5.350e-02   |deigs|: 9.821e-04  t[s]:   4065.02
	FillingsUpdate:  mu: +1.082251425  nElectrons: 486.000000
SCF: Cycle:  6   F: -2464.799612251586950   dF: -1.125e-02   |Residual|: 2.481e-02   |deigs|: 4.803e-04  t[s]:   4157.06
	FillingsUpdate:  mu: +1.082253250  nElectrons: 486.000000
SCF: Cycle:  7   F: -2464.801424013271571   dF: -1.812e-03   |Residual|: 1.270e-02   |deigs|: 1.825e-04  t[s]:   4222.80
	FillingsUpdate:  mu: +1.082256114  nElectrons: 486.000000
SCF: Cycle:  8   F: -2464.801901207250467   dF: -4.772e-04   |Residual|: 4.091e-03   |deigs|: 1.019e-04  t[s]:   4290.05
	FillingsUpdate:  mu: +1.082255269  nElectrons: 486.000000
SCF: Cycle:  9   F: -2464.801950862854937   dF: -4.966e-05   |Residual|: 1.908e-03   |deigs|: 4.615e-05  t[s]:   4356.74
	FillingsUpdate:  mu: +1.082254445  nElectrons: 486.000000
SCF: Cycle: 10   F: -2464.801963143368539   dF: -1.228e-05   |Residual|: 1.012e-03   |deigs|: 1.423e-05  t[s]:   4422.08
	FillingsUpdate:  mu: +1.082254362  nElectrons: 486.000000
SCF: Cycle: 11   F: -2464.801966080977309   dF: -2.938e-06   |Residual|: 5.454e-04   |deigs|: 1.416e-05  t[s]:   4487.77
	FillingsUpdate:  mu: +1.082254336  nElectrons: 486.000000
SCF: Cycle: 12   F: -2464.801967317779145   dF: -1.237e-06   |Residual|: 2.369e-04   |deigs|: 6.062e-06  t[s]:   4555.56
	FillingsUpdate:  mu: +1.082254296  nElectrons: 486.000000
SCF: Cycle: 13   F: -2464.801967546831747   dF: -2.291e-07   |Residual|: 5.783e-05   |deigs|: 2.464e-06  t[s]:   4622.41
	FillingsUpdate:  mu: +1.082254323  nElectrons: 486.000000
SCF: Cycle: 14   F: -2464.801967547987260   dF: -1.156e-09   |Residual|: 4.242e-05   |deigs|: 7.443e-07  t[s]:   4689.43
	FillingsUpdate:  mu: +1.082254314  nElectrons: 486.000000
SCF: Cycle: 15   F: -2464.801967552778024   dF: -4.791e-09   |Residual|: 1.819e-05   |deigs|: 6.645e-07  t[s]:   4756.03
SCF: Converged (|Delta E|<1.000000e-08 for 2 iters).

Setting wave functions to eigenvectors of Hamiltonian

# Ionic positions in lattice coordinates:
ion Ir   0.000000000000000   0.000000000000000   0.000000000000000 0
ion Ir  -0.005400292016316   0.259960224406271   0.257688293401283 1
ion Ir   0.260287472903912   0.008994343758736   0.263710575088283 1
ion Ir   0.251936690465227   0.236256640210230   0.000868746917388 1
ion Ir   0.000000792144387  -0.010009894362354   0.515641215813684 1
ion Ir   0.000464366457189   0.258844886150372   0.763061899705740 1
ion Ir   0.245780536380940  -0.003736975487468   0.753002644103574 1
ion Ir   0.263274798350003   0.250321015312709   0.511160752298254 1
ion Ir   0.001230488923098   0.498021332981112   0.013169347345463 1
ion Ir   0.003312028752550   0.754934069977960   0.267045024851913 1
ion Ir   0.250615191348611   0.521727114922889   0.245045450187369 1
ion Ir   0.265888420334099   0.762487830604280  -0.013666771953074 1
ion Ir  -0.006443533607420   0.504216459745780   0.497970903348740 1
ion Ir  -0.005338483104238   0.748097433493857   0.765254082148099 1
ion Ir   0.256093694093471   0.515639120657903   0.739374931752941 1
ion Ir   0.255661336595765   0.753064645365081   0.498411859280200 1
ion Ir   0.510989718451626   0.006095456240266   0.008060455497605 1
ion Ir   0.501879981636594   0.232703176747764   0.249723951600411 1
ion Ir   0.740636284101611  -0.009274423047426   0.256895844793132 1
ion Ir   0.750072760834218   0.241318408016020   0.009076276217339 1
ion Ir   0.492964925440641  -0.002582845081825   0.503347783412584 1
ion Ir   0.503920360192847   0.247952711385919   0.757916328486321 1
ion Ir   0.748449230252571  -0.003961176528217   0.740389710999400 1
ion Ir   0.760596569836386   0.254211982338108   0.501590010894487 1
ion Ir   0.497675091885271   0.496839236806575   0.003361233028877 1
ion Ir   0.497054535858619   0.754513089759865   0.253698706004858 1
ion Ir   0.748655290489479   0.510113569411824   0.236519583346264 1
ion Ir   0.753953669377592   0.757543339851026  -0.005904100901294 1
ion Ir   0.502061238977120   0.491823260763073   0.484411658603899 1
ion Ir   0.507829143780705   0.738279427952976   0.757029593946833 1
ion Ir   0.753646391174198   0.479972001612271   0.768048629837218 1
ion Ir   0.748279959774049   0.735285399119311   0.500446434431889 1
ion O   0.223518076591631   0.289898303168067   0.293140650078689 1

# Forces in Lattice coordinates:
force Ir   0.015241717126552  -0.093856717027757   0.400794155826491 0
force Ir  -2.504798625513183  -1.080607752137033  -0.524852927491910 1
force Ir  -0.857342628302537  -1.584379077753419  -0.721950085661631 1
force Ir   0.038128224832750   0.517761192464550  -0.845674769851088 1
force Ir  -0.021921796863835   0.445953230942455  -0.462784796613955 1
force Ir   0.387407889664577  -0.459460811412140  -0.459964198450420 1
force Ir   0.321430086461340   0.303062991464008  -0.121968352919023 1
force Ir  -0.087690239600728  -0.550718162361991   3.910232007869617 1
force Ir   0.297845615522751   0.361447188929504  -0.624933760867247 1
force Ir  -0.140272890706241   0.256482658679332  -0.875413951786053 1
force Ir   0.294474003128879   1.862063206312180  -0.451355605116509 1
force Ir  -0.675387658696492  -0.496406534854836   0.982191132756799 1
force Ir   0.338487130243470  -0.042613916369752   0.612168743650236 1
force Ir   0.285246998969080  -0.245517406335090  -0.609165844264384 1
force Ir  -0.325187560477123  -0.749019886292925   0.519446430786192 1
force Ir  -0.200236554105436  -0.085072226636312   0.414350357511507 1
force Ir  -0.358912357011110  -0.681193876146237  -0.737885772297969 1
force Ir   1.192121002788645   0.908377653938463   0.070096443248157 1
force Ir   0.932507250960675   0.253096479475660   0.197965296440046 1
force Ir   0.264899193380112   0.193926506028439   0.033768208607997 1
force Ir   0.813240382314988  -0.156831396011237   0.582669767839913 1
force Ir  -0.212705837854650  -0.029282198023044  -0.277461730705499 1
force Ir  -0.032889309416240   0.204330228325146   0.380105945753208 1
force Ir  -0.500764929169959  -0.299513976741089   0.090306230124318 1
force Ir  -0.076932899332105  -0.001460049372582  -0.068994950500278 1
force Ir   0.179751221471482  -0.187501543284773  -0.284992439294272 1
force Ir  -0.086348344465262  -0.276182682339873   0.544869514749886 1
force Ir  -0.162295022088427  -0.319366904720792   0.540129466473753 1
force Ir   0.218307139396352   0.256542710005077   0.629566600422813 1
force Ir   0.194803330136354   0.408127215644273  -0.567494971354007 1
force Ir  -0.179406761456280   0.937329688702062  -0.593788616240519 1
force Ir  -0.105967377574202   0.446115900224924   0.295410572085624 1
force O   0.755537680983567  -0.016229257171723  -1.977595600491360 1

# Energy components:
   Eewald =    -2391.7036285238891651
       EH =      253.6900699599938207
     Eloc =     -760.1209102973625704
      Enl =       26.2381398422185086
      Exc =     -811.2600987894417131
 Exc_core =      457.0355716058538746
       KE =      761.5565998417068840
-------------------------------------
     Etot =    -2464.5642563609203535
       TS =        0.2377111918577903
-------------------------------------
        F =    -2464.8019675527780237

IonicMinimize: Iter:   2  F: -2464.801967552778024  |grad|_K:  5.324e-02  alpha:  3.841e-01  linmin: -9.832e-01  t[s]:   4769.54

#--- Lowdin population analysis ---
# oxidation-state Ir -0.009 +0.088 +0.015 -0.005 -0.012 +0.007 +0.011 +0.110 -0.017 +0.010 +0.088 +0.014 -0.017 +0.021 +0.004 +0.025 +0.031 +0.032 +0.014 +0.019 +0.011 -0.002 +0.014 -0.001 -0.010 +0.026 +0.016 +0.021 -0.028 +0.015 +0.021 +0.015
# oxidation-state O +0.028


-------- Electronic minimization -----------
Will mix electronic density at each iteration.
	FillingsUpdate:  mu: +1.082254314  nElectrons: 486.000000
	FillingsUpdate:  mu: +1.085074327  nElectrons: 486.000000
SCF: Cycle:  0   F: -2440.930133396244401   dF: +2.198e+01   |Residual|: 1.715e+00   |deigs|: 9.809e-03  t[s]:   4921.65
	FillingsUpdate:  mu: +1.091103986  nElectrons: 486.000000
SCF: Cycle:  1   F: -2442.870811141627200   dF: -1.941e+00   |Residual|: 2.142e+00   |deigs|: 5.197e-02  t[s]:   5034.83
	FillingsUpdate:  mu: +1.083327327  nElectrons: 486.000000
SCF: Cycle:  2   F: -2463.910188370931792   dF: -2.104e+01   |Residual|: 5.766e-01   |deigs|: 4.757e-02  t[s]:   5148.10
	FillingsUpdate:  mu: +1.082665302  nElectrons: 486.000000
SCF: Cycle:  3   F: -2464.383082858239504   dF: -4.729e-01   |Residual|: 3.668e-01   |deigs|: 4.699e-03  t[s]:   5261.71
	FillingsUpdate:  mu: +1.082130134  nElectrons: 486.000000
SCF: Cycle:  4   F: -2464.851730472294093   dF: -4.686e-01   |Residual|: 1.221e-01   |deigs|: 4.238e-03  t[s]:   5375.03
	FillingsUpdate:  mu: +1.082081277  nElectrons: 486.000000
SCF: Cycle:  5   F: -2464.890789322939781   dF: -3.906e-02   |Residual|: 6.028e-02   |deigs|: 1.137e-03  t[s]:   5485.54
	FillingsUpdate:  mu: +1.082070208  nElectrons: 486.000000
SCF: Cycle:  6   F: -2464.903975509907923   dF: -1.319e-02   |Residual|: 2.988e-02   |deigs|: 5.617e-04  t[s]:   5591.79
	FillingsUpdate:  mu: +1.082066805  nElectrons: 486.000000
SCF: Cycle:  7   F: -2464.906988012603961   dF: -3.013e-03   |Residual|: 1.407e-02   |deigs|: 2.221e-04  t[s]:   5658.50
	FillingsUpdate:  mu: +1.082066391  nElectrons: 486.000000
SCF: Cycle:  8   F: -2464.907530520079035   dF: -5.425e-04   |Residual|: 4.361e-03   |deigs|: 1.188e-04  t[s]:   5724.30
	FillingsUpdate:  mu: +1.082068166  nElectrons: 486.000000
SCF: Cycle:  9   F: -2464.907570094534094   dF: -3.957e-05   |Residual|: 2.545e-03   |deigs|: 4.397e-05  t[s]:   5790.79
	FillingsUpdate:  mu: +1.082068167  nElectrons: 486.000000
SCF: Cycle: 10   F: -2464.907596227642898   dF: -2.613e-05   |Residual|: 1.081e-03   |deigs|: 1.972e-05  t[s]:   5856.31
	FillingsUpdate:  mu: +1.082068619  nElectrons: 486.000000
SCF: Cycle: 11   F: -2464.907598502181372   dF: -2.275e-06   |Residual|: 7.176e-04   |deigs|: 1.340e-05  t[s]:   5922.89
	FillingsUpdate:  mu: +1.082068727  nElectrons: 486.000000
SCF: Cycle: 12   F: -2464.907600694845314   dF: -2.193e-06   |Residual|: 2.397e-04   |deigs|: 6.857e-06  t[s]:   5988.51
	FillingsUpdate:  mu: +1.082068746  nElectrons: 486.000000
SCF: Cycle: 13   F: -2464.907600919617835   dF: -2.248e-07   |Residual|: 8.033e-05   |deigs|: 2.426e-06  t[s]:   6055.04
	FillingsUpdate:  mu: +1.082068710  nElectrons: 486.000000
SCF: Cycle: 14   F: -2464.907600931062916   dF: -1.145e-08   |Residual|: 4.295e-05   |deigs|: 7.945e-07  t[s]:   6122.48
	FillingsUpdate:  mu: +1.082068663  nElectrons: 486.000000
SCF: Cycle: 15   F: -2464.907600933991489   dF: -2.929e-09   |Residual|: 2.244e-05   |deigs|: 5.959e-07  t[s]:   6188.59
	FillingsUpdate:  mu: +1.082068661  nElectrons: 486.000000
SCF: Cycle: 16   F: -2464.907600934173843   dF: -1.824e-10   |Residual|: 1.924e-05   |deigs|: 5.883e-07  t[s]:   6254.45
SCF: Converged (|Delta E|<1.000000e-08 for 2 iters).

Setting wave functions to eigenvectors of Hamiltonian

# Ionic positions in lattice coordinates:
ion Ir   0.000000000000000   0.000000000000000   0.000000000000000 0
ion Ir  -0.010560277202324   0.256705922136059   0.256653830639202 1
ion Ir   0.257792452136260   0.004620691727657   0.261535149257837 1
ion Ir   0.252107229399966   0.238074446824331  -0.001646037972660 1
ion Ir  -0.000012127114197  -0.008371885900137   0.513975335109542 1
ion Ir   0.001507465763152   0.257313103763751   0.761449026639504 1
ion Ir   0.246890184154225  -0.003014491714758   0.752788494849451 1
ion Ir   0.261379136588806   0.249403144712420   0.518044036489361 1
ion Ir   0.002271905791774   0.499130695435129   0.011188897529786 1
ion Ir   0.002692341469785   0.755715465229255   0.264098644866263 1
ion Ir   0.251185034929718   0.526651064653542   0.244114696613823 1
ion Ir   0.263566345035747   0.760859164085047  -0.010577190967403 1
ion Ir  -0.005103793260492   0.503886594204771   0.499718198492617 1
ion Ir  -0.004359861602262   0.747390554998949   0.763118040374524 1
ion Ir   0.255084326789736   0.513239898852840   0.741417070666754 1
ion Ir   0.254934878770859   0.752775608403045   0.499981706923677 1
ion Ir   0.509807737804501   0.003949562904396   0.005782775073680 1
ion Ir   0.505124582571423   0.235329404568684   0.250069050567243 1
ion Ir   0.743648973705893  -0.008376131690820   0.257450177270680 1
ion Ir   0.750813698907031   0.242037141450121   0.008868435653191 1
ion Ir   0.495568544203899  -0.003048954518675   0.504860351812140 1
ion Ir   0.503424538878050   0.247947547366438   0.757132565512725 1
ion Ir   0.748518635840867  -0.003236370826144   0.741888922925980 1
ion Ir   0.758733076281391   0.253238024735135   0.502143139895030 1
ion Ir   0.497504996837551   0.496850352956667   0.003048582504443 1
ion Ir   0.497939332137584   0.754104405156078   0.252802670797235 1
ion Ir   0.748440911003564   0.509160892069925   0.238457258959633 1
ion Ir   0.753465542025248   0.756395652431525  -0.004074513940310 1
ion Ir   0.502545380768323   0.492663768932387   0.486651785356299 1
ion Ir   0.508126718504547   0.739671420291905   0.755242800502949 1
ion Ir   0.753083137290745   0.483047359051598   0.765957775303592 1
ion Ir   0.748090943212583   0.736864127416394   0.501380276555786 1
ion O   0.225285852932448   0.288930746120594   0.290575871800984 1

# Forces in Lattice coordinates:
force Ir   0.016193752754360  -0.086259814844762   0.324669349941719 0
force Ir  -1.558040710790124  -0.793267476941731  -0.357137697687006 1
force Ir  -0.545842086786104  -1.068147259581020  -0.550503351966561 1
force Ir   0.049505646671932   0.432981908643410  -0.566794991220734 1
force Ir   0.000230259833296   0.378812826108789  -0.384121307960484 1
force Ir   0.189405562511732  -0.354546934442713  -0.362857445408293 1
force Ir   0.261370978356917   0.126498769165029  -0.031011695609725 1
force Ir  -0.211675945090305  -0.358254304537621   2.343220313975814 1
force Ir   0.215446676029022   0.233846518968451  -0.454491651683720 1
force Ir  -0.161618248508961   0.150583816894573  -0.667370786424478 1
force Ir   0.163819633070390   1.078805432347561  -0.201870000150382 1
force Ir  -0.543697374739300  -0.358938225404597   0.676078153216588 1
force Ir   0.291300880080073  -0.069272430934447   0.381941711871493 1
force Ir   0.222054207603346  -0.133789250298534  -0.497633405217490 1
force Ir  -0.223240687628981  -0.553133521680097   0.498567394529136 1
force Ir  -0.169130279760273  -0.061875803899591   0.367129350246117 1
force Ir  -0.277933092901064  -0.473124298194010  -0.502061038193714 1
force Ir   0.765328966509438   0.610790324190709   0.053179155937958 1
force Ir   0.667895643465815   0.215377495078621   0.102812221694256 1
force Ir   0.156541232465504   0.183561557373089  -0.089856139486871 1
force Ir   0.565938799861930  -0.078651274515788   0.317168639817842 1
force Ir  -0.085837963077963   0.006726635048960  -0.177307837471221 1
force Ir   0.045000089275937   0.164325931388033   0.375228962950772 1
force Ir  -0.428118223880465  -0.215021883043703   0.129498142535456 1
force Ir  -0.017949313334526   0.007223368099740  -0.064631296287963 1
force Ir   0.227138677228268  -0.082416541179827  -0.190684318000068 1
force Ir  -0.028638275804149  -0.238142822247670   0.465379448651213 1
force Ir  -0.104898374605261  -0.276422599619748   0.404469321331417 1
force Ir   0.088424354771548   0.197953484454878   0.540350130586034 1
force Ir   0.032757305452422   0.327748798371760  -0.381750363613165 1
force Ir  -0.121764610701401   0.714258609861517  -0.491642389748098 1
force Ir  -0.012766878436102   0.376283506083609   0.206881683921323 1
force O   0.532778521324992  -0.004744124110081  -1.216975758773615 1

# Energy components:
   Eewald =    -2395.3100335268613890
       EH =      250.4614626586369468
     Eloc =     -753.0526674829294507
      Enl =       26.1397982158424327
      Exc =     -811.1485202985354590
 Exc_core =      457.0355206594570632
       KE =      761.2044317122413304
-------------------------------------
     Etot =    -2464.6700080621485540
       TS =        0.2375928720251727
-------------------------------------
        F =    -2464.9076009341738427

IonicMinimize: Iter:   3  F: -2464.907600934173843  |grad|_K:  3.516e-02  alpha:  4.020e-01  linmin: -9.734e-01  t[s]:   6267.68

#--- Lowdin population analysis ---
# oxidation-state Ir -0.007 +0.086 +0.012 +0.001 -0.010 +0.010 +0.015 +0.104 -0.017 +0.013 +0.095 +0.015 -0.016 +0.019 +0.008 +0.024 +0.025 +0.029 +0.015 +0.021 +0.008 +0.006 +0.016 +0.004 -0.008 +0.028 +0.017 +0.020 -0.024 +0.015 +0.017 +0.016
# oxidation-state O -0.013


-------- Electronic minimization -----------
Will mix electronic density at each iteration.
	FillingsUpdate:  mu: +1.082068661  nElectrons: 486.000000
	FillingsUpdate:  mu: +1.084511834  nElectrons: 486.000000
SCF: Cycle:  0   F: -2437.450354587148468   dF: +2.487e+01   |Residual|: 1.859e+00   |deigs|: 1.165e-02  t[s]:   6420.87
	FillingsUpdate:  mu: +1.091406064  nElectrons: 486.000000
SCF: Cycle:  1   F: -2439.361050740360497   dF: -1.911e+00   |Residual|: 2.275e+00   |deigs|: 4.964e-02  t[s]:   6533.96
	FillingsUpdate:  mu: +1.083521969  nElectrons: 486.000000
SCF: Cycle:  2   F: -2463.897859104653435   dF: -2.454e+01   |Residual|: 6.119e-01   |deigs|: 5.094e-02  t[s]:   6647.42
	FillingsUpdate:  mu: +1.082701401  nElectrons: 486.000000
SCF: Cycle:  3   F: -2464.324062397533908   dF: -4.262e-01   |Residual|: 4.136e-01   |deigs|: 4.762e-03  t[s]:   6762.16
	FillingsUpdate:  mu: +1.082034956  nElectrons: 486.000000
SCF: Cycle:  4   F: -2464.927579706406959   dF: -6.035e-01   |Residual|: 1.229e-01   |deigs|: 5.209e-03  t[s]:   6874.68
	FillingsUpdate:  mu: +1.081988492  nElectrons: 486.000000
SCF: Cycle:  5   F: -2464.963973782162611   dF: -3.639e-02   |Residual|: 6.728e-02   |deigs|: 1.138e-03  t[s]:   6988.20
	FillingsUpdate:  mu: +1.081959185  nElectrons: 486.000000
SCF: Cycle:  6   F: -2464.980289416724645   dF: -1.632e-02   |Residual|: 3.326e-02   |deigs|: 5.087e-04  t[s]:   7092.58
	FillingsUpdate:  mu: +1.081953897  nElectrons: 486.000000
SCF: Cycle:  7   F: -2464.984441690395215   dF: -4.152e-03   |Residual|: 1.401e-02   |deigs|: 2.922e-04  t[s]:   7160.20
	FillingsUpdate:  mu: +1.081951435  nElectrons: 486.000000
SCF: Cycle:  8   F: -2464.984895994781255   dF: -4.543e-04   |Residual|: 4.918e-03   |deigs|: 1.134e-04  t[s]:   7227.46
	FillingsUpdate:  mu: +1.081955869  nElectrons: 486.000000
SCF: Cycle:  9   F: -2464.984936367237424   dF: -4.037e-05   |Residual|: 2.618e-03   |deigs|: 3.618e-05  t[s]:   7294.26
	FillingsUpdate:  mu: +1.081956346  nElectrons: 486.000000
SCF: Cycle: 10   F: -2464.984963191531278   dF: -2.682e-05   |Residual|: 1.173e-03   |deigs|: 2.345e-05  t[s]:   7360.61
	FillingsUpdate:  mu: +1.081957441  nElectrons: 486.000000
SCF: Cycle: 11   F: -2464.984965274471051   dF: -2.083e-06   |Residual|: 8.449e-04   |deigs|: 1.209e-05  t[s]:   7428.15
	FillingsUpdate:  mu: +1.081957389  nElectrons: 486.000000
SCF: Cycle: 12   F: -2464.984968335836584   dF: -3.061e-06   |Residual|: 2.637e-04   |deigs|: 6.309e-06  t[s]:   7494.18
	FillingsUpdate:  mu: +1.081957420  nElectrons: 486.000000
SCF: Cycle: 13   F: -2464.984968588829361   dF: -2.530e-07   |Residual|: 8.531e-05   |deigs|: 2.353e-06  t[s]:   7560.99
	FillingsUpdate:  mu: +1.081957282  nElectrons: 486.000000
SCF: Cycle: 14   F: -2464.984968595485952   dF: -6.657e-09   |Residual|: 5.458e-05   |deigs|: 8.815e-07  t[s]:   7627.82
	FillingsUpdate:  mu: +1.081957211  nElectrons: 486.000000
SCF: Cycle: 15   F: -2464.984968602220761   dF: -6.735e-09   |Residual|: 2.278e-05   |deigs|: 7.411e-07  t[s]:   7696.35
SCF: Converged (|Delta E|<1.000000e-08 for 2 iters).

Setting wave functions to eigenvectors of Hamiltonian

# Ionic positions in lattice coordinates:
ion Ir   0.000000000000000   0.000000000000000   0.000000000000000 0
ion Ir  -0.015690731192528   0.252492853176284   0.255317856428226 1
ion Ir   0.255298964247390  -0.000351677020829   0.258516715054158 1
ion Ir   0.252502614979727   0.240810413875502  -0.004412339987914 1
ion Ir   0.000098895923888  -0.005902463569898   0.511524699754371 1
ion Ir   0.002029733327522   0.255233121327357   0.759225287557255 1
ion Ir   0.248501869795425  -0.002887999330988   0.752986991144325 1
ion Ir   0.258329177884799   0.248274220818685   0.524465788894529 1
ion Ir   0.003528173007808   0.500264565215739   0.008708162194332 1
ion Ir   0.001429827551894   0.756372925270493   0.260188579983656 1
ion Ir   0.251572919253517   0.530632131918251   0.243918174465136 1
ion Ir   0.260239412487688   0.758859367016141  -0.007051257448931 1
ion Ir  -0.003113812946779   0.503196882466029   0.501396980994397 1
ion Ir  -0.003027315992613   0.746893025264080   0.760014256912677 1
ion Ir   0.253934011062581   0.510161984521307   0.744941379365505 1
ion Ir   0.253842553596663   0.752421942673070   0.502459782890128 1
ion Ir   0.508186423881528   0.001462244797538   0.003225656696227 1
ion Ir   0.508468263379596   0.238259672787678   0.250466252507144 1
ion Ir   0.747306337937427  -0.006998289084837   0.257790884112260 1
ion Ir   0.751445505624106   0.243292435513159   0.007668041063376 1
ion Ir   0.498583578684703  -0.003315434222847   0.505899943560831 1
ion Ir   0.503373103424914   0.248166932430328   0.756338642558185 1
ion Ir   0.749177671761882  -0.002212158395322   0.744569927873138 1
ion Ir   0.755911343757479   0.252053341071619   0.503324503062017 1
ion Ir   0.497615952038956   0.496934414545459   0.002560062301088 1
ion Ir   0.499821042528103   0.754021331626097   0.251830617375836 1
ion Ir   0.748466403262119   0.507651121434990   0.241445028874157 1
ion Ir   0.752965552343571   0.754599982338685  -0.001719848054403 1
ion Ir   0.502582708724619   0.493812827514536   0.490131198961974 1
ion Ir   0.507613727944737   0.741664889311821   0.753286724120796 1
ion Ir   0.752455928718382   0.487163652864275   0.762863709716331 1
ion Ir   0.748393762704757   0.739260246878833   0.502477429319227 1
ion O   0.227543157736646   0.288214796128726   0.287723523579394 1

# Forces in Lattice coordinates:
force Ir   0.022961778448565  -0.067092411381261   0.237079647702824 0
force Ir  -0.743411637344029  -0.473192879023108  -0.215315815302096 1
force Ir  -0.267788693030950  -0.605302482716408  -0.369053951060967 1
force Ir   0.040330435510609   0.299033035582276  -0.295888556813347 1
force Ir   0.025779885626245   0.271836169173462  -0.276880563621129 1
force Ir  -0.003964655938353  -0.232943300222563  -0.217389666859258 1
force Ir   0.182264080011894  -0.006823588595275   0.032960294393952 1
force Ir  -0.185192963163053  -0.215937484416815   1.114532530266529 1
force Ir   0.095710102929469   0.095453742929884  -0.265883493345219 1
force Ir  -0.146713765052679   0.019306016119632  -0.411672531592216 1
force Ir   0.088463101664780   0.508952223074211   0.010201008811921 1
force Ir  -0.374572716613858  -0.213454432742265   0.366950115299172 1
force Ir   0.207071126035867  -0.089538608386126   0.149302416981568 1
force Ir   0.144457044107119  -0.024722571028492  -0.344660479818816 1
force Ir  -0.123590820000415  -0.338003558911889   0.407088500356713 1
force Ir  -0.117847725661672  -0.038535901395487   0.250048069905357 1
force Ir  -0.188905007856321  -0.257154859330349  -0.258518304802638 1
force Ir   0.390490097381647   0.350888766083309   0.023785796142026 1
force Ir   0.350472634772223   0.156327599787539   0.004824620888832 1
force Ir   0.044131474793914   0.165555402695333  -0.170136936340711 1
force Ir   0.301456038299330  -0.000386275142252   0.091915651324741 1
force Ir   0.017055374964413   0.026643011255350  -0.088830983303518 1
force Ir   0.090997416848771   0.096085305160118   0.312650502331004 1
force Ir  -0.301297193938770  -0.118097977716493   0.124670256319150 1
force Ir   0.048806618418695   0.031112945355511  -0.025338154097720 1
force Ir   0.211416341685643  -0.029987395387879  -0.079925217432946 1
force Ir   0.017353051903214  -0.182640041933714   0.359089813384574 1
force Ir  -0.056010825057139  -0.213684909060141   0.236748497224063 1
force Ir  -0.017120889098083   0.145100661389991   0.401130949675204 1
force Ir  -0.072088216074667   0.232322216600118  -0.181795767989907 1
force Ir  -0.063873793027649   0.480225027243751  -0.356181821241341 1
force Ir   0.058944311434648   0.280064034043286   0.108267626770676 1
force O   0.322203217631511  -0.051683908934434  -0.673885129104074 1

# Energy components:
   Eewald =    -2397.8965633264697317
       EH =      248.1480704961062713
     Eloc =     -747.9693558011883852
      Enl =       26.0663403495201678
      Exc =     -811.0634116712641344
 Exc_core =      457.0354884800793229
       KE =      760.9322543810212665
-------------------------------------
     Etot =    -2464.7471770921947609
       TS =        0.2377915100258925
-------------------------------------
        F =    -2464.9849686022207607

IonicMinimize: Iter:   4  F: -2464.984968602220761  |grad|_K:  1.978e-02  alpha:  4.926e-01  linmin: -9.699e-01  t[s]:   7709.81

#--- Lowdin population analysis ---
# oxidation-state Ir -0.004 +0.083 +0.009 +0.007 -0.010 +0.013 +0.018 +0.101 -0.017 +0.015 +0.101 +0.016 -0.016 +0.017 +0.012 +0.022 +0.019 +0.027 +0.017 +0.022 +0.004 +0.014 +0.016 +0.010 -0.008 +0.027 +0.017 +0.018 -0.022 +0.015 +0.014 +0.017
# oxidation-state O -0.047


-------- Electronic minimization -----------
Will mix electronic density at each iteration.
	FillingsUpdate:  mu: +1.081957211  nElectrons: 486.000000
	FillingsUpdate:  mu: +1.083446896  nElectrons: 486.000000
SCF: Cycle:  0   F: -2437.688414154133625   dF: +2.389e+01   |Residual|: 1.921e+00   |deigs|: 1.291e-02  t[s]:   7863.39
	FillingsUpdate:  mu: +1.091240157  nElectrons: 486.000000
SCF: Cycle:  1   F: -2439.420074267933614   dF: -1.732e+00   |Residual|: 2.300e+00   |deigs|: 4.596e-02  t[s]:   7975.76
	FillingsUpdate:  mu: +1.083393303  nElectrons: 486.000000
SCF: Cycle:  2   F: -2463.968479099728029   dF: -2.455e+01   |Residual|: 6.057e-01   |deigs|: 5.037e-02  t[s]:   8089.72
	FillingsUpdate:  mu: +1.082697621  nElectrons: 486.000000
SCF: Cycle:  3   F: -2464.105595863847611   dF: -1.371e-01   |Residual|: 4.968e-01   |deigs|: 5.561e-03  t[s]:   8201.82
	FillingsUpdate:  mu: +1.082057616  nElectrons: 486.000000
SCF: Cycle:  4   F: -2464.984670475331768   dF: -8.791e-01   |Residual|: 1.186e-01   |deigs|: 6.594e-03  t[s]:   8315.89
	FillingsUpdate:  mu: +1.081993133  nElectrons: 486.000000
SCF: Cycle:  5   F: -2465.012070019493876   dF: -2.740e-02   |Residual|: 6.511e-02   |deigs|: 1.044e-03  t[s]:   8425.14
	FillingsUpdate:  mu: +1.081925581  nElectrons: 486.000000
SCF: Cycle:  6   F: -2465.025162011730117   dF: -1.309e-02   |Residual|: 3.344e-02   |deigs|: 5.365e-04  t[s]:   8532.06
	FillingsUpdate:  mu: +1.081919127  nElectrons: 486.000000
SCF: Cycle:  7   F: -2465.029516183933538   dF: -4.354e-03   |Residual|: 1.364e-02   |deigs|: 2.989e-04  t[s]:   8599.61
	FillingsUpdate:  mu: +1.081915769  nElectrons: 486.000000
SCF: Cycle:  8   F: -2465.030009351782155   dF: -4.932e-04   |Residual|: 4.756e-03   |deigs|: 1.178e-04  t[s]:   8666.47
	FillingsUpdate:  mu: +1.081922974  nElectrons: 486.000000
SCF: Cycle:  9   F: -2465.030041341846754   dF: -3.199e-05   |Residual|: 2.743e-03   |deigs|: 4.163e-05  t[s]:   8734.32
	FillingsUpdate:  mu: +1.081923257  nElectrons: 486.000000
SCF: Cycle: 10   F: -2465.030071843727910   dF: -3.050e-05   |Residual|: 1.100e-03   |deigs|: 3.013e-05  t[s]:   8800.16
	FillingsUpdate:  mu: +1.081924979  nElectrons: 486.000000
SCF: Cycle: 11   F: -2465.030073505299242   dF: -1.662e-06   |Residual|: 8.695e-04   |deigs|: 1.067e-05  t[s]:   8865.99
	FillingsUpdate:  mu: +1.081924939  nElectrons: 486.000000
SCF: Cycle: 12   F: -2465.030076938845468   dF: -3.434e-06   |Residual|: 2.376e-04   |deigs|: 6.832e-06  t[s]:   8932.89
	FillingsUpdate:  mu: +1.081925012  nElectrons: 486.000000
SCF: Cycle: 13   F: -2465.030077115745371   dF: -1.769e-07   |Residual|: 9.686e-05   |deigs|: 2.149e-06  t[s]:   9000.58
	FillingsUpdate:  mu: +1.081924779  nElectrons: 486.000000
SCF: Cycle: 14   F: -2465.030077122838065   dF: -7.093e-09   |Residual|: 6.509e-05   |deigs|: 1.170e-06  t[s]:   9068.51
	FillingsUpdate:  mu: +1.081924744  nElectrons: 486.000000
SCF: Cycle: 15   F: -2465.030077137717399   dF: -1.488e-08   |Residual|: 1.848e-05   |deigs|: 1.037e-06  t[s]:   9136.20
	FillingsUpdate:  mu: +1.081924729  nElectrons: 486.000000
SCF: Cycle: 16   F: -2465.030077137412718   dF: +3.047e-10   |Residual|: 1.386e-05   |deigs|: 8.003e-07  t[s]:   9203.14
	FillingsUpdate:  mu: +1.081924727  nElectrons: 486.000000
SCF: Cycle: 17   F: -2465.030077138071647   dF: -6.589e-10   |Residual|: 3.479e-06   |deigs|: 6.597e-07  t[s]:   9263.13
	FillingsUpdate:  mu: +1.081924735  nElectrons: 486.000000
SCF: Cycle: 18   F: -2465.030077138196248   dF: -1.246e-10   |Residual|: 2.107e-06   |deigs|: 4.309e-07  t[s]:   9307.18
SCF: Converged (|Delta E|<1.000000e-08 for 2 iters).

Setting wave functions to eigenvectors of Hamiltonian

# Ionic positions in lattice coordinates:
ion Ir   0.000000000000000   0.000000000000000   0.000000000000000 0
ion Ir  -0.020147591636452   0.247635531262342   0.253527443895636 1
ion Ir   0.253097170655473  -0.005897093171308   0.254489794902991 1
ion Ir   0.253062741388613   0.244382427512461  -0.007090172929323 1
ion Ir   0.000550628864619  -0.002574334373484   0.508173905037363 1
ion Ir   0.001146569117115   0.252603735231337   0.756759488791992 1
ion Ir   0.250651419948644  -0.003711028695612   0.753812858366863 1
ion Ir   0.254716503256313   0.246636449433630   0.530178214876935 1
ion Ir   0.004467030593584   0.500984281529890   0.005948491432473 1
ion Ir  -0.000591396024271   0.756179547037304   0.255625253843665 1
ion Ir   0.252068574315066   0.533951515714987   0.245222121060359 1
ion Ir   0.255853164287643   0.756599163105544  -0.003481316604049 1
ion Ir  -0.000512722583219   0.501836820171165   0.502344641482508 1
ion Ir  -0.001377963947221   0.747024935045249   0.755927980873780 1
ion Ir   0.252731499877362   0.506551240200506   0.750238068785359 1
ion Ir   0.252414571615013   0.752000915141665   0.505561373480195 1
ion Ir   0.506042667876184  -0.001056752748515   0.000821150145871 1
ion Ir   0.511654918695297   0.241563327716290   0.250765671083663 1
ion Ir   0.750798043849846  -0.005101056396296   0.257455346815652 1
ion Ir   0.751547028118117   0.245433021540264   0.004894364523611 1
ion Ir   0.501539910439064  -0.003015794215500   0.505954141987331 1
ion Ir   0.504135274454788   0.248673604305108   0.755609185444191 1
ion Ir   0.750694496587391  -0.001115632397392   0.748668399074998 1
ion Ir   0.752209599800416   0.250848721586530   0.505177075839513 1
ion Ir   0.498514323573738   0.497395538497114   0.002239438042747 1
ion Ir   0.502819566458464   0.754066980676166   0.251176609562291 1
ion Ir   0.748920265670724   0.505424242980184   0.245856364241007 1
ion Ir   0.752461629261415   0.751957648577505   0.000852296061056 1
ion Ir   0.501792651346786   0.495485509046853   0.495036930710404 1
ion Ir   0.505973619623292   0.744392465358415   0.751659855124740 1
ion Ir   0.751850606870265   0.492558664559324   0.758581984209002 1
ion Ir   0.749552686641470   0.742665576012349   0.503526927881857 1
ion O   0.230412579167252   0.286977494664145   0.283750117101747 1

# Forces in Lattice coordinates:
force Ir   0.029150151979532  -0.044525277809432   0.144113482119696 0
force Ir  -0.125568402637990  -0.116779933106279  -0.096800203322028 1
force Ir  -0.047172138740847  -0.209365780813051  -0.154667970231250 1
force Ir   0.010796976363717   0.109401188994746  -0.063545848487391 1
force Ir   0.040025082788163   0.117171285051725  -0.141971897659478 1
force Ir  -0.121044025640927  -0.095401804565803  -0.047374355509224 1
force Ir   0.078054951712218  -0.042946434662545   0.050645603443440 1
force Ir  -0.051674058075631  -0.069023636362109   0.175272557107510 1
force Ir  -0.034928769429919  -0.026500065290964  -0.077384792669132 1
force Ir  -0.101265055219671  -0.078504751922744  -0.136181704907225 1
force Ir   0.044216129015812   0.056556190376188   0.152271261115271 1
force Ir  -0.169283607142992  -0.088639886768577   0.081824423396986 1
force Ir   0.108464605773147  -0.097800687773969  -0.020245654698029 1
force Ir   0.065616924716504   0.043894055325806  -0.148345424164841 1
force Ir  -0.044312482107958  -0.123518815263372   0.203204920618357 1
force Ir  -0.045621235038436  -0.002000956741226   0.094078067450105 1
force Ir  -0.090714840123466  -0.064351859498754  -0.035757357305887 1
force Ir   0.081352874249663   0.141713659489378  -0.001330474983001 1
force Ir   0.022076752568592   0.063580379134244  -0.074529061081501 1
force Ir  -0.032013590799467   0.129042961208271  -0.149265719158893 1
force Ir   0.059749098387020   0.048617164385660  -0.042929580311293 1
force Ir   0.048336321757572   0.024185268836809  -0.019002067808952 1
force Ir   0.065897634338540   0.001456025164685   0.159103148594840 1
force Ir  -0.115135420194004  -0.029612784769800   0.060124787249926 1
force Ir   0.088066940933925   0.061726688787432   0.030463757173635 1
force Ir   0.128727393107892  -0.018124092701795   0.021472955200629 1
force Ir   0.041289825232589  -0.108685632879098   0.220681231966419 1
force Ir  -0.023663793054991  -0.118659480427581   0.057357991052191 1
force Ir  -0.077238575499721   0.090329641441397   0.211642227323808 1
force Ir  -0.086018359050737   0.122754089580358  -0.010028560477497 1
force Ir  -0.011629557299305   0.248738075650255  -0.188302481295584 1
force Ir   0.073837191751374   0.166982973632441   0.019613962705072 1
force O   0.184737681425818  -0.090100761232494  -0.274132679578993 1

# Energy components:
   Eewald =    -2399.2254448809862879
       EH =      246.9815998422608345
     Eloc =     -745.3595795357480256
      Enl =       26.0253748710146873
      Exc =     -811.0130017964067974
 Exc_core =      457.0354799472256673
       KE =      760.7638749602378994
-------------------------------------
     Etot =    -2464.7916965924014221
       TS =        0.2383805457946912
-------------------------------------
        F =    -2465.0300771381962477

IonicMinimize: Iter:   5  F: -2465.030077138196248  |grad|_K:  7.556e-03  alpha:  7.192e-01  linmin: -9.109e-01  t[s]:   9320.61

#--- Lowdin population analysis ---
# oxidation-state Ir -0.001 +0.080 +0.009 +0.015 -0.010 +0.018 +0.021 +0.097 -0.016 +0.018 +0.106 +0.020 -0.017 +0.016 +0.016 +0.019 +0.013 +0.028 +0.020 +0.023 -0.001 +0.021 +0.016 +0.015 -0.007 +0.024 +0.016 +0.016 -0.020 +0.015 +0.013 +0.016
# oxidation-state O -0.075


-------- Electronic minimization -----------
Will mix electronic density at each iteration.
	FillingsUpdate:  mu: +1.081924735  nElectrons: 486.000000
	FillingsUpdate:  mu: +1.082292511  nElectrons: 486.000000
SCF: Cycle:  0   F: -2457.735215004288420   dF: +5.392e+00   |Residual|: 1.160e+00   |deigs|: 5.562e-03  t[s]:   9475.95
	FillingsUpdate:  mu: +1.082953896  nElectrons: 486.000000
SCF: Cycle:  1   F: -2454.630405295949913   dF: +3.105e+00   |Residual|: 1.428e+00   |deigs|: 2.472e-02  t[s]:   9586.87
	FillingsUpdate:  mu: +1.082323215  nElectrons: 486.000000
SCF: Cycle:  2   F: -2464.790985937434925   dF: -1.016e+01   |Residual|: 2.830e-01   |deigs|: 2.744e-02  t[s]:   9700.06
	FillingsUpdate:  mu: +1.082227109  nElectrons: 486.000000
SCF: Cycle:  3   F: -2464.597707622926464   dF: +1.933e-01   |Residual|: 3.389e-01   |deigs|: 3.541e-03  t[s]:   9814.74
	FillingsUpdate:  mu: +1.082023413  nElectrons: 486.000000
SCF: Cycle:  4   F: -2465.038009738479104   dF: -4.403e-01   |Residual|: 4.127e-02   |deigs|: 4.504e-03  t[s]:   9927.08
	FillingsUpdate:  mu: +1.081964002  nElectrons: 486.000000
SCF: Cycle:  5   F: -2465.037207106518508   dF: +8.026e-04   |Residual|: 3.564e-02   |deigs|: 5.003e-04  t[s]:  10023.03
	FillingsUpdate:  mu: +1.081929805  nElectrons: 486.000000
SCF: Cycle:  6   F: -2465.041926898225029   dF: -4.720e-03   |Residual|: 1.148e-02   |deigs|: 2.425e-04  t[s]:  10089.80
	FillingsUpdate:  mu: +1.081928083  nElectrons: 486.000000
SCF: Cycle:  7   F: -2465.042352323299838   dF: -4.254e-04   |Residual|: 5.874e-03   |deigs|: 9.036e-05  t[s]:  10155.98
	FillingsUpdate:  mu: +1.081929833  nElectrons: 486.000000
SCF: Cycle:  8   F: -2465.042450886459847   dF: -9.856e-05   |Residual|: 1.940e-03   |deigs|: 4.152e-05  t[s]:  10222.04
	FillingsUpdate:  mu: +1.081932934  nElectrons: 486.000000
SCF: Cycle:  9   F: -2465.042459228835924   dF: -8.342e-06   |Residual|: 1.167e-03   |deigs|: 1.924e-05  t[s]:  10287.89
	FillingsUpdate:  mu: +1.081933779  nElectrons: 486.000000
SCF: Cycle: 10   F: -2465.042464156640563   dF: -4.928e-06   |Residual|: 4.010e-04   |deigs|: 1.196e-05  t[s]:  10354.60
	FillingsUpdate:  mu: +1.081933955  nElectrons: 486.000000
SCF: Cycle: 11   F: -2465.042464523469334   dF: -3.668e-07   |Residual|: 2.213e-04   |deigs|: 4.007e-06  t[s]:  10420.97
	FillingsUpdate:  mu: +1.081933696  nElectrons: 486.000000
SCF: Cycle: 12   F: -2465.042464744705740   dF: -2.212e-07   |Residual|: 8.786e-05   |deigs|: 2.095e-06  t[s]:  10488.06
	FillingsUpdate:  mu: +1.081933738  nElectrons: 486.000000
SCF: Cycle: 13   F: -2465.042464755406399   dF: -1.070e-08   |Residual|: 6.228e-05   |deigs|: 1.204e-06  t[s]:  10554.25
	FillingsUpdate:  mu: +1.081933587  nElectrons: 486.000000
SCF: Cycle: 14   F: -2465.042464768665923   dF: -1.326e-08   |Residual|: 2.748e-05   |deigs|: 1.044e-06  t[s]:  10621.13
	FillingsUpdate:  mu: +1.081933606  nElectrons: 486.000000
SCF: Cycle: 15   F: -2465.042464771090181   dF: -2.424e-09   |Residual|: 1.148e-05   |deigs|: 9.047e-07  t[s]:  10688.27
	FillingsUpdate:  mu: +1.081933590  nElectrons: 486.000000
SCF: Cycle: 16   F: -2465.042464771737741   dF: -6.476e-10   |Residual|: 5.026e-06   |deigs|: 7.067e-07  t[s]:  10752.73
SCF: Converged (|Delta E|<1.000000e-08 for 2 iters).

Setting wave functions to eigenvectors of Hamiltonian

# Ionic positions in lattice coordinates:
ion Ir   0.000000000000000   0.000000000000000   0.000000000000000 0
ion Ir  -0.022115957456913   0.245137779599500   0.251755162687556 1
ion Ir   0.252142758114069  -0.009992500543522   0.251350520323437 1
ion Ir   0.253326936541139   0.246733097664761  -0.008408929712889 1
ion Ir   0.001337115035632  -0.000093301376013   0.505248481483142 1
ion Ir  -0.001218988158965   0.250624455016782   0.755649614071947 1
ion Ir   0.252282460247686  -0.004659684931494   0.754868536019632 1
ion Ir   0.253077753726534   0.245432131198103   0.532464675212600 1
ion Ir   0.003925234615611   0.500537299929118   0.004312704458247 1
ion Ir  -0.002667418858131   0.754706029805679   0.252721037171619 1
ion Ir   0.252818519718091   0.534924175635596   0.248269696927108 1
ion Ir   0.252346044724241   0.754790488226994  -0.001723570816764 1
ion Ir   0.001752080534894   0.499884867603213   0.501979650301630 1
ion Ir  -0.000025495005002   0.747874557520092   0.752820970995146 1
ion Ir   0.251837570214085   0.503996529284321   0.754518160208324 1
ion Ir   0.251435735360722   0.751925347158891   0.507613516814731 1
ion Ir   0.504196510450085  -0.002420194112467   0.000003642234497 1
ion Ir   0.513238449305978   0.244339405273457   0.250791462587971 1
ion Ir   0.751491233891274  -0.003750914724240   0.256033321008601 1
ion Ir   0.750932154595697   0.248002652235390   0.001822985604083 1
ion Ir   0.502861091032207  -0.002079608709412   0.505052298572727 1
ion Ir   0.505151762475817   0.249188034784638   0.755235274095244 1
ion Ir   0.752091723617440  -0.000975591278187   0.752014671510932 1
ion Ir   0.749720282807488   0.250207894177679   0.506511078960120 1
ion Ir   0.500228284835058   0.498565592194107   0.002742599439245 1
ion Ir   0.505523415734073   0.753804881776702   0.251525304702512 1
ion Ir   0.749739811986593   0.503226587692052   0.250316467470425 1
ion Ir   0.752001669284820   0.749528797556213   0.002136747673236 1
ion Ir   0.500241744400439   0.497279846818328   0.499386384942688 1
ion Ir   0.504150255424859   0.746888065626585   0.751364054860722 1
ion Ir   0.751594986407714   0.497569628243820   0.754727865128300 1
ion Ir   0.751057210001426   0.746046047529254   0.503964917880630 1
ion O   0.233887718631890   0.285047522921181   0.279299303522679 1

# Forces in Lattice coordinates:
force Ir   0.019808540766641  -0.042525509291075   0.103079797782384 0
force Ir   0.140092998836221   0.062309353737365  -0.022771296316055 1
force Ir   0.027741598250210  -0.014663855992387   0.007831355404173 1
force Ir  -0.012969740936940  -0.020411765940068   0.032855872878116 1
force Ir   0.018054087964480   0.007450652396858  -0.051188394580605 1
force Ir  -0.060652674734037   0.002716059617666   0.002838253372409 1
force Ir  -0.011161163675671   0.021431595458166   0.014951572413260 1
force Ir   0.011104278933439   0.022481900836066  -0.184104617952966 1
force Ir  -0.068386129157932  -0.050403886061867   0.028944135452099 1
force Ir  -0.033556918161475  -0.068266276286696   0.024382688452023 1
force Ir   0.001466792130117  -0.097582041748714   0.103058748718885 1
force Ir  -0.024999597988595  -0.060482220832639  -0.023118263589560 1
force Ir   0.037655658741216  -0.060719136327955  -0.038239655918135 1
force Ir   0.017746975033765   0.033353150205386  -0.005652647498521 1
force Ir  -0.007766761812651  -0.004824676725245   0.012896999335660 1
force Ir   0.001829939901113   0.029278505684603  -0.005990230622716 1
force Ir  -0.012180292958263   0.028347876067689   0.066179620362192 1
force Ir  -0.040778645384504   0.028715815754171  -0.003066540362505 1
force Ir  -0.088591279017257   0.018644491417681  -0.088222798721652 1
force Ir  -0.043026332633218   0.065162808111653  -0.041578434992284 1
force Ir  -0.048565157372691   0.039854460628108  -0.052181156302593 1
force Ir   0.010913833363381   0.018858388853239   0.016905693259369 1
force Ir  -0.005214418800891  -0.042195935129154   0.007461517820761 1
force Ir   0.016787298844658   0.006331764084667  -0.008286948900432 1
force Ir   0.044355498014378   0.057394175237928   0.039271118198262 1
force Ir   0.027573708817167  -0.028654718695854   0.057153418674351 1
force Ir   0.019462918926160  -0.028344396751415   0.093973510913609 1
force Ir  -0.002348579864526  -0.023523976838896  -0.026327464012239 1
force Ir  -0.043974965230061   0.045120799575862   0.067290380342690 1
force Ir  -0.043934203103929   0.036427458310925   0.047561503712517 1
force Ir   0.010302563609524   0.070379673817712  -0.060758530524316 1
force Ir   0.034205598833827   0.072334994769229  -0.024232301553176 1
force O   0.102416673518144  -0.120469406855702  -0.095453856541707 1

# Energy components:
   Eewald =    -2399.5348121614379124
       EH =      246.7297976800242054
     Eloc =     -744.7635317819872398
      Enl =       26.0134153131983936
      Exc =     -810.9977120608974701
 Exc_core =      457.0354731324810018
       KE =      760.7139265389507727
-------------------------------------
     Etot =    -2464.8034433396678651
       TS =        0.2390214320697342
-------------------------------------
        F =    -2465.0424647717377411

IonicMinimize: Iter:   6  F: -2465.042464771737741  |grad|_K:  3.640e-03  alpha:  1.000e+00  linmin: -3.647e-01  t[s]:  10766.34

#--- Lowdin population analysis ---
# oxidation-state Ir +0.001 +0.077 +0.009 +0.021 -0.010 +0.020 +0.023 +0.090 -0.015 +0.020 +0.106 +0.022 -0.018 +0.015 +0.018 +0.018 +0.009 +0.031 +0.022 +0.023 -0.003 +0.023 +0.017 +0.018 -0.008 +0.022 +0.016 +0.015 -0.018 +0.016 +0.014 +0.015
# oxidation-state O -0.086


-------- Electronic minimization -----------
Will mix electronic density at each iteration.
	FillingsUpdate:  mu: +1.081933590  nElectrons: 486.000000
	FillingsUpdate:  mu: +1.081404335  nElectrons: 486.000000
SCF: Cycle:  0   F: -2464.049166441081979   dF: +5.723e-01   |Residual|: 4.910e-01   |deigs|: 1.211e-03  t[s]:  10918.62
	FillingsUpdate:  mu: +1.082627006  nElectrons: 486.000000
SCF: Cycle:  1   F: -2463.183058961863026   dF: +8.661e-01   |Residual|: 5.873e-01   |deigs|: 7.508e-03  t[s]:  11030.26
	FillingsUpdate:  mu: +1.081932285  nElectrons: 486.000000
SCF: Cycle:  2   F: -2464.941611544707030   dF: -1.759e+00   |Residual|: 1.468e-01   |deigs|: 7.619e-03  t[s]:  11142.35
	FillingsUpdate:  mu: +1.082054479  nElectrons: 486.000000
SCF: Cycle:  3   F: -2465.015843149764805   dF: -7.423e-02   |Residual|: 8.560e-02   |deigs|: 1.078e-03  t[s]:  11255.43
	FillingsUpdate:  mu: +1.082027782  nElectrons: 486.000000
SCF: Cycle:  4   F: -2465.044068418253119   dF: -2.823e-02   |Residual|: 2.060e-02   |deigs|: 5.553e-04  t[s]:  11360.67
	FillingsUpdate:  mu: +1.082013183  nElectrons: 486.000000
SCF: Cycle:  5   F: -2465.045155853821598   dF: -1.087e-03   |Residual|: 1.137e-02   |deigs|: 2.224e-04  t[s]:  11427.23
	FillingsUpdate:  mu: +1.081992512  nElectrons: 486.000000
SCF: Cycle:  6   F: -2465.045274752621481   dF: -1.189e-04   |Residual|: 6.721e-03   |deigs|: 9.449e-05  t[s]:  11494.07
	FillingsUpdate:  mu: +1.081993436  nElectrons: 486.000000
SCF: Cycle:  7   F: -2465.045475770532448   dF: -2.010e-04   |Residual|: 1.894e-03   |deigs|: 4.971e-05  t[s]:  11561.59
	FillingsUpdate:  mu: +1.081995779  nElectrons: 486.000000
SCF: Cycle:  8   F: -2465.045483106462143   dF: -7.336e-06   |Residual|: 1.073e-03   |deigs|: 1.806e-05  t[s]:  11628.18
	FillingsUpdate:  mu: +1.081997525  nElectrons: 486.000000
SCF: Cycle:  9   F: -2465.045486728188735   dF: -3.622e-06   |Residual|: 3.014e-04   |deigs|: 1.057e-05  t[s]:  11695.42
	FillingsUpdate:  mu: +1.081997533  nElectrons: 486.000000
SCF: Cycle: 10   F: -2465.045486830859318   dF: -1.027e-07   |Residual|: 1.690e-04   |deigs|: 2.805e-06  t[s]:  11762.61
	FillingsUpdate:  mu: +1.081997748  nElectrons: 486.000000
[...]
ion Ir   0.250355303786096  -0.003176238842276   0.750259555835264 1
ion Ir   0.250145513059828   0.250472205781590   0.519715121058331 1
ion Ir   0.000197005131019   0.500511164126146   0.000044088775519 1
ion Ir  -0.003182809410257   0.750241228687057   0.250271747310541 1
ion Ir   0.250252994346627   0.519588225765343   0.250315128962708 1
ion Ir   0.250384532008027   0.750214093903184  -0.003325893362970 1
ion Ir   0.000008930425297   0.500664136854728   0.500561831934426 1
ion Ir  -0.000469509354898   0.750368912941090   0.750204225738563 1
ion Ir   0.250354137489761   0.503812317314538   0.750350107803615 1
ion Ir   0.250371181223846   0.750348269709913   0.503733134852277 1
ion Ir   0.500640422174966   0.000022096439170  -0.000051379999572 1
ion Ir   0.519929987369353   0.250339551016842   0.250083831609493 1
ion Ir   0.750403087108729  -0.003100456557090   0.250201334708059 1
ion Ir   0.750421784634237   0.250344957827987  -0.003244834046356 1
ion Ir   0.500381979106195   0.000300864151211   0.500262832713400 1
ion Ir   0.503855499251599   0.250347155926466   0.750244182997184 1
ion Ir   0.750318676599097  -0.000502233869054   0.750098516642004 1
ion Ir   0.750381533227734   0.250306926354452   0.503645952271213 1
ion Ir   0.500536226463543   0.500535833941868   0.000020731832080 1
ion Ir   0.503911685057540   0.750263605452188   0.250219951165622 1
ion Ir   0.750441699778328   0.503776172024075   0.250293296613965 1
ion Ir   0.750384764681006   0.750251887289171  -0.000631296767726 1
ion Ir   0.500559070074292   0.500483329995800   0.500415008386813 1
ion Ir   0.501154775711550   0.750357458099066   0.750132037842088 1
ion Ir   0.750321303491337   0.501198506687665   0.750177111868002 1
ion Ir   0.750297730383750   0.750432426529352   0.500996667400381 1
ion O   0.251145087208826   0.249977851912375   0.250559841905571 1

# Forces in Lattice coordinates:
force Ir   0.004942320239725   0.002512611472205  -0.000939459961345 0
force Ir  -0.000571084383259   0.001511328056669  -0.002326516286667 1
force Ir  -0.000820044918963   0.000847210176414   0.000657515745981 1
force Ir  -0.001492012875383   0.001230073173343   0.002962896501027 1
force Ir  -0.000667335085034  -0.000798954139837   0.001403032038808 1
force Ir   0.000965901053031  -0.000437969090173  -0.003054307145487 1
force Ir  -0.000813614824857   0.000919605455937  -0.001106013594173 1
force Ir   0.001601609025166  -0.000810754778981  -0.000300323283478 1
force Ir  -0.003120636238923   0.000976008573590  -0.001714533019783 1
force Ir   0.001975970596476   0.003049331602231  -0.002345127900077 1
force Ir   0.000481606818248  -0.002454654686699  -0.002587393504160 1
force Ir  -0.001562532312674   0.003424784035405   0.003620193575268 1
force Ir   0.004323988610812  -0.003880203755549  -0.001665745794067 1
force Ir   0.000542829853410  -0.001351017463912   0.000795397413948 1
force Ir  -0.000335073253157  -0.000458632754866  -0.005407513026696 1
force Ir  -0.000430368161751  -0.002174806589786  -0.000450770095978 1
force Ir  -0.001950350170692   0.002239433310023   0.001641034064778 1
force Ir  -0.000428254172218   0.002007584441757   0.000808943341258 1
force Ir   0.000717144199951  -0.004272277540333  -0.000013852745710 1
force Ir   0.000320479772788  -0.000276077709770  -0.001946217033655 1
force Ir   0.003090555781182  -0.004274258214148   0.003843534379906 1
force Ir   0.000169436172559  -0.001170695721574  -0.000702518737403 1
force Ir  -0.000615419514734   0.002208864052153   0.003079009009835 1
force Ir   0.001459628558443   0.000578031607687   0.003917272893956 1
force Ir   0.001641731889930  -0.000646024306483   0.000480143797865 1
force Ir  -0.002488370944228   0.001350868635073  -0.000501299609734 1
force Ir  -0.001166942120059   0.000251028990774  -0.003688774548217 1
force Ir  -0.002234286247895   0.001151307464249   0.001703776092227 1
force Ir  -0.001340045299203   0.000752901098972   0.000045845570814 1
force Ir  -0.000525032117351  -0.000839951999548   0.001262002903259 1
force Ir  -0.000121969730288  -0.003229890322158   0.002833413056397 1
force Ir  -0.000902068471681  -0.001433229578972   0.000150360106506 1
force O  -0.002249092667934   0.001618912091630  -0.000834438456644 1

# Energy components:
   Eewald =    -2399.8690443019222585
       EH =      246.4633721767843610
     Eloc =     -744.1506082358632739
      Enl =       25.9663214398436466
      Exc =     -810.9795244293438827
 Exc_core =      457.0354043857101942
       KE =      760.7264317828262392
-------------------------------------
     Etot =    -2464.8076471819649669
       TS =        0.2423642739348476
-------------------------------------
        F =    -2465.0500114558999485

IonicMinimize: Iter:  24  F: -2465.050011455899948  |grad|_K:  1.423e-04  alpha:  1.000e+00  linmin: -1.998e-02  t[s]:  28812.29

#--- Lowdin population analysis ---
# oxidation-state Ir -0.008 +0.048 +0.050 +0.049 -0.008 +0.023 +0.023 +0.050 -0.008 +0.023 +0.049 +0.023 -0.008 +0.015 +0.023 +0.023 -0.008 +0.051 +0.023 +0.023 -0.008 +0.023 +0.015 +0.023 -0.008 +0.023 +0.023 +0.015 -0.008 +0.015 +0.015 +0.015
# oxidation-state O -0.077


-------- Electronic minimization -----------
Will mix electronic density at each iteration.
	FillingsUpdate:  mu: +1.082432777  nElectrons: 486.000000
	FillingsUpdate:  mu: +1.082432231  nElectrons: 486.000000
SCF: Cycle:  0   F: -2465.049955326375766   dF: -1.202e-05   |Residual|: 3.296e-03   |deigs|: 1.391e-05  t[s]:  28929.29
	FillingsUpdate:  mu: +1.082435192  nElectrons: 486.000000
SCF: Cycle:  1   F: -2465.049916933046006   dF: +3.839e-05   |Residual|: 4.681e-03   |deigs|: 3.583e-05  t[s]:  28995.66
	FillingsUpdate:  mu: +1.082432768  nElectrons: 486.000000
SCF: Cycle:  2   F: -2465.050009111809231   dF: -9.218e-05   |Residual|: 8.691e-04   |deigs|: 2.977e-05  t[s]:  29062.18
	FillingsUpdate:  mu: +1.082433589  nElectrons: 486.000000
SCF: Cycle:  3   F: -2465.050009402474643   dF: -2.907e-07   |Residual|: 7.398e-04   |deigs|: 6.711e-06  t[s]:  29129.90
	FillingsUpdate:  mu: +1.082433114  nElectrons: 486.000000
SCF: Cycle:  4   F: -2465.050012024760690   dF: -2.622e-06   |Residual|: 1.492e-04   |deigs|: 4.546e-06  t[s]:  29197.40
	FillingsUpdate:  mu: +1.082433181  nElectrons: 486.000000
SCF: Cycle:  5   F: -2465.050012016194160   dF: +8.567e-09   |Residual|: 1.059e-04   |deigs|: 7.374e-07  t[s]:  29264.27
	FillingsUpdate:  mu: +1.082433170  nElectrons: 486.000000
SCF: Cycle:  6   F: -2465.050012052488000   dF: -3.629e-08   |Residual|: 2.124e-05   |deigs|: 4.238e-07  t[s]:  29331.17
	FillingsUpdate:  mu: +1.082433190  nElectrons: 486.000000
SCF: Cycle:  7   F: -2465.050012053208775   dF: -7.208e-10   |Residual|: 1.161e-05   |deigs|: 1.586e-07  t[s]:  29396.33
	FillingsUpdate:  mu: +1.082433180  nElectrons: 486.000000
SCF: Cycle:  8   F: -2465.050012053762202   dF: -5.534e-10   |Residual|: 6.220e-06   |deigs|: 1.097e-07  t[s]:  29462.12
SCF: Converged (|Delta E|<1.000000e-08 for 2 iters).

Setting wave functions to eigenvectors of Hamiltonian

# Ionic positions in lattice coordinates:
ion Ir   0.000000000000000   0.000000000000000   0.000000000000000 0
ion Ir  -0.018830564862296   0.250181882109578   0.250105123068121 1
ion Ir   0.250194252570791  -0.019237654760910   0.249996122598011 1
ion Ir   0.250221270682358   0.250080488615614  -0.019241137396374 1
ion Ir   0.000028526465706  -0.000069707916835   0.500298796835794 1
ion Ir  -0.003244228729143   0.250136094113000   0.750038504202135 1
ion Ir   0.250235166153018  -0.003296890958128   0.750047477347093 1
ion Ir   0.250146202750157   0.250179417193602   0.519435187452530 1
ion Ir   0.000025927164752   0.500334950005294  -0.000160581824733 1
ion Ir  -0.003204967633492   0.750215849870325   0.250029686739791 1
ion Ir   0.250184611399122   0.519613795091040   0.250101329323853 1
ion Ir   0.250243006330408   0.750214089952642  -0.003401151269703 1
ion Ir   0.000057758826965   0.500383685031504   0.500354239140786 1
ion Ir  -0.000567206449591   0.750183217964981   0.750138992531193 1
ion Ir   0.250262618333940   0.503614046180776   0.749967121347902 1
ion Ir   0.250278638553114   0.750142087976539   0.503566504369995 1
ion Ir   0.500471393283680  -0.000096998064999  -0.000196151163737 1
ion Ir   0.519766822094099   0.250159030629313   0.250000254787976 1
ion Ir   0.750314957200349  -0.003356770619165   0.250057846598772 1
ion Ir   0.750324759856117   0.250205094458959  -0.003486148198716 1
ion Ir   0.500450332554600  -0.000041625890677   0.500260765915254 1
ion Ir   0.503780216054543   0.250160029659312   0.750025006080348 1
ion Ir   0.750243400084464  -0.000646779081248   0.750076235899836 1
ion Ir   0.750321461877945   0.250144522859938   0.503590402148938 1
ion Ir   0.500482373968214   0.500329262441926  -0.000129258094308 1
ion Ir   0.503737753940884   0.750181454606656   0.250048375132970 1
ion Ir   0.750303682997525   0.503588822872777   0.250009418956884 1
ion Ir   0.750253871611434   0.750127887502437  -0.000792918630395 1
ion Ir   0.500407919418207   0.500344941605181   0.500265411415407 1
ion Ir   0.501072739470123   0.750152027422104   0.750034838024720 1
ion Ir   0.750222686989025   0.500922286315074   0.750127561894245 1
ion Ir   0.750173136984402   0.750217856814192   0.500885387318662 1
ion O   0.250871583013173   0.250355644148470   0.249931421300565 1

# Forces in Lattice coordinates:
force Ir   0.000588647145144  -0.002442969938152  -0.008578176507945 0
force Ir  -0.003757245043091  -0.000999666627454   0.001275777951105 1
force Ir   0.001771252146510   0.009760423407658   0.006010614005073 1
force Ir  -0.000136999007349   0.003278608128065  -0.005926495623159 1
force Ir   0.001088526503681  -0.001605333035189  -0.000768514143459 1
force Ir   0.001848083671501  -0.000114684881792   0.003196072323925 1
force Ir   0.000017816007175  -0.002253459046664   0.000995772492307 1
force Ir   0.002158659968040  -0.003657363853802  -0.006997856508020 1
force Ir   0.003843420867933   0.002162913801078  -0.000104485009796 1
force Ir  -0.004463058252891  -0.005102454733193   0.003380846832775 1
force Ir  -0.000356962504613  -0.003984646073427  -0.001766018268122 1
force Ir   0.000672412154738  -0.005290562640416  -0.005506198633665 1
force Ir  -0.004297912536638   0.003355213828071  -0.003099827090192 1
force Ir   0.000753200153313  -0.000661814449413  -0.003182255096621 1
force Ir  -0.000135240646699   0.002550502463019   0.009514360816098 1
force Ir  -0.002123412731495   0.003382998524828   0.000832394832499 1
force Ir   0.000934615991962   0.002362353856417   0.002146429025949 1
force Ir   0.002922688393185  -0.002993117198209   0.003328991487899 1
force Ir  -0.001844448739499   0.003384745190019   0.000415758880192 1
force Ir  -0.000869613776450  -0.003813924592808   0.004692301962608 1
force Ir  -0.001733720229060   0.002260786301435  -0.001862385805112 1
force Ir  -0.002758675007749  -0.000704564265929   0.001948006818925 1
force Ir   0.000882854955960  -0.000667682783063  -0.000064136737108 1
force Ir  -0.001658820373380   0.001235577497165  -0.004864940937122 1
force Ir  -0.004499600377591   0.001948310314078  -0.000318691306740 1
force Ir   0.003277512867714  -0.001769769210080   0.000232436395088 1
force Ir   0.000961703573938   0.004350938120306   0.004985711810535 1
force Ir  -0.000418588538101   0.001078514787002   0.003553076481172 1
force Ir   0.004228229809255  -0.000749571403773  -0.002574028604090 1
force Ir  -0.002352532722362  -0.000699595959313   0.001591467365953 1
force Ir   0.001119455271884   0.003559627557826  -0.005615008635986 1
force Ir   0.004640196780957  -0.005494064178940  -0.001584434222533 1
force O  -0.001683429935160  -0.002448831043450   0.004336004341129 1

# Energy components:
   Eewald =    -2399.8680513700155643
       EH =      246.4642620068834447
     Eloc =     -744.1524587154606252
      Enl =       25.9663359631205921
      Exc =     -810.9795206755267145
 Exc_core =      457.0354039470104794
       KE =      760.7263831410733701
-------------------------------------
     Etot =    -2464.8076457029155790
       TS =        0.2423663508465827
-------------------------------------
        F =    -2465.0500120537622024

IonicMinimize: Iter:  25  F: -2465.050012053762202  |grad|_K:  2.334e-04  alpha:  1.000e+00  linmin:  2.253e-01  t[s]:  29475.50

#--- Lowdin population analysis ---
# oxidation-state Ir -0.008 +0.049 +0.049 +0.050 -0.008 +0.023 +0.023 +0.049 -0.008 +0.023 +0.050 +0.023 -0.008 +0.015 +0.023 +0.023 -0.008 +0.050 +0.023 +0.023 -0.008 +0.023 +0.015 +0.023 -0.008 +0.023 +0.022 +0.015 -0.008 +0.015 +0.015 +0.015
# oxidation-state O -0.077


-------- Electronic minimization -----------
Will mix electronic density at each iteration.
	FillingsUpdate:  mu: +1.082433180  nElectrons: 486.000000
	FillingsUpdate:  mu: +1.082433400  nElectrons: 486.000000
SCF: Cycle:  0   F: -2465.049997393832655   dF: +5.311e-06   |Residual|: 1.834e-03   |deigs|: 2.393e-06  t[s]:  29587.60
	FillingsUpdate:  mu: +1.082433844  nElectrons: 486.000000
SCF: Cycle:  1   F: -2465.049987657283054   dF: +9.737e-06   |Residual|: 2.648e-03   |deigs|: 2.162e-05  t[s]:  29654.40
	FillingsUpdate:  mu: +1.082433572  nElectrons: 486.000000
SCF: Cycle:  2   F: -2465.050016328625134   dF: -2.867e-05   |Residual|: 4.512e-04   |deigs|: 1.682e-05  t[s]:  29722.43
	FillingsUpdate:  mu: +1.082433672  nElectrons: 486.000000
SCF: Cycle:  3   F: -2465.050016539822991   dF: -2.112e-07   |Residual|: 3.921e-04   |deigs|: 3.607e-06  t[s]:  29788.79
	FillingsUpdate:  mu: +1.082433627  nElectrons: 486.000000
SCF: Cycle:  4   F: -2465.050017332809148   dF: -7.930e-07   |Residual|: 8.170e-05   |deigs|: 2.427e-06  t[s]:  29856.02
	FillingsUpdate:  mu: +1.082433621  nElectrons: 486.000000
SCF: Cycle:  5   F: -2465.050017332978769   dF: -1.696e-10   |Residual|: 4.727e-05   |deigs|: 4.209e-07  t[s]:  29923.69
	FillingsUpdate:  mu: +1.082433619  nElectrons: 486.000000
SCF: Cycle:  6   F: -2465.050017339346141   dF: -6.367e-09   |Residual|: 1.389e-05   |deigs|: 2.553e-07  t[s]:  29988.96
SCF: Converged (|Delta E|<1.000000e-08 for 2 iters).

Setting wave functions to eigenvectors of Hamiltonian

# Ionic positions in lattice coordinates:
ion Ir   0.000000000000000   0.000000000000000   0.000000000000000 0
ion Ir  -0.018824806640386   0.250238105009740   0.250135813973541 1
ion Ir   0.250223415109676  -0.019131892753814   0.250072519518195 1
ion Ir   0.250239889875390   0.250184414189139  -0.019142851502187 1
ion Ir   0.000093175634023  -0.000000417335209   0.500350586971662 1
ion Ir  -0.003185736897053   0.250199928907901   0.750148645812102 1
ion Ir   0.250283979104754  -0.003259407727302   0.750144890508364 1
ion Ir   0.250224937670738   0.250227564697750   0.519536682526721 1
ion Ir   0.000076552086650   0.500437682583165  -0.000101599806616 1
ion Ir  -0.003207972800764   0.750218240146697   0.250124666985565 1
ion Ir   0.250221015162729   0.519600001300740   0.250125895286243 1
ion Ir   0.250286333102766   0.750211330613738  -0.003370014778204 1
ion Ir   0.000077098231111   0.500456577413385   0.500387544380049 1
ion Ir  -0.000519941137711   0.750231964841964   0.750142393936260 1
ion Ir   0.250302373331973   0.503701237008593   0.750140903559063 1
ion Ir   0.250295187158667   0.750231568632317   0.503631467388897 1
ion Ir   0.500517241401026  -0.000008603128109  -0.000091250866781 1
ion Ir   0.519840519175317   0.250226698490850   0.250078702470926 1
ion Ir   0.750333003723921  -0.003257924117014   0.250124107302564 1
ion Ir   0.750354582241652   0.250230682399111  -0.003359580853953 1
ion Ir   0.500459258550128   0.000053260999754   0.500301069443886 1
ion Ir   0.503798340573975   0.250214173151466   0.750139788412002 1
ion Ir   0.750279271585589  -0.000586798950917   0.750117523935975 1
ion Ir   0.750345938119361   0.250220608467085   0.503616198927795 1
ion Ir   0.500495250457151   0.500424123466773  -0.000065164939453 1
ion Ir   0.503794093484275   0.750220545875734   0.250117778354083 1
ion Ir   0.750347849133063   0.503697705721038   0.250125997650435 1
ion Ir   0.750275857663822   0.750200206658175  -0.000691669672611 1
ion Ir   0.500486163083216   0.500405276831574   0.500317264594696 1
ion Ir   0.501088330002745   0.750218403894657   0.750105190488967 1
ion Ir   0.750281886283620   0.501026250886520   0.750128331587879 1
ion Ir   0.750267667670700   0.750237435721789   0.500929142755822 1
ion O   0.250899505899514   0.250263090837870   0.250275026061053 1

# Forces in Lattice coordinates:
force Ir   0.002577255364672  -0.000843597112672  -0.005376425288586 0
force Ir  -0.001015525082401   0.000043379279434   0.000205430877423 1
force Ir   0.000695298499594   0.001441174091017   0.001651688542186 1
force Ir  -0.000096339941537   0.001136825162194  -0.000808595146704 1
force Ir  -0.000468702279874  -0.000398739885144   0.000014380448463 1
force Ir  -0.000256133518858   0.000264033643848   0.000544870499417 1
force Ir  -0.000076270409268  -0.000710332521004   0.000720942053095 1
force Ir   0.000270641382674  -0.000484569846169  -0.001322048611635 1
force Ir   0.000469864429346   0.000420103504547  -0.000095111720691 1
force Ir  -0.000219727556071  -0.000661680294429   0.000737899131156 1
force Ir   0.000044747441219  -0.001721143318176  -0.000674529972184 1
force Ir   0.000243754562313   0.000026630035960  -0.000596799937329 1
force Ir  -0.000895006301013   0.000105553304950  -0.001052276174551 1
force Ir  -0.000243451159481  -0.000010163956879  -0.000063323689570 1
force Ir   0.000030030107916   0.000276075782678   0.001471033694894 1
force Ir  -0.000218550391319   0.000255005841639  -0.000151880268828 1
force Ir  -0.000329346528226   0.000735904625431   0.000353549543697 1
force Ir  -0.000361055647512  -0.000548977826878   0.001020515990109 1
force Ir  -0.000100455873984  -0.000237027804903   0.000765152030952 1
force Ir  -0.000363980614886  -0.000380547616027  -0.000124119085805 1
force Ir   0.000419002019987  -0.000131853678168   0.000218997115740 1
force Ir  -0.000401356626441   0.000279367298293   0.000441609938697 1
force Ir   0.000057211469003  -0.000225486920929   0.000372520217262 1
force Ir  -0.000091138040163   0.000293015311712  -0.000031216962535 1
force Ir  -0.000741582878682  -0.000135443523610  -0.000404082597427 1
force Ir   0.000184299719662  -0.000000084403903   0.000244284254464 1
force Ir   0.000302638505160   0.000866162551552   0.000791208283884 1
force Ir  -0.000222295800332   0.000333974249998   0.000296995753212 1
force Ir   0.000695728412130  -0.000376028537638  -0.000426165530613 1
force Ir  -0.000076650140609  -0.000139476923939   0.000874717225550 1
force Ir  -0.000320363001419   0.000222056258920  -0.000564873416756 1
force Ir   0.000514170609846  -0.001118750990167   0.000047982586158 1
force O  -0.001667706423281  -0.000054982264095   0.000470339757319 1

# Energy components:
   Eewald =    -2399.8680597939378458
       EH =      246.4641764751222013
     Eloc =     -744.1523724282557168
      Enl =       25.9662629951179298
      Exc =     -810.9795105128522437
 Exc_core =      457.0354040250728076
       KE =      760.7264474721048373
-------------------------------------
     Etot =    -2464.8076517676281583
       TS =        0.2423655717179229
-------------------------------------
        F =    -2465.0500173393461409

IonicMinimize: Iter:  26  F: -2465.050017339346141  |grad|_K:  4.355e-05  alpha:  1.000e+00  linmin: -1.957e-01  t[s]:  30002.49
IonicMinimize: Converged (|grad|_K<1.000000e-04).

#--- Lowdin population analysis ---
# oxidation-state Ir -0.008 +0.049 +0.049 +0.049 -0.008 +0.023 +0.023 +0.050 -0.008 +0.023 +0.050 +0.023 -0.008 +0.015 +0.023 +0.023 -0.008 +0.050 +0.023 +0.023 -0.008 +0.023 +0.015 +0.023 -0.008 +0.023 +0.023 +0.015 -0.008 +0.015 +0.015 +0.015
# oxidation-state O -0.077


Dumping 'Ir_oct.Ecomponents' ... done
End date and time: Mon Jun 17 05:08:51 2024  (Duration: 0-8:20:13.36)
Done!
