--------------------------------------------------------------------------
Initialization of PSM library failed.

  Error: PSM is in the finalized state
--------------------------------------------------------------------------

*************** JDFTx 1.7.0 (git hash 3664913) ***************

Start date and time: Mon Jun 17 13:05:19 2024
Executable jdftx with command-line: -i Ir_tet.in
Running on hosts (process indices):  node3201.physics.cornell.edu (0-15)
Divided in process groups (process indices):  0 (0)  1 (1)  2 (2)  3 (3)  4 (4)  5 (5)  6 (6)  7 (7)  8 (8)  9 (9)  10 (10)  11 (11)  12 (12)  13 (13)  14 (14)  15 (15)
Resource initialization completed at t[s]:      0.00
Run totals: 16 processes, 32 threads, 0 GPUs


Input parsed successfully to the following command list (including defaults):

basis kpoint-dependent
coords-type Lattice
core-overlap-check vector
coulomb-interaction Periodic
davidson-band-ratio 1.1
dump End Ecomponents
dump-name $INPUT.$VAR
elec-cutoff 20 100
elec-eigen-algo Davidson
elec-ex-corr gga-PBEsol
elec-smearing Fermi 0.01
electronic-minimize  \
	dirUpdateScheme      FletcherReeves \
	linminMethod         DirUpdateRecommended \
	nIterations          100 \
	history              15 \
	knormThreshold       0 \
	maxThreshold         no \
	energyDiffThreshold  1e-08 \
	nEnergyDiff          2 \
	alphaTstart          1 \
	alphaTmin            1e-10 \
	updateTestStepSize   yes \
	alphaTreduceFactor   0.1 \
	alphaTincreaseFactor 3 \
	nAlphaAdjustMax      3 \
	wolfeEnergy          0.0001 \
	wolfeGradient        0.9 \
	fdTest               no
electronic-scf  \
	nIterations	50 \
	energyDiffThreshold	1e-08 \
	residualThreshold	1e-07 \
	mixFraction	0.5 \
	qMetric	0.8 \
	history	10 \
	nEigSteps	2 \
	eigDiffThreshold	1e-08 \
	mixedVariable	Density \
	qKerker	0.8 \
	qKappa	-1 \
	verbose	no \
	mixFractionMag	1.5
exchange-regularization WignerSeitzTruncated
fluid None
fluid-ex-corr lda-TF lda-PZ
fluid-gummel-loop 10 1.000000e-05
fluid-minimize  \
	dirUpdateScheme      PolakRibiere \
	linminMethod         DirUpdateRecommended \
	nIterations          100 \
	history              15 \
	knormThreshold       0 \
	maxThreshold         no \
	energyDiffThreshold  0 \
	nEnergyDiff          2 \
	alphaTstart          1 \
	alphaTmin            1e-10 \
	updateTestStepSize   yes \
	alphaTreduceFactor   0.1 \
	alphaTincreaseFactor 3 \
	nAlphaAdjustMax      3 \
	wolfeEnergy          0.0001 \
	wolfeGradient        0.9 \
	fdTest               no
fluid-solvent H2O 55.338 ScalarEOS \
	epsBulk 78.4 \
	pMol 0.92466 \
	epsInf 1.77 \
	Pvap 1.06736e-10 \
	sigmaBulk 4.62e-05 \
	Rvdw 2.61727 \
	Res 1.42 \
	tauNuc 343133 \
	poleEl 15 7 1
forces-output-coords Positions
ion Ir   0.000000000000000   0.000000000000000  -0.000000000000000 0
ion Ir   0.004830000000000   0.263660000000000   0.289690000000000 1
ion Ir   0.283280000000000   0.014530000000000   0.286050000000000 1
ion Ir   0.281840000000000   0.234730000000000   0.003810000000000 1
ion Ir   0.000110000000000  -0.011310000000000   0.517010000000000 1
ion Ir  -0.000960000000000   0.260290000000000   0.764450000000000 1
ion Ir   0.244800000000000  -0.004930000000000   0.753530000000000 1
ion Ir   0.262970000000000   0.252290000000000   0.496950000000000 1
ion Ir   0.000330000000000   0.496790000000000   0.015240000000000 1
ion Ir   0.003620000000000   0.754060000000000   0.269790000000000 1
ion Ir   0.249340000000000   0.514640000000000   0.246850000000000 1
ion Ir   0.267960000000000   0.764080000000000  -0.016920000000000 1
ion Ir  -0.007380000000000   0.504230000000000   0.495810000000000 1
ion Ir  -0.006220000000000   0.748970000000000   0.767090000000000 1
ion Ir   0.257180000000000   0.518050000000000   0.737970000000000 1
ion Ir   0.256250000000000   0.753340000000000   0.497260000000000 1
ion Ir   0.512130000000000   0.008350000000000   0.010540000000000 1
ion Ir   0.497660000000000   0.229540000000000   0.249510000000000 1
ion Ir   0.737610000000000  -0.010040000000000   0.256180000000000 1
ion Ir   0.749120000000000   0.240770000000000   0.008700000000000 1
ion Ir   0.490300000000000  -0.002030000000000   0.501190000000000 1
ion Ir   0.504770000000000   0.248120000000000   0.758890000000000 1
ion Ir   0.748700000000000  -0.004570000000000   0.739380000000000 1
ion Ir   0.762010000000000   0.255180000000000   0.501510000000000 1
ion Ir   0.497990000000000   0.496850000000000   0.003520000000000 1
ion Ir   0.496730000000000   0.755290000000000   0.254640000000000 1
ion Ir   0.748990000000000   0.510960000000000   0.234900000000000 1
ion Ir   0.754510000000000   0.758480000000000  -0.007590000000000 1
ion Ir   0.501200000000000   0.491010000000000   0.482560000000000 1
ion Ir   0.506930000000000   0.737020000000000   0.758910000000000 1
ion Ir   0.754240000000000   0.476980000000000   0.769830000000000 1
ion Ir   0.748750000000000   0.733960000000000   0.499470000000000 1
ion O   0.120000000000000   0.120000000000000   0.130000000000000 1
ion-species GBRV/$ID_pbesol.uspp
ion-width 0
ionic-minimize  \
	dirUpdateScheme      L-BFGS \
	linminMethod         DirUpdateRecommended \
	nIterations          30 \
	history              15 \
	knormThreshold       0.0001 \
	maxThreshold         no \
	energyDiffThreshold  1e-06 \
	nEnergyDiff          2 \
	alphaTstart          1 \
	alphaTmin            1e-10 \
	updateTestStepSize   yes \
	alphaTreduceFactor   0.1 \
	alphaTincreaseFactor 3 \
	nAlphaAdjustMax      3 \
	wolfeEnergy          0.0001 \
	wolfeGradient        0.9 \
	fdTest               no
kpoint   0.000000000000   0.000000000000   0.000000000000  1.00000000000000
kpoint-folding 4 4 4 
latt-move-scale 1 1 1
latt-scale 1 1 1 
lattice  \
	  13.892155804525276   -0.000000000000000   -0.000000000000000  \
	  -0.000000000000000   13.892155804525276   -0.000000000000000  \
	  -0.000000000000000   -0.000000000000000   13.892155804525276 
lattice-minimize  \
	dirUpdateScheme      L-BFGS \
	linminMethod         DirUpdateRecommended \
	nIterations          0 \
	history              15 \
	knormThreshold       0 \
	maxThreshold         no \
	energyDiffThreshold  1e-06 \
	nEnergyDiff          2 \
	alphaTstart          1 \
	alphaTmin            1e-10 \
	updateTestStepSize   yes \
	alphaTreduceFactor   0.1 \
	alphaTincreaseFactor 3 \
	nAlphaAdjustMax      3 \
	wolfeEnergy          0.0001 \
	wolfeGradient        0.9 \
	fdTest               no
lcao-params -1 1e-06 0.01
pcm-variant GLSSA13
perturb-minimize  \
	nIterations            0 \
	algorithm              MINRES \
	residualTol            0.0001 \
	residualDiffThreshold  0.0001 \
	CGBypass               no \
	recomputeResidual      no
spintype no-spin
subspace-rotation-factor 1 yes
symmetries automatic
symmetry-threshold 0.0001



---------- Setting up symmetries ----------

Found 48 point-group symmetries of the bravais lattice
Found 1 space-group symmetries with basis
Applied RMS atom displacement 0 bohrs to make symmetries exact.

---------- Initializing the Grid ----------
R = 
[      13.8922            0            0  ]
[            0      13.8922            0  ]
[            0            0      13.8922  ]
unit cell volume = 2681.07
G =
[   0.452283          0          0  ]
[          0   0.452283          0  ]
[          0          0   0.452283  ]
Minimum fftbox size, Smin = [  64  64  64  ]
Chosen fftbox size, S = [  64  64  64  ]

---------- Initializing tighter grid for wavefunction operations ----------
R = 
[      13.8922            0            0  ]
[            0      13.8922            0  ]
[            0            0      13.8922  ]
unit cell volume = 2681.07
G =
[   0.452283          0          0  ]
[          0   0.452283          0  ]
[          0          0   0.452283  ]
Minimum fftbox size, Smin = [  56  56  56  ]
Chosen fftbox size, S = [  56  56  56  ]

---------- Exchange Correlation functional ----------
Initalized PBEsol GGA exchange.
Initalized PBEsol GGA correlation.

---------- Setting up pseudopotentials ----------
Width of ionic core gaussian charges (only for fluid interactions / plotting) set to 0

Reading pseudopotential file '/home/rc652/build/pseudopotentials/GBRV/ir_pbesol.uspp':
  Title: Ir.  Created by USPP 7.3.6 on 3-2-2014
  Reference state energy: -90.341717.  15 valence electrons in orbitals:
    |510>  occupation: 6  eigenvalue: -2.020249
    |520>  occupation: 8.5  eigenvalue: -0.307346
    |600>  occupation: 0  eigenvalue: -0.313250
    |610>  occupation: 0  eigenvalue: -0.121182
  lMax: 2  lLocal: 3  QijEcut: 5
  7 projectors sampled on a log grid with 745 points:
    l: 0  eig: -0.313250  rCut: 2.55
    l: 0  eig: 0.250000  rCut: 2.55
    l: 1  eig: -2.020249  rCut: 1.62
    l: 1  eig: -0.121182  rCut: 1.62
    l: 1  eig: 1.000000  rCut: 1.62
    l: 2  eig: -0.500000  rCut: 1.65
    l: 2  eig: -0.307346  rCut: 1.65
  Partial core density with radius 1.15
  Transforming core density to a uniform radial grid of dG=0.02 with 1259 points.
  Transforming local potential to a uniform radial grid of dG=0.02 with 1259 points.
  Transforming nonlocal projectors to a uniform radial grid of dG=0.02 with 432 points.
  Transforming density augmentations to a uniform radial grid of dG=0.02 with 1259 points.
  Transforming atomic orbitals to a uniform radial grid of dG=0.02 with 432 points.
  Core radius for overlap checks: 2.55 bohrs.

Reading pseudopotential file '/home/rc652/build/pseudopotentials/GBRV/o_pbesol.uspp':
  Title: O.  Created by USPP 7.3.6 on 3-2-2014
  Reference state energy: -15.849885.  6 valence electrons in orbitals:
    |200>  occupation: 2  eigenvalue: -0.873214
    |210>  occupation: 4  eigenvalue: -0.330058
  lMax: 2  lLocal: 2  QijEcut: 6
  5 projectors sampled on a log grid with 511 points:
    l: 0  eig: -0.873214  rCut: 1.25
    l: 0  eig: 0.000000  rCut: 1.25
    l: 1  eig: -0.330058  rCut: 1.25
    l: 1  eig: 0.000000  rCut: 1.25
    l: 2  eig: 1.000000  rCut: 1.25
  Partial core density with radius 0.7
  Transforming core density to a uniform radial grid of dG=0.02 with 1259 points.
  Transforming local potential to a uniform radial grid of dG=0.02 with 1259 points.
  Transforming nonlocal projectors to a uniform radial grid of dG=0.02 with 432 points.
  Transforming density augmentations to a uniform radial grid of dG=0.02 with 1259 points.
  Transforming atomic orbitals to a uniform radial grid of dG=0.02 with 432 points.
  Core radius for overlap checks: 1.25 bohrs.

Initialized 2 species with 33 total atoms.

Folded 1 k-points by 4x4x4 to 64 k-points.

---------- Setting up k-points, bands, fillings ----------
Adding inversion symmetry to k-mesh for non-inversion-symmetric unit cell.
Reduced to 36 k-points under symmetry. 
Computing the number of bands and number of electrons
Calculating initial fillings.
nElectrons: 486.000000   nBands: 388   nStates: 36

----- Setting up reduced wavefunction bases (one per k-point) -----
average nbasis = 11446.484 , ideal nbasis = 11453.756

---------- Setting up ewald sum ----------
Optimum gaussian width for ewald sums = 3.094525 bohr.
Real space sum over 729 unit cells with max indices [  4  4  4  ]
Reciprocal space sum over 4913 terms with max indices [  8  8  8  ]

---------- Allocating electronic variables ----------
Initializing wave functions:  linear combination of atomic orbitals
Ir pseudo-atom occupations:   s ( 2 )  p ( 6 0 )  d ( 7 )
O pseudo-atom occupations:   s ( 2 )  p ( 4 )
	FillingsUpdate:  mu: +1.112513432  nElectrons: 486.000000
LCAOMinimize: Iter:   0  F: -2463.4474099776416551  |grad|_K:  9.215e-04  alpha:  1.000e+00
	FillingsUpdate:  mu: +1.107835908  nElectrons: 486.000000
LCAOMinimize: Iter:   1  F: -2463.5521662242890670  |grad|_K:  8.207e-04  alpha:  1.317e-01  linmin:  2.008e-01  cgtest: -7.156e-01  t[s]:     92.94
LCAOMinimize: 	Bad step direction: g.d > 0.
LCAOMinimize: 	Undoing step.
LCAOMinimize: 	Step failed: resetting search direction.
	FillingsUpdate:  mu: +1.107835908  nElectrons: 486.000000
LCAOMinimize: Iter:   2  F: -2463.5521662242890670  |grad|_K:  8.207e-04  alpha:  0.000e+00
	FillingsUpdate:  mu: +1.101422900  nElectrons: 486.000000
LCAOMinimize: Iter:   3  F: -2463.6741328936400350  |grad|_K:  2.204e-04  alpha:  6.630e-02  linmin: -1.879e-03  cgtest:  3.332e-03  t[s]:    146.88
LCAOMinimize: 	Predicted alpha/alphaT>3.000000, increasing alphaT to 1.989066e-01.
	FillingsUpdate:  mu: +1.095003319  nElectrons: 486.000000
LCAOMinimize: Iter:   4  F: -2463.7321424012325224  |grad|_K:  2.341e-04  alpha:  4.345e-01  linmin: -3.481e-03  cgtest:  2.509e-02  t[s]:    186.03
	FillingsUpdate:  mu: +1.092036136  nElectrons: 486.000000
LCAOMinimize: Iter:   5  F: -2463.7501932050936375  |grad|_K:  1.098e-04  alpha:  1.225e-01  linmin:  7.708e-03  cgtest: -9.876e-02  t[s]:    217.59
	FillingsUpdate:  mu: +1.091321818  nElectrons: 486.000000
LCAOMinimize: Iter:   6  F: -2463.7527021517448702  |grad|_K:  2.193e-05  alpha:  7.867e-02  linmin:  1.262e-04  cgtest:  1.593e-01  t[s]:    247.48
	FillingsUpdate:  mu: +1.091347786  nElectrons: 486.000000
LCAOMinimize: Iter:   7  F: -2463.7529350569702729  |grad|_K:  1.725e-05  alpha:  1.778e-01  linmin:  6.284e-05  cgtest: -2.970e-04  t[s]:    278.75
	FillingsUpdate:  mu: +1.091360154  nElectrons: 486.000000
LCAOMinimize: Iter:   8  F: -2463.7530591230770369  |grad|_K:  1.303e-05  alpha:  1.531e-01  linmin: -2.564e-06  cgtest:  9.869e-04  t[s]:    309.67
	FillingsUpdate:  mu: +1.091345777  nElectrons: 486.000000
LCAOMinimize: Iter:   9  F: -2463.7531153928634922  |grad|_K:  5.095e-06  alpha:  1.216e-01  linmin:  1.736e-05  cgtest: -1.226e-03  t[s]:    340.67
	FillingsUpdate:  mu: +1.091333254  nElectrons: 486.000000
LCAOMinimize: Iter:  10  F: -2463.7531327504420915  |grad|_K:  4.076e-06  alpha:  2.455e-01  linmin: -3.181e-05  cgtest:  7.119e-04  t[s]:    371.31
	FillingsUpdate:  mu: +1.091324418  nElectrons: 486.000000
LCAOMinimize: Iter:  11  F: -2463.7531372252169604  |grad|_K:  1.769e-06  alpha:  9.888e-02  linmin:  3.772e-05  cgtest: -2.160e-03  t[s]:    402.56
	FillingsUpdate:  mu: +1.091323050  nElectrons: 486.000000
LCAOMinimize: Iter:  12  F: -2463.7531387269159495  |grad|_K:  1.160e-06  alpha:  1.762e-01  linmin:  8.135e-05  cgtest: -9.918e-05  t[s]:    433.27
	FillingsUpdate:  mu: +1.091316840  nElectrons: 486.000000
LCAOMinimize: Iter:  13  F: -2463.7531397303441736  |grad|_K:  8.485e-07  alpha:  2.741e-01  linmin:  3.259e-04  cgtest: -1.195e-03  t[s]:    463.90
	FillingsUpdate:  mu: +1.091315631  nElectrons: 486.000000
LCAOMinimize: Iter:  14  F: -2463.7531399356844304  |grad|_K:  4.732e-07  alpha:  1.050e-01  linmin: -3.931e-06  cgtest:  2.603e-03  t[s]:    495.22
	FillingsUpdate:  mu: +1.091315816  nElectrons: 486.000000
LCAOMinimize: Iter:  15  F: -2463.7531400088664668  |grad|_K:  1.591e-07  alpha:  1.202e-01  linmin:  4.156e-03  cgtest: -1.549e-02  t[s]:    526.46
LCAOMinimize: Converged (|Delta F|<1.000000e-06 for 2 iters).


---- Citations for features of the code used in this run ----

   Software package:
      R. Sundararaman, K. Letchworth-Weaver, K.A. Schwarz, D. Gunceler, Y. Ozhabes and T.A. Arias, 'JDFTx: software for joint density-functional theory', SoftwareX 6, 278 (2017)

   gga-PBEsol exchange-correlation functional:
      J.P. Perdew et al., Phys. Rev. Lett. 100, 136406 (2008)

   Pseudopotentials:
      KF Garrity, JW Bennett, KM Rabe and D Vanderbilt, Comput. Mater. Sci. 81, 446 (2014)

This list may not be complete. Please suggest additional citations or
report any other bugs at https://github.com/shankar1729/jdftx/issues

Initialization completed successfully at t[s]:    543.43


-------- Electronic minimization -----------
Will mix electronic density at each iteration.
	FillingsUpdate:  mu: +1.091315816  nElectrons: 486.000000
	FillingsUpdate:  mu: +1.087489113  nElectrons: 486.000000
SCF: Cycle:  0   F: -2464.588102723019801   dF: -8.350e-01   |Residual|: 2.132e-01   |deigs|: 1.404e-01  t[s]:    686.67
	FillingsUpdate:  mu: +1.083569792  nElectrons: 486.000000
SCF: Cycle:  1   F: -2464.639293844303211   dF: -5.119e-02   |Residual|: 1.154e-01   |deigs|: 9.872e-03  t[s]:    808.17
	FillingsUpdate:  mu: +1.082612169  nElectrons: 486.000000
SCF: Cycle:  2   F: -2464.605256009653203   dF: +3.404e-02   |Residual|: 9.157e-02   |deigs|: 6.854e-03  t[s]:    932.96
	FillingsUpdate:  mu: +1.082204300  nElectrons: 486.000000
SCF: Cycle:  3   F: -2464.649308347138231   dF: -4.405e-02   |Residual|: 3.025e-02   |deigs|: 8.817e-03  t[s]:   1050.02
	FillingsUpdate:  mu: +1.082270923  nElectrons: 486.000000
SCF: Cycle:  4   F: -2464.650682806831355   dF: -1.374e-03   |Residual|: 2.224e-02   |deigs|: 9.617e-03  t[s]:   1157.11
	FillingsUpdate:  mu: +1.082304831  nElectrons: 486.000000
SCF: Cycle:  5   F: -2464.652488867319789   dF: -1.806e-03   |Residual|: 6.607e-03   |deigs|: 6.107e-03  t[s]:   1245.72
	FillingsUpdate:  mu: +1.082305941  nElectrons: 486.000000
SCF: Cycle:  6   F: -2464.652606716021182   dF: -1.178e-04   |Residual|: 2.555e-03   |deigs|: 3.118e-03  t[s]:   1321.35
	FillingsUpdate:  mu: +1.082299858  nElectrons: 486.000000
SCF: Cycle:  7   F: -2464.652629222812720   dF: -2.251e-05   |Residual|: 9.530e-04   |deigs|: 2.930e-03  t[s]:   1398.22
	FillingsUpdate:  mu: +1.082293062  nElectrons: 486.000000
SCF: Cycle:  8   F: -2464.652630346239221   dF: -1.123e-06   |Residual|: 5.735e-04   |deigs|: 2.915e-03  t[s]:   1470.54
	FillingsUpdate:  mu: +1.082292854  nElectrons: 486.000000
SCF: Cycle:  9   F: -2464.652631475052658   dF: -1.129e-06   |Residual|: 1.788e-04   |deigs|: 2.601e-03  t[s]:   1544.24
	FillingsUpdate:  mu: +1.082294364  nElectrons: 486.000000
SCF: Cycle: 10   F: -2464.652631557963559   dF: -8.291e-08   |Residual|: 9.598e-05   |deigs|: 2.507e-03  t[s]:   1617.37
	FillingsUpdate:  mu: +1.082294061  nElectrons: 486.000000
SCF: Cycle: 11   F: -2464.652631602564725   dF: -4.460e-08   |Residual|: 4.641e-05   |deigs|: 5.089e-03  t[s]:   1718.19
	FillingsUpdate:  mu: +1.082294082  nElectrons: 486.000000
SCF: Cycle: 12   F: -2464.652631610792469   dF: -8.228e-09   |Residual|: 2.121e-05   |deigs|: 2.803e-03  t[s]:   1808.16
	FillingsUpdate:  mu: +1.082294062  nElectrons: 486.000000
SCF: Cycle: 13   F: -2464.652631612792447   dF: -2.000e-09   |Residual|: 1.095e-05   |deigs|: 3.345e-03  t[s]:   1911.21
SCF: Converged (|Delta E|<1.000000e-08 for 2 iters).

Setting wave functions to eigenvectors of Hamiltonian

# Ionic positions in lattice coordinates:
ion Ir   0.000000000000000   0.000000000000000   0.000000000000000 0
ion Ir   0.004830000000000   0.263660000000000   0.289690000000000 1
ion Ir   0.283280000000000   0.014530000000000   0.286050000000000 1
ion Ir   0.281840000000000   0.234730000000000   0.003810000000000 1
ion Ir   0.000110000000000  -0.011310000000000   0.517010000000000 1
ion Ir  -0.000960000000000   0.260290000000000   0.764450000000000 1
ion Ir   0.244800000000000  -0.004930000000000   0.753530000000000 1
ion Ir   0.262970000000000   0.252290000000000   0.496950000000000 1
ion Ir   0.000330000000000   0.496790000000000   0.015240000000000 1
ion Ir   0.003620000000000   0.754060000000000   0.269790000000000 1
ion Ir   0.249340000000000   0.514640000000000   0.246850000000000 1
ion Ir   0.267960000000000   0.764080000000000  -0.016920000000000 1
ion Ir  -0.007380000000000   0.504230000000000   0.495810000000000 1
ion Ir  -0.006220000000000   0.748970000000000   0.767090000000000 1
ion Ir   0.257180000000000   0.518050000000000   0.737970000000000 1
ion Ir   0.256250000000000   0.753340000000000   0.497260000000000 1
ion Ir   0.512130000000000   0.008350000000000   0.010540000000000 1
ion Ir   0.497660000000000   0.229540000000000   0.249510000000000 1
ion Ir   0.737610000000000  -0.010040000000000   0.256180000000000 1
ion Ir   0.749120000000000   0.240770000000000   0.008700000000000 1
ion Ir   0.490300000000000  -0.002030000000000   0.501190000000000 1
ion Ir   0.504770000000000   0.248120000000000   0.758890000000000 1
ion Ir   0.748700000000000  -0.004570000000000   0.739380000000000 1
ion Ir   0.762010000000000   0.255180000000000   0.501510000000000 1
ion Ir   0.497990000000000   0.496850000000000   0.003520000000000 1
ion Ir   0.496730000000000   0.755290000000000   0.254640000000000 1
ion Ir   0.748990000000000   0.510960000000000   0.234900000000000 1
ion Ir   0.754510000000000   0.758480000000000  -0.007590000000000 1
ion Ir   0.501200000000000   0.491010000000000   0.482560000000000 1
ion Ir   0.506930000000000   0.737020000000000   0.758910000000000 1
ion Ir   0.754240000000000   0.476980000000000   0.769830000000000 1
ion Ir   0.748750000000000   0.733960000000000   0.499470000000000 1
ion O   0.120000000000000   0.120000000000000   0.130000000000000 1

# Forces in Lattice coordinates:
force Ir  -3.390841787825310  -3.311941952245230  -3.058291454388184 0
force Ir  -1.214703854252183   0.303582804075067  -0.617189742663403 1
force Ir  -2.189364622945374  -2.736546393970849  -1.281811053811197 1
force Ir  -0.039198037064970   2.666564136927076  -1.898516029256410 1
force Ir   0.007086302963417   0.513425702351361  -0.433596500417556 1
force Ir   0.792418328661991  -0.524554127180135  -0.429258915436804 1
force Ir   0.405250034234635   0.512085452899457  -0.332837427678180 1
force Ir  -0.426907385451968   0.706120937444320   1.415319194880365 1
force Ir   0.516527956354872   0.126574901051219  -0.464875431712268 1
force Ir   0.030125728833000   0.309438647788210  -1.039041614138805 1
force Ir   0.082280716433681  -0.481342095605723  -0.049678646738843 1
force Ir  -0.793637636120702  -0.664604406611313   1.358953963609818 1
force Ir   0.498400065434533   0.340475180284047   1.099760998839776 1
force Ir   0.315255954120859  -0.414235408881908  -0.662207022029809 1
force Ir  -0.446480046307427  -1.022543849246262   0.469912266575396 1
force Ir  -0.217005567387300  -0.308649968646743   0.505449067429864 1
force Ir  -0.013560953860327  -1.349638897463711  -0.980609383136219 1
force Ir   1.665983154490698   2.274597020921040   0.650523899922245 1
force Ir   1.273534373073054   0.264297948765948   0.321397869784948 1
force Ir   0.531916140401840   0.288814857066591   0.240333758139358 1
force Ir   1.964461831217582  -0.138533007761829   2.016733152849911 1
force Ir  -0.076280735714571  -0.022984797537985  -0.782957684639869 1
force Ir  -0.029970743375352   0.228322656557046   0.428403706526875 1
force Ir  -0.843307716320469  -0.349626428871460   0.295710591438755 1
force Ir   0.022454610663022   0.163316362885225  -0.028081454745153 1
force Ir   0.280774410639988  -0.565255406684717  -0.361282638338354 1
force Ir  -0.071311648014287  -0.363553514523711   0.630352965401369 1
force Ir  -0.183763864600363  -0.380356002013972   0.634078517429208 1
force Ir   0.290468158743351   0.229305157424741   0.689679253243388 1
force Ir   0.453992095826527   0.488098575480217  -0.770273792211676 1
force Ir  -0.217505458041222   1.212614288546956  -0.670406527879243 1
force Ir  -0.195483324844837   0.488700005573356   0.429914252394087 1
force O   1.215949409375826   1.517447761173329   2.674675184693244 1

# Energy components:
   Eewald =    -2385.4856292112272058
       EH =      259.1515349510328292
     Eloc =     -772.2371216236946339
      Enl =       26.5652324478123631
      Exc =     -811.5244384236032147
 Exc_core =      457.0358311393993631
       KE =      762.0759731172247484
-------------------------------------
     Etot =    -2464.4186176030561910
       TS =        0.2340140097362368
-------------------------------------
        F =    -2464.6526316127924474

IonicMinimize: Iter:   0  F: -2464.652631612792447  |grad|_K:  6.576e-02  t[s]:   1927.83

#--- Lowdin population analysis ---
# oxidation-state Ir +0.136 +0.087 +0.135 +0.087 -0.009 -0.023 -0.016 -0.007 -0.021 -0.017 -0.019 -0.006 +0.021 +0.005 -0.000 +0.026 +0.032 +0.039 -0.014 -0.007 +0.032 -0.006 -0.007 +0.003 +0.009 +0.023 +0.011 +0.011 -0.001 +0.012 +0.022 +0.005
# oxidation-state O +0.036


-------- Electronic minimization -----------
Will mix electronic density at each iteration.
	FillingsUpdate:  mu: +1.082294062  nElectrons: 486.000000
	FillingsUpdate:  mu: +1.085586563  nElectrons: 486.000000
SCF: Cycle:  0   F: -2443.432264923829280   dF: +1.971e+01   |Residual|: 1.533e+00   |deigs|: 9.097e-03  t[s]:   2113.15
	FillingsUpdate:  mu: +1.094144196  nElectrons: 486.000000
SCF: Cycle:  1   F: -2444.513127839388744   dF: -1.081e+00   |Residual|: 1.955e+00   |deigs|: 4.382e-02  t[s]:   2240.34
	FillingsUpdate:  mu: +1.083753625  nElectrons: 486.000000
SCF: Cycle:  2   F: -2463.881726556875947   dF: -1.937e+01   |Residual|: 5.412e-01   |deigs|: 4.544e-02  t[s]:   2373.58
	FillingsUpdate:  mu: +1.082561831  nElectrons: 486.000000
SCF: Cycle:  3   F: -2464.406965854323516   dF: -5.252e-01   |Residual|: 3.203e-01   |deigs|: 6.426e-03  t[s]:   2503.99
	FillingsUpdate:  mu: +1.081937362  nElectrons: 486.000000
SCF: Cycle:  4   F: -2464.721211888221205   dF: -3.142e-01   |Residual|: 1.238e-01   |deigs|: 3.560e-03  t[s]:   2630.21
	FillingsUpdate:  mu: +1.081933062  nElectrons: 486.000000
SCF: Cycle:  5   F: -2464.773381141952541   dF: -5.217e-02   |Residual|: 5.608e-02   |deigs|: 8.079e-04  t[s]:   2761.88
	FillingsUpdate:  mu: +1.081991901  nElectrons: 486.000000
SCF: Cycle:  6   F: -2464.779700948794016   dF: -6.320e-03   |Residual|: 3.487e-02   |deigs|: 6.232e-04  t[s]:   2872.60
	FillingsUpdate:  mu: +1.081977063  nElectrons: 486.000000
SCF: Cycle:  7   F: -2464.784457973522876   dF: -4.757e-03   |Residual|: 1.767e-02   |deigs|: 2.006e-04  t[s]:   2945.53
	FillingsUpdate:  mu: +1.081960401  nElectrons: 486.000000
SCF: Cycle:  8   F: -2464.785722094944049   dF: -1.264e-03   |Residual|: 4.252e-03   |deigs|: 1.659e-04  t[s]:   3018.90
	FillingsUpdate:  mu: +1.081952324  nElectrons: 486.000000
SCF: Cycle:  9   F: -2464.785747371176058   dF: -2.528e-05   |Residual|: 2.872e-03   |deigs|: 6.050e-05  t[s]:   3094.67
	FillingsUpdate:  mu: +1.081954599  nElectrons: 486.000000
SCF: Cycle: 10   F: -2464.785783038291356   dF: -3.567e-05   |Residual|: 1.142e-03   |deigs|: 2.266e-05  t[s]:   3168.38
	FillingsUpdate:  mu: +1.081957525  nElectrons: 486.000000
SCF: Cycle: 11   F: -2464.785786752005151   dF: -3.714e-06   |Residual|: 6.146e-04   |deigs|: 1.656e-05  t[s]:   3239.73
	FillingsUpdate:  mu: +1.081957316  nElectrons: 486.000000
SCF: Cycle: 12   F: -2464.785788346247500   dF: -1.594e-06   |Residual|: 1.735e-04   |deigs|: 6.849e-06  t[s]:   3314.82
	FillingsUpdate:  mu: +1.081957043  nElectrons: 486.000000
SCF: Cycle: 13   F: -2464.785788434130609   dF: -8.788e-08   |Residual|: 8.098e-05   |deigs|: 2.384e-06  t[s]:   3390.97
	FillingsUpdate:  mu: +1.081957043  nElectrons: 486.000000
SCF: Cycle: 14   F: -2464.785788454670183   dF: -2.054e-08   |Residual|: 4.052e-05   |deigs|: 8.898e-07  t[s]:   3464.47
	FillingsUpdate:  mu: +1.081957037  nElectrons: 486.000000
SCF: Cycle: 15   F: -2464.785788458342267   dF: -3.672e-09   |Residual|: 2.115e-05   |deigs|: 7.136e-07  t[s]:   3536.27
	FillingsUpdate:  mu: +1.081957009  nElectrons: 486.000000
SCF: Cycle: 16   F: -2464.785788459859759   dF: -1.517e-09   |Residual|: 1.036e-05   |deigs|: 5.589e-07  t[s]:   3616.34
SCF: Converged (|Delta E|<1.000000e-08 for 2 iters).

Setting wave functions to eigenvectors of Hamiltonian

# Ionic positions in lattice coordinates:
ion Ir   0.000000000000000   0.000000000000000   0.000000000000000 0
ion Ir   0.002486837066753   0.264245611028721   0.288499441393697 1
ion Ir   0.279056717087140   0.009251203811928   0.283577387323089 1
ion Ir   0.281764387012369   0.239873800460418   0.000147763832430 1
ion Ir   0.000123669473740  -0.010319602158983   0.516173592636833 1
ion Ir   0.000568574433058   0.259278135434832   0.763621959835398 1
ion Ir   0.245581727048607  -0.003942187499292   0.752887956821654 1
ion Ir   0.262146495935187   0.253652106822348   0.499680149792929 1
ion Ir   0.001326382086942   0.497034162900599   0.014343255599007 1
ion Ir   0.003678112511038   0.754656906947379   0.267785689412009 1
ion Ir   0.249498719447702   0.513711491415223   0.246754169923225 1
ion Ir   0.266429073523659   0.762797978538231  -0.014298578700995 1
ion Ir  -0.006418586602680   0.504886776398082   0.497931438241009 1
ion Ir  -0.005611871472544   0.748170940169628   0.765812603091507 1
ion Ir   0.256318740285313   0.516077513589600   0.738876460452120 1
ion Ir   0.255831396403716   0.752744614414164   0.498235010917517 1
ion Ir   0.512103840928953   0.005746547457444   0.008648405147052 1
ion Ir   0.500873680405600   0.233927696152308   0.250764860173657 1
ion Ir   0.740066646965229  -0.009530169431246   0.256799976278719 1
ion Ir   0.750146065883814   0.241327123668687   0.009163603660850 1
ion Ir   0.494089445576034  -0.002297230080552   0.505080276920968 1
ion Ir   0.504622854511146   0.248075662340717   0.757379675143018 1
ion Ir   0.748642186455807  -0.004129565746176   0.740206390467179 1
ion Ir   0.760383259971732   0.254505570849432   0.502080425535741 1
ion Ir   0.498033314929151   0.497165037156230   0.003465830892328 1
ion Ir   0.497271613652836   0.754199622693528   0.253943086029062 1
ion Ir   0.748852439878040   0.510258705510399   0.236115950454278 1
ion Ir   0.754155519626455   0.757746293523119  -0.006366862958319 1
ion Ir   0.501760312886531   0.491452329497350   0.483890390824374 1
ion Ir   0.507805750453252   0.737961541829996   0.757424142363141 1
ion Ir   0.753820432114974   0.479319132162381   0.768536786250135 1
ion Ir   0.748372912795377   0.734902701988249   0.500299304309160 1
ion O   0.122345565608259   0.122927155729912   0.135159446666206 1

# Forces in Lattice coordinates:
force Ir  -2.664028284647147  -2.662907027524926  -2.432141779981767 0
force Ir  -1.267965464694356   0.504854565740538  -0.376068309849303 1
force Ir  -1.038116977998211  -2.203165363929636  -0.603648834095816 1
force Ir  -0.200389626841657   2.121675104005674  -1.456482434533257 1
force Ir   0.012425956906968   0.457454093235519  -0.383292393061249 1
force Ir   0.616152217806486  -0.444869554186920  -0.392664729851341 1
force Ir   0.361840351360361   0.388727630740423  -0.212034894828233 1
force Ir  -0.389553856328325   0.378220108110211   0.985456957065594 1
force Ir   0.427034342386424   0.116595145045062  -0.427790486787641 1
force Ir   0.029779240584461   0.214517853350531  -0.904623963606942 1
force Ir   0.077284986716869  -0.492993302242293   0.016212482478733 1
force Ir  -0.709742926371069  -0.559339494620821   1.110840475977693 1
force Ir   0.443383712560238   0.281171199784134   0.924300603450742 1
force Ir   0.296742152554541  -0.294725354942986  -0.565721559127450 1
force Ir  -0.338315612508922  -0.870256367384123   0.484500838706216 1
force Ir  -0.166055006000092  -0.283780514171582   0.478597765226335 1
force Ir  -0.109604743675867  -0.956330350090496  -0.707242402332004 1
force Ir   0.989322787616769   1.489730204615007   0.485218030156345 1
force Ir   1.024810355869022   0.272518307592254   0.245416007618146 1
force Ir   0.450927522787658   0.261682171705267   0.139954618432995 1
force Ir   1.320218136423774  -0.028034042360123   1.232425316429506 1
force Ir   0.012552721840658  -0.005899915703357  -0.656940151257725 1
force Ir   0.077060349397119   0.220078444300696   0.466227159592471 1
force Ir  -0.713870812939569  -0.290457369764798   0.302112584576023 1
force Ir   0.108808730595858   0.205394615294084  -0.047845058870081 1
force Ir   0.284436320314990  -0.432014356963507  -0.270950205425440 1
force Ir  -0.008337220567043  -0.337002545307291   0.586834008114598 1
force Ir  -0.101836121103527  -0.357671578728265   0.563828627592506 1
force Ir   0.231005612155735   0.248318778321130   0.674633079485179 1
force Ir   0.255744549558470   0.418153910666410  -0.596935373024857 1
force Ir  -0.145619685300078   1.016938579346327  -0.585608333514412 1
force Ir  -0.112068057304417   0.455705477186763   0.347388006847942 1
force O   0.943965194040339   1.166829432858124   1.573387205363540 1

# Energy components:
   Eewald =    -2389.6300275627991141
       EH =      255.3628456577314410
     Eloc =     -764.0168527019151270
      Enl =       26.4301043512672464
      Exc =     -811.3889627677779117
 Exc_core =      457.0357126120975408
       KE =      761.6536583364057833
-------------------------------------
     Etot =    -2464.5535220749893597
       TS =        0.2322663848705046
-------------------------------------
        F =    -2464.7857884598597593

IonicMinimize: Iter:   1  F: -2464.785788459859759  |grad|_K:  4.884e-02  alpha:  3.723e-01  linmin: -8.144e-01  t[s]:   3633.37

#--- Lowdin population analysis ---
# oxidation-state Ir +0.118 +0.094 +0.120 +0.083 -0.007 -0.020 -0.012 -0.009 -0.018 -0.015 -0.016 -0.007 +0.018 +0.006 +0.003 +0.028 +0.024 +0.022 -0.011 -0.006 +0.022 +0.001 -0.000 +0.005 +0.014 +0.024 +0.013 +0.014 +0.004 +0.012 +0.019 +0.008
# oxidation-state O +0.029


-------- Electronic minimization -----------
Will mix electronic density at each iteration.
	FillingsUpdate:  mu: +1.081957009  nElectrons: 486.000000
	FillingsUpdate:  mu: +1.084504410  nElectrons: 486.000000
SCF: Cycle:  0   F: -2442.774327685927346   dF: +2.037e+01   |Residual|: 1.570e+00   |deigs|: 8.042e-03  t[s]:   3807.35
	FillingsUpdate:  mu: +1.093564246  nElectrons: 486.000000
SCF: Cycle:  1   F: -2443.965944079511246   dF: -1.192e+00   |Residual|: 1.997e+00   |deigs|: 4.281e-02  t[s]:   3940.09
	FillingsUpdate:  mu: +1.083661790  nElectrons: 486.000000
SCF: Cycle:  2   F: -2463.867465308410829   dF: -1.990e+01   |Residual|: 5.655e-01   |deigs|: 4.524e-02  t[s]:   4076.17
	FillingsUpdate:  mu: +1.082385547  nElectrons: 486.000000
SCF: Cycle:  3   F: -2464.511355754395936   dF: -6.439e-01   |Residual|: 3.257e-01   |deigs|: 6.503e-03  t[s]:   4209.54
	FillingsUpdate:  mu: +1.081697287  nElectrons: 486.000000
SCF: Cycle:  4   F: -2464.819235739176747   dF: -3.079e-01   |Residual|: 1.331e-01   |deigs|: 3.344e-03  t[s]:   4340.59
	FillingsUpdate:  mu: +1.081706279  nElectrons: 486.000000
SCF: Cycle:  5   F: -2464.872943055644555   dF: -5.371e-02   |Residual|: 6.168e-02   |deigs|: 9.629e-04  t[s]:   4474.00
	FillingsUpdate:  mu: +1.081773469  nElectrons: 486.000000
SCF: Cycle:  6   F: -2464.881486668489288   dF: -8.544e-03   |Residual|: 3.874e-02   |deigs|: 6.507e-04  t[s]:   4588.37
	FillingsUpdate:  mu: +1.081755383  nElectrons: 486.000000
SCF: Cycle:  7   F: -2464.887614331641998   dF: -6.128e-03   |Residual|: 1.960e-02   |deigs|: 1.954e-04  t[s]:   4662.99
	FillingsUpdate:  mu: +1.081731315  nElectrons: 486.000000
SCF: Cycle:  8   F: -2464.889221993419142   dF: -1.608e-03   |Residual|: 4.064e-03   |deigs|: 1.959e-04  t[s]:   4741.91
	FillingsUpdate:  mu: +1.081724602  nElectrons: 486.000000
SCF: Cycle:  9   F: -2464.889228188787001   dF: -6.195e-06   |Residual|: 2.940e-03   |deigs|: 5.157e-05  t[s]:   4818.22
	FillingsUpdate:  mu: +1.081728794  nElectrons: 486.000000
SCF: Cycle: 10   F: -2464.889269682730628   dF: -4.149e-05   |Residual|: 8.797e-04   |deigs|: 2.578e-05  t[s]:   4894.15
	FillingsUpdate:  mu: +1.081731053  nElectrons: 486.000000
SCF: Cycle: 11   F: -2464.889270376595960   dF: -6.939e-07   |Residual|: 6.414e-04   |deigs|: 1.274e-05  t[s]:   4964.80
	FillingsUpdate:  mu: +1.081730550  nElectrons: 486.000000
SCF: Cycle: 12   F: -2464.889272052396791   dF: -1.676e-06   |Residual|: 2.097e-04   |deigs|: 7.041e-06  t[s]:   5038.60
	FillingsUpdate:  mu: +1.081730377  nElectrons: 486.000000
SCF: Cycle: 13   F: -2464.889272204314238   dF: -1.519e-07   |Residual|: 7.322e-05   |deigs|: 2.337e-06  t[s]:   5116.94
	FillingsUpdate:  mu: +1.081730369  nElectrons: 486.000000
SCF: Cycle: 14   F: -2464.889272214554239   dF: -1.024e-08   |Residual|: 4.709e-05   |deigs|: 7.927e-07  t[s]:   5189.66
	FillingsUpdate:  mu: +1.081730367  nElectrons: 486.000000
SCF: Cycle: 15   F: -2464.889272220223575   dF: -5.669e-09   |Residual|: 2.106e-05   |deigs|: 6.076e-07  t[s]:   5263.14
	FillingsUpdate:  mu: +1.081730347  nElectrons: 486.000000
SCF: Cycle: 16   F: -2464.889272221108058   dF: -8.845e-10   |Residual|: 1.250e-05   |deigs|: 4.749e-07  t[s]:   5334.25
SCF: Converged (|Delta E|<1.000000e-08 for 2 iters).

Setting wave functions to eigenvectors of Hamiltonian

# Ionic positions in lattice coordinates:
ion Ir   0.000000000000000   0.000000000000000   0.000000000000000 0
ion Ir  -0.001955280081687   0.266437381354522   0.287785616602216 1
ion Ir   0.278227341085442   0.003003476001750   0.283115629873690 1
ion Ir   0.280703386101434   0.245817043074779  -0.003772410334761 1
ion Ir   0.000178521806454  -0.008893648381124   0.514986816299898 1
ion Ir   0.002252187395552   0.257950744963772   0.762371060357867 1
ion Ir   0.246711666394477  -0.002908557614550   0.752449898649263 1
ion Ir   0.260907972073271   0.254169355515441   0.502025248691987 1
ion Ir   0.002570002094201   0.497407678756702   0.012973918559280 1
ion Ir   0.003778686079240   0.755164232031917   0.265021603276587 1
ion Ir   0.249750109002780   0.512005648575293   0.246964189494058 1
ion Ir   0.264209776040244   0.761140963863923  -0.011099545582094 1
ion Ir  -0.005038292926333   0.505704719821588   0.500666079764434 1
ion Ir  -0.004645071393903   0.747448313570692   0.764113231029425 1
ion Ir   0.255421046032213   0.513472424921877   0.740560291295684 1
ion Ir   0.255385754875631   0.751836877726322   0.499801374224211 1
ion Ir   0.511505005457014   0.003414725473880   0.006882816751487 1
ion Ir   0.502652049024889   0.237155525112909   0.252028441759677 1
ion Ir   0.742971343655936  -0.008583026682622   0.257456998643196 1
ion Ir   0.751491017514974   0.242154305551784   0.009404242247722 1
ion Ir   0.497070563103614  -0.002133040839566   0.507433387876547 1
ion Ir   0.504874320606586   0.248095718919552   0.755439126661071 1
ion Ir   0.749156036309283  -0.003399648206240   0.741882600052172 1
ion Ir   0.758256917243715   0.253655694307938   0.503124053703733 1
ion Ir   0.498606672816341   0.497963202249278   0.003256497743881 1
ion Ir   0.498248622173836   0.753041839176135   0.253232847806804 1
ion Ir   0.748972023199875   0.509173717769881   0.238011656236292 1
ion Ir   0.754001306399517   0.756581850018041  -0.004612290938138 1
ion Ir   0.502407087790896   0.492342441987634   0.486151922547607 1
ion Ir   0.508210654854032   0.739220860545607   0.755799076822271 1
ion Ir   0.753493556228436   0.482321673825567   0.766742245686064 1
ion Ir   0.748187358651155   0.736376690713099   0.501288127893891 1
ion O   0.124920359751827   0.126075959613052   0.137928615276756 1

# Forces in Lattice coordinates:
force Ir  -2.173346059108372  -2.233091943281215  -1.991339043236300 0
force Ir  -1.008378173093751   0.402318837690630  -0.385001812973912 1
force Ir  -0.716073321216556  -1.573454662156368  -0.503726365226808 1
force Ir  -0.216360314401484   1.636098107240994  -1.072182204724458 1
force Ir   0.034296555615323   0.389613769969834  -0.346222049413309 1
force Ir   0.418366206009524  -0.354504209057502  -0.342081862772612 1
force Ir   0.312105399563057   0.259531493427481  -0.095646690452430 1
force Ir  -0.381978511533615   0.175535123335725   0.615767693477602 1
force Ir   0.319700493252792   0.102160818155284  -0.364910198534559 1
force Ir   0.044190796772809   0.118686724775318  -0.722444506962617 1
force Ir   0.080624124268937  -0.467430225800063   0.081096206118540 1
force Ir  -0.594263208537536  -0.441799591123013   0.861429177498957 1
force Ir   0.370783987211235   0.243154586929718   0.743994249986392 1
force Ir   0.265448805104261  -0.165295009224893  -0.448227364508802 1
force Ir  -0.226889514050641  -0.691880084226815   0.475291788668796 1
force Ir  -0.135896836390270  -0.295637660362835   0.442828811249247 1
force Ir  -0.171828289600242  -0.615497622951081  -0.492003271371158 1
force Ir   0.581032574572122   1.024704619693685   0.291123154491484 1
force Ir   0.785031386237696   0.266964139467863   0.157335826468031 1
force Ir   0.330661736510198   0.234082317837437   0.059141828950605 1
force Ir   1.003123531075828   0.006615791880039   0.845582263097234 1
force Ir   0.075026678540564   0.009321760166761  -0.489442273835393 1
force Ir   0.139904209975209   0.187682109857736   0.465532021810229 1
force Ir  -0.597221347783945  -0.228408706876442   0.317675191264889 1
force Ir   0.184917560390107   0.219480955691605  -0.039128725307960 1
force Ir   0.303924575594146  -0.378972382541399  -0.190130359674921 1
force Ir   0.024079626643068  -0.279678118339528   0.512686154509232 1
force Ir  -0.040339883987385  -0.306682215965308   0.461435854214959 1
force Ir   0.154319059003727   0.233969006809575   0.614293842083076 1
force Ir   0.093194439168380   0.354276997056528  -0.408428805554817 1
force Ir  -0.080358432174477   0.805586439897738  -0.480356423992192 1
force Ir  -0.023887532414403   0.415647598147311   0.257624283113068 1
force O   0.846337691828623   0.947547740008655   1.164636411337611 1

# Energy components:
   Eewald =    -2392.8601098611711677
       EH =      252.4044602113408757
     Eloc =     -757.5887012979188739
      Enl =       26.3278829881624787
      Exc =     -811.2797966855323466
 Exc_core =      457.0356431333771070
       KE =      761.3020834950564222
-------------------------------------
     Etot =    -2464.6585380166852701
       TS =        0.2307342044229506
-------------------------------------
        F =    -2464.8892722211080581

IonicMinimize: Iter:   2  F: -2464.889272221108058  |grad|_K:  3.738e-02  alpha:  2.760e-01  linmin: -7.954e-01  t[s]:   5351.33

#--- Lowdin population analysis ---
# oxidation-state Ir +0.109 +0.099 +0.114 +0.084 -0.007 -0.016 -0.009 -0.012 -0.014 -0.015 -0.014 -0.008 +0.019 +0.007 +0.006 +0.026 +0.016 +0.010 -0.010 -0.006 +0.022 +0.006 +0.004 +0.008 +0.018 +0.024 +0.014 +0.015 +0.007 +0.011 +0.016 +0.010
# oxidation-state O +0.015


-------- Electronic minimization -----------
Will mix electronic density at each iteration.
	FillingsUpdate:  mu: +1.081730347  nElectrons: 486.000000
	FillingsUpdate:  mu: +1.083244674  nElectrons: 486.000000
SCF: Cycle:  0   F: -2447.194125320874718   dF: +1.595e+01   |Residual|: 1.457e+00   |deigs|: 6.962e-03  t[s]:   5526.19
	FillingsUpdate:  mu: +1.090135453  nElectrons: 486.000000
SCF: Cycle:  1   F: -2446.094653634979295   dF: +1.099e+00   |Residual|: 1.877e+00   |deigs|: 3.264e-02  t[s]:   5649.98
	FillingsUpdate:  mu: +1.083145818  nElectrons: 486.000000
SCF: Cycle:  2   F: -2464.225269778873098   dF: -1.813e+01   |Residual|: 4.776e-01   |deigs|: 4.026e-02  t[s]:   5784.02
	FillingsUpdate:  mu: +1.082062483  nElectrons: 486.000000
SCF: Cycle:  3   F: -2464.539488255274136   dF: -3.142e-01   |Residual|: 3.478e-01   |deigs|: 5.027e-03  t[s]:   5917.05
	FillingsUpdate:  mu: +1.081553938  nElectrons: 486.000000
SCF: Cycle:  4   F: -2464.931182420391451   dF: -3.917e-01   |Residual|: 1.071e-01   |deigs|: 3.985e-03  t[s]:   6044.07
	FillingsUpdate:  mu: +1.081551317  nElectrons: 486.000000
SCF: Cycle:  5   F: -2464.957824836788859   dF: -2.664e-02   |Residual|: 5.550e-02   |deigs|: 7.955e-04  t[s]:   6171.22
	FillingsUpdate:  mu: +1.081590998  nElectrons: 486.000000
SCF: Cycle:  6   F: -2464.966964071674283   dF: -9.139e-03   |Residual|: 2.917e-02   |deigs|: 4.470e-04  t[s]:   6273.85
	FillingsUpdate:  mu: +1.081576926  nElectrons: 486.000000
SCF: Cycle:  7   F: -2464.970496359128902   dF: -3.532e-03   |Residual|: 1.380e-02   |deigs|: 1.385e-04  t[s]:   6350.80
	FillingsUpdate:  mu: +1.081558421  nElectrons: 486.000000
SCF: Cycle:  8   F: -2464.971212205582560   dF: -7.158e-04   |Residual|: 3.251e-03   |deigs|: 1.369e-04  t[s]:   6428.88
	FillingsUpdate:  mu: +1.081556624  nElectrons: 486.000000
SCF: Cycle:  9   F: -2464.971222452068560   dF: -1.025e-05   |Residual|: 2.202e-03   |deigs|: 3.315e-05  t[s]:   6507.60
	FillingsUpdate:  mu: +1.081560164  nElectrons: 486.000000
SCF: Cycle: 10   F: -2464.971245320075468   dF: -2.287e-05   |Residual|: 7.058e-04   |deigs|: 1.973e-05  t[s]:   6585.07
	FillingsUpdate:  mu: +1.081561737  nElectrons: 486.000000
SCF: Cycle: 11   F: -2464.971245712580185   dF: -3.925e-07   |Residual|: 5.508e-04   |deigs|: 1.001e-05  t[s]:   6661.17
	FillingsUpdate:  mu: +1.081561254  nElectrons: 486.000000
SCF: Cycle: 12   F: -2464.971247065132957   dF: -1.353e-06   |Residual|: 1.477e-04   |deigs|: 5.824e-06  t[s]:   6738.38
	FillingsUpdate:  mu: +1.081561090  nElectrons: 486.000000
SCF: Cycle: 13   F: -2464.971247123076864   dF: -5.794e-08   |Residual|: 6.449e-05   |deigs|: 1.771e-06  t[s]:   6813.68
	FillingsUpdate:  mu: +1.081561093  nElectrons: 486.000000
SCF: Cycle: 14   F: -2464.971247131225027   dF: -8.148e-09   |Residual|: 3.862e-05   |deigs|: 6.832e-07  t[s]:   6889.22
	FillingsUpdate:  mu: +1.081561087  nElectrons: 486.000000
SCF: Cycle: 15   F: -2464.971247134656096   dF: -3.431e-09   |Residual|: 1.698e-05   |deigs|: 5.180e-07  t[s]:   6966.99
SCF: Converged (|Delta E|<1.000000e-08 for 2 iters).

Setting wave functions to eigenvectors of Hamiltonian

# Ionic positions in lattice coordinates:
ion Ir   0.000000000000000   0.000000000000000   0.000000000000000 0
ion Ir  -0.006526102410334   0.268561612604116   0.285959807714137 1
ion Ir   0.277584813996485  -0.002055416029040   0.281849495218377 1
ion Ir   0.279138280838716   0.251892203676174  -0.007302069013891 1
ion Ir   0.000484723429107  -0.007100083049948   0.513284326923763 1
ion Ir   0.003397412829830   0.256501253845460   0.760733289031902 1
ion Ir   0.248172533613628  -0.002251830108771   0.752656339418058 1
ion Ir   0.258842516176420   0.253667583104370   0.503059884468179 1
ion Ir   0.003726223694411   0.497901521171660   0.011265771451738 1
ion Ir   0.004096346901256   0.755227804549361   0.262012407323385 1
ion Ir   0.250214123570275   0.509460838525697   0.247837892589746 1
ion Ir   0.261528375368877   0.759367568635178  -0.007807670725923 1
ion Ir  -0.003372234780399   0.506804439800273   0.503738707020688 1
ion Ir  -0.003320387127009   0.747319893272799   0.762288807925564 1
ion Ir   0.254840265476667   0.510647666647448   0.743231648729106 1
ion Ir   0.254842452562344   0.750147987210680   0.502095472623821 1
ion Ir   0.510080651972633   0.002185332156647   0.005562594540241 1
ion Ir   0.502902390415375   0.239472114091872   0.252488708734352 1
ion Ir   0.745875166213207  -0.007084324623854   0.257807088267114 1
ion Ir   0.752662209705031   0.243304688970203   0.009192642032462 1
ion Ir   0.500194400387552  -0.001750484023827   0.509105922082649 1
ion Ir   0.505739968449596   0.248248425615267   0.753665961749326 1
ion Ir   0.750420627447548  -0.002503580503314   0.744577065594304 1
ion Ir   0.755639099336017   0.252752701988961   0.505006571530677 1
ion Ir   0.500154773379292   0.499341423097590   0.003043659436759 1
ion Ir   0.500067324361807   0.751365573737515   0.252686384452075 1
ion Ir   0.749364845353700   0.507904579213187   0.240492672587492 1
ion Ir   0.754197844612649   0.755123565602219  -0.002598693214873 1
ion Ir   0.502821026503998   0.493630542762059   0.489320158322025 1
ion Ir   0.507645170338097   0.740810126814479   0.754661491092015 1
ion Ir   0.753464809904984   0.485563220971723   0.764658924935517 1
ion Ir   0.748605473075187   0.738486561506467   0.502187304146536 1
ion O   0.128804217558643   0.129829276546872   0.140783374866534 1

# Forces in Lattice coordinates:
force Ir  -1.690447893578590  -1.783177699213641  -1.529533607473832 0
force Ir  -0.791481353496725   0.325391752666881  -0.297786036635728 1
force Ir  -0.426440919625414  -1.241457903262714  -0.303075193522252 1
force Ir  -0.162833512723942   1.250080218860211  -0.824143429140209 1
force Ir   0.057852307937392   0.312938476264896  -0.296045405400655 1
force Ir   0.265356023606384  -0.275580965528147  -0.277808926072415 1
force Ir   0.258146419224029   0.175538574735801  -0.042803520692791 1
force Ir  -0.316388464246875   0.080282394105847   0.396822675328694 1
force Ir   0.220166248993897   0.083986981150797  -0.279218979563274 1
force Ir   0.055827639859734   0.046335809749844  -0.526162047693020 1
force Ir   0.083997288053581  -0.381167172157200   0.112244932674783 1
force Ir  -0.452640890247704  -0.336513720055409   0.671949245224793 1
force Ir   0.290433636159798   0.144354091206863   0.523862701350457 1
force Ir   0.225415162522865  -0.058878764871831  -0.332005040488635 1
force Ir  -0.141540546752222  -0.529582271214947   0.405968034471135 1
force Ir  -0.094853040985449  -0.220421523734254   0.328114005162443 1
force Ir  -0.166272613823980  -0.412894473858245  -0.333166944417074 1
force Ir   0.383131338587706   0.759035336973841   0.190026220572724 1
force Ir   0.565313654477281   0.237850336323729   0.082715163910712 1
force Ir   0.218686598481259   0.203402998651468   0.016063792346867 1
force Ir   0.705717053428997   0.004235878672548   0.536171034607204 1
force Ir   0.061385911447839   0.018192910443067  -0.329857784953983 1
force Ir   0.147534772525482   0.134603787224696   0.412046452334180 1
force Ir  -0.433106081294146  -0.170035173460358   0.239360822140359 1
force Ir   0.208993377671292   0.201235076713844  -0.008657365281286 1
force Ir   0.253814675954060  -0.289968846731300  -0.112072666535037 1
force Ir   0.023266652088285  -0.210570065890686   0.436077395930680 1
force Ir  -0.019116475112816  -0.224039144794439   0.353238214338249 1
force Ir   0.090148158991682   0.181761027514690   0.508581518423728 1
force Ir   0.028412293512349   0.305717353172073  -0.254286980730527 1
force Ir  -0.043689806760003   0.634409093185510  -0.376693784445923 1
force Ir   0.026519439147633   0.363625290909569   0.186715122246720 1
force O   0.569505806169547   0.672463508029201   0.720511002281048 1

# Energy components:
   Eewald =    -2395.1563007257555000
       EH =      250.2989497609486023
     Eloc =     -752.9894392870630782
      Enl =       26.2448639138909456
      Exc =     -811.1925335767820116
 Exc_core =      457.0355846754906111
       KE =      761.0169486923167597
-------------------------------------
     Etot =    -2464.7419265469529819
       TS =        0.2293205877030082
-------------------------------------
        F =    -2464.9712471346560960

IonicMinimize: Iter:   3  F: -2464.971247134656096  |grad|_K:  2.773e-02  alpha:  2.583e-01  linmin: -7.673e-01  t[s]:   6985.06

#--- Lowdin population analysis ---
# oxidation-state Ir +0.098 +0.102 +0.112 +0.088 -0.007 -0.012 -0.007 -0.013 -0.011 -0.014 -0.013 -0.009 +0.019 +0.009 +0.009 +0.023 +0.009 +0.003 -0.009 -0.005 +0.022 +0.009 +0.007 +0.010 +0.020 +0.021 +0.015 +0.015 +0.008 +0.011 +0.015 +0.011
# oxidation-state O +0.001


-------- Electronic minimization -----------
Will mix electronic density at each iteration.
	FillingsUpdate:  mu: +1.081561087  nElectrons: 486.000000
	FillingsUpdate:  mu: +1.081749415  nElectrons: 486.000000
SCF: Cycle:  0   F: -2452.388906764267631   dF: +1.091e+01   |Residual|: 1.303e+00   |deigs|: 5.996e-03  t[s]:   7169.04
	FillingsUpdate:  mu: +1.087228658  nElectrons: 486.000000
SCF: Cycle:  1   F: -2450.513133243818174   dF: +1.876e+00   |Residual|: 1.658e+00   |deigs|: 2.814e-02  t[s]:   7304.84
	FillingsUpdate:  mu: +1.082561308  nElectrons: 486.000000
SCF: Cycle:  2   F: -2464.543218183630415   dF: -1.403e+01   |Residual|: 3.861e-01   |deigs|: 3.422e-02  t[s]:   7437.64
	FillingsUpdate:  mu: +1.081795073  nElectrons: 486.000000
SCF: Cycle:  3   F: -2464.549932211711166   dF: -6.714e-03   |Residual|: 3.515e-01   |deigs|: 3.443e-03  t[s]:   7572.75
	FillingsUpdate:  mu: +1.081493267  nElectrons: 486.000000
SCF: Cycle:  4   F: -2465.006249280248085   dF: -4.563e-01   |Residual|: 8.036e-02   |deigs|: 4.367e-03  t[s]:   7703.83
	FillingsUpdate:  mu: +1.081500711  nElectrons: 486.000000
SCF: Cycle:  5   F: -2465.018301978657291   dF: -1.205e-02   |Residual|: 4.618e-02   |deigs|: 5.988e-04  t[s]:   7826.38
	FillingsUpdate:  mu: +1.081519000  nElectrons: 486.000000
SCF: Cycle:  6   F: -2465.026010945864527   dF: -7.709e-03   |Residual|: 2.013e-02   |deigs|: 3.717e-04  t[s]:   7904.57
	FillingsUpdate:  mu: +1.081507532  nElectrons: 486.000000
SCF: Cycle:  7   F: -2465.027602346056483   dF: -1.591e-03   |Residual|: 9.276e-03   |deigs|: 9.873e-05  t[s]:   7981.04
	FillingsUpdate:  mu: +1.081494293  nElectrons: 486.000000
SCF: Cycle:  8   F: -2465.027849617348238   dF: -2.473e-04   |Residual|: 2.417e-03   |deigs|: 7.459e-05  t[s]:   8061.22
	FillingsUpdate:  mu: +1.081495530  nElectrons: 486.000000
SCF: Cycle:  9   F: -2465.027861498305811   dF: -1.188e-05   |Residual|: 1.378e-03   |deigs|: 2.535e-05  t[s]:   8140.16
	FillingsUpdate:  mu: +1.081498871  nElectrons: 486.000000
SCF: Cycle: 10   F: -2465.027868772254806   dF: -7.274e-06   |Residual|: 5.254e-04   |deigs|: 1.147e-05  t[s]:   8217.76
	FillingsUpdate:  mu: +1.081499165  nElectrons: 486.000000
SCF: Cycle: 11   F: -2465.027869560031377   dF: -7.878e-07   |Residual|: 3.440e-04   |deigs|: 6.807e-06  t[s]:   8296.41
	FillingsUpdate:  mu: +1.081499028  nElectrons: 486.000000
SCF: Cycle: 12   F: -2465.027870045151303   dF: -4.851e-07   |Residual|: 8.611e-05   |deigs|: 3.225e-06  t[s]:   8373.30
	FillingsUpdate:  mu: +1.081498916  nElectrons: 486.000000
SCF: Cycle: 13   F: -2465.027870054489995   dF: -9.339e-09   |Residual|: 5.635e-05   |deigs|: 1.024e-06  t[s]:   8450.53
	FillingsUpdate:  mu: +1.081498913  nElectrons: 486.000000
SCF: Cycle: 14   F: -2465.027870058843291   dF: -4.353e-09   |Residual|: 3.463e-05   |deigs|: 7.555e-07  t[s]:   8530.37
SCF: Converged (|Delta E|<1.000000e-08 for 2 iters).

Setting wave functions to eigenvectors of Hamiltonian

# Ionic positions in lattice coordinates:
ion Ir   0.000000000000000   0.000000000000000   0.000000000000000 0
ion Ir  -0.010973346248341   0.270601071480620   0.284091428471078 1
ion Ir   0.277652381850290  -0.007748784275894   0.281264039696020 1
ion Ir   0.277887029136262   0.257935415112231  -0.011007414601483 1
ion Ir   0.001171581465603  -0.005216242806340   0.511280200403056 1
ion Ir   0.003902768834563   0.255042531149714   0.758994232769447 1
ion Ir   0.249800327107254  -0.001828145561040   0.753116695060414 1
ion Ir   0.256624503295711   0.252810112448787   0.503454698664501 1
ion Ir   0.004549081555324   0.498437838514923   0.009672819661833 1
ion Ir   0.004672328536026   0.754796380486435   0.259484670524861 1
ion Ir   0.250933622079042   0.506848105778854   0.249224873358339 1
ion Ir   0.259030312363330   0.757665781015102  -0.004389007886742 1
ion Ir  -0.001710690917516   0.507298658147534   0.506102776386026 1
ion Ir  -0.001801123894073   0.747971121164725   0.760673392330436 1
ion Ir   0.254623351076525   0.507916544495584   0.746201491616102 1
ion Ir   0.254424878641981   0.748685668542801   0.504057050238291 1
ion Ir   0.508423513547189   0.001434843316169   0.004667361737584 1
ion Ir   0.502958926176504   0.241982241495973   0.252660164770511 1
ion Ir   0.748296967068584  -0.005286483330543   0.257708422185023 1
ion Ir   0.753365110087200   0.244698192324321   0.008715570124174 1
ion Ir   0.502784178255534  -0.001510867134175   0.509860058692918 1
ion Ir   0.506486250376730   0.248515845968457   0.752506714952261 1
ion Ir   0.752001032926156  -0.001796777515133   0.747728294377117 1
ion Ir   0.753455164458019   0.251934019914527   0.506646842807725 1
ion Ir   0.502362688920950   0.500994377055050   0.003147271696381 1
ion Ir   0.501984127890725   0.749733330210347   0.252542641122284 1
ion Ir   0.749725685555037   0.506763807028932   0.243377209260580 1
ion Ir   0.754449109271660   0.753913183916181  -0.000688820396079 1
ion Ir   0.502893708507291   0.494821392858812   0.492729160938770 1
ion Ir   0.506767732987159   0.742783106537106   0.754214820059127 1
ion Ir   0.753599511064281   0.488952964499443   0.762554304130930 1
ion Ir   0.749487510694052   0.741039848201439   0.502954111635049 1
ion O   0.131507117124050   0.132857265842239   0.142051154217677 1

# Forces in Lattice coordinates:
force Ir  -1.403044409462648  -1.516723006725256  -1.268018384387799 0
force Ir  -0.486405013303888   0.174898387098314  -0.258602080754607 1
force Ir  -0.369869483539288  -0.747638873773639  -0.319870029734387 1
force Ir  -0.157648682034674   0.838406937150989  -0.489701405378939 1
force Ir   0.058471715922942   0.237241392508508  -0.230711497499653 1
force Ir   0.162076393606155  -0.200398242428255  -0.203545248781199 1
force Ir   0.197771015690982   0.124535771542832  -0.016251620407360 1
force Ir  -0.226745449036042   0.025541102569362   0.251141862530166 1
force Ir   0.136288869635464   0.065272652793749  -0.197193640331383 1
force Ir   0.038031228476795   0.008031382927819  -0.357148261177240 1
force Ir   0.069388611104538  -0.289997440248090   0.101271417181439 1
force Ir  -0.314694825446666  -0.248061026356464   0.499729448314636 1
force Ir   0.216024564124974   0.092561269596525   0.367180531876312 1
force Ir   0.190692455137084  -0.009656499630172  -0.233584227689730 1
force Ir  -0.091975768526781  -0.338720954293888   0.274447411497932 1
force Ir  -0.063352806757033  -0.185071995892278   0.269949152195642 1
force Ir  -0.141942477823903  -0.265576359887058  -0.203716351451937 1
force Ir   0.227006442483571   0.523838312178793   0.125461914194301 1
force Ir   0.394194421545711   0.189918707556106   0.035210161919685 1
force Ir   0.138648768922771   0.170196776578665  -0.011061570601884 1
force Ir   0.520771946044282   0.006843943712005   0.371400709678644 1
force Ir   0.059014435875522   0.015859923737458  -0.228634057874454 1
force Ir   0.111090065956114   0.100640030711189   0.307246716467583 1
force Ir  -0.308024264606840  -0.126837943586823   0.175540841424968 1
force Ir   0.190492971264736   0.170549934179880   0.009446710196618 1
force Ir   0.222471189874788  -0.222984290472416  -0.056616461834356 1
force Ir   0.000090067814720  -0.119144718128727   0.348865465060784 1
force Ir  -0.003770606578687  -0.148705484451870   0.264536194983984 1
force Ir   0.059667002875268   0.141183672267944   0.403456452650732 1
force Ir   0.009757740170794   0.249366496846669  -0.150536067509744 1
force Ir  -0.023796174146138   0.486085840577447  -0.287247989341183 1
force Ir   0.048516529273309   0.292161738720165   0.140170318198836 1
force O   0.538191437087961   0.505089073334898   0.566632792347934 1

# Energy components:
   Eewald =    -2396.6286594885423256
       EH =      248.9582453655169445
     Eloc =     -750.0349446337128256
      Enl =       26.1905214965927478
      Exc =     -811.1321343169715874
 Exc_core =      457.0355537857982995
       KE =      760.8120130631751863
-------------------------------------
     Etot =    -2464.7994047281435996
       TS =        0.2284653306997428
-------------------------------------
        F =    -2465.0278700588432912

IonicMinimize: Iter:   4  F: -2465.027870058843291  |grad|_K:  1.969e-02  alpha:  2.744e-01  linmin: -6.926e-01  t[s]:   8547.50

#--- Lowdin population analysis ---
# oxidation-state Ir +0.094 +0.105 +0.110 +0.093 -0.008 -0.009 -0.006 -0.013 -0.009 -0.013 -0.011 -0.008 +0.019 +0.010 +0.011 +0.020 +0.003 -0.002 -0.009 -0.005 +0.023 +0.012 +0.009 +0.011 +0.021 +0.020 +0.015 +0.015 +0.008 +0.011 +0.014 +0.010
# oxidation-state O -0.015


-------- Electronic minimization -----------
Will mix electronic density at each iteration.
	FillingsUpdate:  mu: +1.081498913  nElectrons: 486.000000
	FillingsUpdate:  mu: +1.081184740  nElectrons: 486.000000
SCF: Cycle:  0   F: -2454.029183440731231   dF: +8.807e+00   |Residual|: 1.321e+00   |deigs|: 6.894e-03  t[s]:   8733.20
	FillingsUpdate:  mu: +1.085991010  nElectrons: 486.000000
SCF: Cycle:  1   F: -2451.844243117364840   dF: +2.185e+00   |Residual|: 1.580e+00   |deigs|: 2.318e-02  t[s]:   8871.80
	FillingsUpdate:  mu: +1.082181840  nElectrons: 486.000000
SCF: Cycle:  2   F: -2464.663787255422449   dF: -1.282e+01   |Residual|: 3.524e-01   |deigs|: 3.172e-02  t[s]:   9007.33
	FillingsUpdate:  mu: +1.081665754  nElectrons: 486.000000
SCF: Cycle:  3   F: -2464.498867014663119   dF: +1.649e-01   |Residual|: 3.866e-01   |deigs|: 3.996e-03  t[s]:   9137.60
	FillingsUpdate:  mu: +1.081486219  nElectrons: 486.000000
SCF: Cycle:  4   F: -2465.055346865642150   dF: -5.565e-01   |Residual|: 6.754e-02   |deigs|: 5.311e-03  t[s]:   9272.45
	FillingsUpdate:  mu: +1.081446900  nElectrons: 486.000000
SCF: Cycle:  5   F: -2465.062403338338299   dF: -7.056e-03   |Residual|: 4.193e-02   |deigs|: 4.614e-04  t[s]:   9394.63
	FillingsUpdate:  mu: +1.081415370  nElectrons: 486.000000
SCF: Cycle:  6   F: -2465.067905290630279   dF: -5.502e-03   |Residual|: 1.841e-02   |deigs|: 2.918e-04  t[s]:   9473.07
	FillingsUpdate:  mu: +1.081407838  nElectrons: 486.000000
SCF: Cycle:  7   F: -2465.069267189855964   dF: -1.362e-03   |Residual|: 7.815e-03   |deigs|: 1.016e-04  t[s]:   9552.07
	FillingsUpdate:  mu: +1.081403163  nElectrons: 486.000000
SCF: Cycle:  8   F: -2465.069434945531157   dF: -1.678e-04   |Residual|: 2.702e-03   |deigs|: 5.981e-05  t[s]:   9626.41
	FillingsUpdate:  mu: +1.081405174  nElectrons: 486.000000
SCF: Cycle:  9   F: -2465.069448571037810   dF: -1.363e-05   |Residual|: 1.695e-03   |deigs|: 2.177e-05  t[s]:   9698.87
	FillingsUpdate:  mu: +1.081408094  nElectrons: 486.000000
SCF: Cycle: 10   F: -2465.069461510619931   dF: -1.294e-05   |Residual|: 4.651e-04   |deigs|: 1.406e-05  t[s]:   9775.89
	FillingsUpdate:  mu: +1.081408911  nElectrons: 486.000000
SCF: Cycle: 11   F: -2465.069461893063362   dF: -3.824e-07   |Residual|: 3.031e-04   |deigs|: 5.779e-06  t[s]:   9850.18
	FillingsUpdate:  mu: +1.081408691  nElectrons: 486.000000
SCF: Cycle: 12   F: -2465.069462310968447   dF: -4.179e-07   |Residual|: 9.029e-05   |deigs|: 2.972e-06  t[s]:   9923.02
	FillingsUpdate:  mu: +1.081408512  nElectrons: 486.000000
SCF: Cycle: 13   F: -2465.069462323342577   dF: -1.237e-08   |Residual|: 5.146e-05   |deigs|: 1.152e-06  t[s]:   9999.28
	FillingsUpdate:  mu: +1.081408473  nElectrons: 486.000000
SCF: Cycle: 14   F: -2465.069462326001485   dF: -2.659e-09   |Residual|: 3.522e-05   |deigs|: 6.720e-07  t[s]:  10086.32
	FillingsUpdate:  mu: +1.081408450  nElectrons: 486.000000
SCF: Cycle: 15   F: -2465.069462330119222   dF: -4.118e-09   |Residual|: 8.942e-06   |deigs|: 5.761e-07  t[s]:  10166.54
SCF: Converged (|Delta E|<1.000000e-08 for 2 iters).

Setting wave functions to eigenvectors of Hamiltonian

# Ionic positions in lattice coordinates:
ion Ir   0.000000000000000   0.000000000000000   0.000000000000000 0
ion Ir  -0.014633119508129   0.271910505424583   0.281237135360234 1
ion Ir   0.276542046461403  -0.011806801118241   0.278755184904694 1
ion Ir   0.275661286118178   0.263856998614519  -0.013413268561285 1
ion Ir   0.002248598785444  -0.002816875283485   0.508668312504136 1
ion Ir   0.004063525724471   0.253295603773237   0.756934641432861 1
ion Ir   0.251897191625350  -0.001284772786556   0.753824489315503 1
ion Ir   0.254170760427305   0.251338017933768   0.503494923859100 1
ion Ir   0.005124013470263   0.499145042398238   0.007908804722234 1
ion Ir   0.005258888422696   0.753892047135661   0.256923708871241 1
ion Ir   0.251909018590766   0.503589487433130   0.251127466740276 1
ion Ir   0.256354776365650   0.755550927336325  -0.000050019320510 1
ion Ir   0.000347074878227   0.507644328503647   0.508690036841549 1
ion Ir   0.000485059558746   0.749238282308997   0.758873546648080 1
ion Ir   0.254486498968172   0.505544361488165   0.749188504822702 1
ion Ir   0.254039448766343   0.746561629088986   0.506937479976459 1
ion Ir   0.506173533721652   0.000960467556367   0.004224168001904 1
ion Ir   0.502302403829104   0.244611859956514   0.252797093902722 1
ion Ir   0.750940115416331  -0.002899524879646   0.257193278890687 1
ion Ir   0.753890183087355   0.246745842930288   0.007795965701663 1
ion Ir   0.506061189904639  -0.001171465048169   0.510579399199493 1
ion Ir   0.507566622436260   0.248858049075976   0.751238881026333 1
ion Ir   0.753829336775523  -0.000900876982337   0.751475115931885 1
ion Ir   0.751003802663785   0.250881690803209   0.508522461521718 1
ion Ir   0.505561356658483   0.503345235438811   0.003556334917227 1
ion Ir   0.504882674707117   0.747617865740162   0.252795173008526 1
ion Ir   0.749786134832245   0.506068672504851   0.247360060648358 1
ion Ir   0.754882761837450   0.752758594824392   0.001739682991518 1
ion Ir   0.502938055321585   0.496376576862992   0.497336600776574 1
ion Ir   0.505696006848608   0.745615131935847   0.754200201015344 1
ion Ir   0.753850353341621   0.493495959960383   0.759794607248751 1
ion Ir   0.750979882472592   0.744527373011379   0.503998426823535 1
ion O   0.137040401799576   0.136774084418522   0.144471260444138 1

# Forces in Lattice coordinates:
force Ir  -1.012645636366929  -1.131312366319790  -0.902082987698554 0
force Ir  -0.286344261582715   0.116552611743301  -0.098900432780266 1
force Ir  -0.034229019240272  -0.656761769216568   0.015421924648068 1
force Ir   0.046857808095839   0.544568244306951  -0.354951614347962 1
force Ir   0.049456600264759   0.133889164343770  -0.140658105225301 1
force Ir   0.085454432336922  -0.101274136250141  -0.107512096143973 1
force Ir   0.118930531650327   0.089576541712212  -0.007316235520202 1
force Ir  -0.094874932312291   0.022596243986968   0.178776130906896 1
force Ir   0.048274512618172   0.039039438996663  -0.105104148559851 1
force Ir   0.015356240296404  -0.013813787677075  -0.162312780875252 1
force Ir   0.048076363836206  -0.132042065019202   0.079827350342535 1
force Ir  -0.147764207801142  -0.155781346769830   0.294211965348317 1
force Ir   0.115785366704562   0.017551182316285   0.175135544922021 1
force Ir   0.128955328965333   0.023759815921617  -0.117861150549326 1
force Ir  -0.043200083926117  -0.157787243750857   0.131041451307677 1
force Ir  -0.015848975563145  -0.021722901477711   0.084039826174500 1
force Ir  -0.072063805670002  -0.138827146888006  -0.091107180050325 1
force Ir   0.179548842363216   0.336093569787137   0.090247792755548 1
force Ir   0.217692217805554   0.125753076463949   0.003941577545847 1
force Ir   0.061044030224032   0.132267111550270  -0.017549789961230 1
force Ir   0.247418899481714  -0.009438686900427   0.156621052758711 1
force Ir  -0.013510769081919   0.027589329332192  -0.066702940629971 1
force Ir   0.060172194778704   0.057804017607305   0.182696504695668 1
force Ir  -0.128865068349698  -0.055280696795767   0.050069466636825 1
force Ir   0.092346435916622   0.074474248801483   0.003067694926743 1
force Ir   0.081092849769931  -0.063702867344171   0.012302168554876 1
force Ir   0.004649556321801  -0.069259819945998   0.245155246056670 1
force Ir   0.012940556635225  -0.057317729825106   0.153375548911693 1
force Ir   0.038924325270981   0.090175067930025   0.249568610737471 1
force Ir   0.017179014354396   0.166762327052770  -0.051579824603754 1
force Ir  -0.006728460197336   0.308326925359161  -0.171217401247423 1
force Ir   0.059010400606859   0.193051686008319   0.092815436959973 1
force O   0.119536130616715   0.263171383758931   0.197027247753761 1

# Energy components:
   Eewald =    -2397.6536651295955380
       EH =      248.0237859483527529
     Eloc =     -747.9675592114967912
      Enl =       26.1461385607766061
      Exc =     -811.0855014483136074
 Exc_core =      457.0355234952985484
       KE =      760.6596307648641186
-------------------------------------
     Etot =    -2464.8416470201136690
       TS =        0.2278153100056181
-------------------------------------
        F =    -2465.0694623301192223

IonicMinimize: Iter:   5  F: -2465.069462330119222  |grad|_K:  1.130e-02  alpha:  4.052e-01  linmin: -5.582e-01  t[s]:  10183.72

#--- Lowdin population analysis ---
# oxidation-state Ir +0.085 +0.106 +0.109 +0.099 -0.008 -0.006 -0.005 -0.012 -0.008 -0.011 -0.010 -0.008 +0.020 +0.013 +0.013 +0.017 -0.002 -0.007 -0.008 -0.005 +0.021 +0.014 +0.012 +0.013 +0.021 +0.017 +0.016 +0.015 +0.008 +0.011 +0.013 +0.011
# oxidation-state O -0.024


-------- Electronic minimization -----------
Will mix electronic density at each iteration.
	FillingsUpdate:  mu: +1.081408450  nElectrons: 486.000000
	FillingsUpdate:  mu: +1.080133111  nElectrons: 486.000000
SCF: Cycle:  0   F: -2457.348340376398937   dF: +5.976e+00   |Residual|: 1.160e+00   |deigs|: 5.618e-03  t[s]:  10365.81
	FillingsUpdate:  mu: +1.084356123  nElectrons: 486.000000
SCF: Cycle:  1   F: -2456.275171477450840   dF: +1.073e+00   |Residual|: 1.341e+00   |deigs|: 2.451e-02  t[s]:  10496.65
	FillingsUpdate:  mu: +1.081932991  nElectrons: 486.000000
SCF: Cycle:  2   F: -2464.762043598586388   dF: -8.487e+00   |Residual|: 3.040e-01   |deigs|: 2.570e-02  t[s]:  10628.39
	FillingsUpdate:  mu: +1.081493616  nElectrons: 486.000000
SCF: Cycle:  3   F: -2464.717884037464046   dF: +4.416e-02   |Residual|: 3.058e-01   |deigs|: 2.656e-03  t[s]:  10762.68
	FillingsUpdate:  mu: +1.081437011  nElectrons: 486.000000
SCF: Cycle:  4   F: -2465.078081996017318   dF: -3.602e-01   |Residual|: 5.374e-02   |deigs|: 3.905e-03  t[s]:  10895.84
	FillingsUpdate:  mu: +1.081455182  nElectrons: 486.000000
SCF: Cycle:  5   F: -2465.081881939750929   dF: -3.800e-03   |Residual|: 3.381e-02   |deigs|: 6.166e-04  t[s]:  11026.78
	FillingsUpdate:  mu: +1.081444776  nElectrons: 486.000000
SCF: Cycle:  6   F: -2465.085504270234196   dF: -3.622e-03   |Residual|: 1.593e-02   |deigs|: 2.881e-04  t[s]:  11104.18
	FillingsUpdate:  mu: +1.081431206  nElectrons: 486.000000
SCF: Cycle:  7   F: -2465.086278427389971   dF: -7.742e-04   |Residual|: 7.214e-03   |deigs|: 1.153e-04  t[s]:  11176.43
	FillingsUpdate:  mu: +1.081427283  nElectrons: 486.000000
SCF: Cycle:  8   F: -2465.086430476400437   dF: -1.520e-04   |Residual|: 2.578e-03   |deigs|: 4.437e-05  t[s]:  11251.27
	FillingsUpdate:  mu: +1.081429166  nElectrons: 486.000000
SCF: Cycle:  9   F: -2465.086444896855028   dF: -1.442e-05   |Residual|: 1.264e-03   |deigs|: 2.436e-05  t[s]:  11331.34
	FillingsUpdate:  mu: +1.081430968  nElectrons: 486.000000
SCF: Cycle: 10   F: -2465.086450454874466   dF: -5.558e-06   |Residual|: 5.334e-04   |deigs|: 9.323e-06  t[s]:  11408.85
	FillingsUpdate:  mu: +1.081431964  nElectrons: 486.000000
SCF: Cycle: 11   F: -2465.086451183249665   dF: -7.284e-07   |Residual|: 2.227e-04   |deigs|: 4.940e-06  t[s]:  11485.95
	FillingsUpdate:  mu: +1.081431767  nElectrons: 486.000000
SCF: Cycle: 12   F: -2465.086451293154369   dF: -1.099e-07   |Residual|: 1.418e-04   |deigs|: 2.601e-06  t[s]:  11564.74
	FillingsUpdate:  mu: +1.081431794  nElectrons: 486.000000
SCF: Cycle: 13   F: -2465.086451373581895   dF: -8.043e-08   |Residual|: 5.121e-05   |deigs|: 1.347e-06  t[s]:  11637.72
	FillingsUpdate:  mu: +1.081431742  nElectrons: 486.000000
SCF: Cycle: 14   F: -2465.086451376018431   dF: -2.437e-09   |Residual|: 3.532e-05   |deigs|: 7.165e-07  t[s]:  11714.36
	FillingsUpdate:  mu: +1.081431723  nElectrons: 486.000000
SCF: Cycle: 15   F: -2465.086451381495863   dF: -5.477e-09   |Residual|: 5.961e-06   |deigs|: 6.284e-07  t[s]:  11791.57
SCF: Converged (|Delta E|<1.000000e-08 for 2 iters).

Setting wave functions to eigenvectors of Hamiltonian

# Ionic positions in lattice coordinates:
ion Ir   0.000000000000000   0.000000000000000   0.000000000000000 0
ion Ir  -0.017554227737020   0.273004649209440   0.279398997658784 1
ion Ir   0.277816724068597  -0.018865952693458   0.279354515567281 1
ion Ir   0.276138212246607   0.269992553451401  -0.016642803006963 1
ion Ir   0.003433278712554  -0.000806661250973   0.506293987662699 1
ion Ir   0.004095644274187   0.252040930416806   0.755349745840707 1
ion Ir   0.253775888599194  -0.000486189067069   0.754445435774718 1
ion Ir   0.252672983075990   0.250321378829531   0.504211979226000 1
ion Ir   0.005100931484695   0.499774928794944   0.006550188032453 1
ion Ir   0.005629282015415   0.752828871559448   0.255471435827655 1
ion Ir   0.252873731531392   0.501410175600233   0.253090952785379 1
ion Ir   0.254645829129631   0.753503723352316   0.003801252693959 1
ion Ir   0.001963569176047   0.507399371626427   0.510358673158669 1
ion Ir   0.002779063161538   0.750781869936348   0.757608792629033 1
ion Ir   0.254504313310644   0.504201925208831   0.751212567208543 1
ion Ir   0.254036442671795   0.746106788928699   0.508258782308296 1
ion Ir   0.504438785510985   0.000718953071931   0.004232308815671 1
ion Ir   0.502773030788865   0.247688145507879   0.253230121335835 1
ion Ir   0.753105366772732  -0.000592788383023   0.256486493147529 1
ion Ir   0.754022709518403   0.249092215748432   0.006837494459305 1
ion Ir   0.508325079391944  -0.001151213714604   0.510636711967164 1
ion Ir   0.507686684934903   0.249455593415544   0.751229461714869 1
ion Ir   0.755263744426576  -0.000127162515726   0.754718038015823 1
ion Ir   0.749672889027314   0.250266919945310   0.509293284990057 1
ion Ir   0.507971760532038   0.504933645147584   0.003873848520636 1
ion Ir   0.506613402658606   0.746822401372415   0.253753918908994 1
ion Ir   0.749872332644888   0.505509921697629   0.251512197097289 1
ion Ir   0.755499415865571   0.752261684355481   0.003844672649817 1
ion Ir   0.503076302737467   0.497859564987830   0.501569831039139 1
ion Ir   0.505035049036911   0.748443278451298   0.754753863170457 1
ion Ir   0.754166935700683   0.497898860155109   0.757321034529342 1
ion Ir   0.752775260342778   0.747928278627247   0.505122586166516 1
ion O   0.138961343584493   0.139880809078435   0.145140184860378 1

# Forces in Lattice coordinates:
force Ir  -0.793793938461682  -0.945939293782298  -0.737404161418838 0
force Ir  -0.043246241505702   0.047170225505591  -0.015119010285060 1
force Ir  -0.263276134323907   0.090051983315913  -0.252214785417041 1
force Ir  -0.096807379978115   0.036516909631203   0.109045437385868 1
force Ir   0.028958770985797   0.060534869508956  -0.053959218207216 1
force Ir   0.042541504843635  -0.025333722213853  -0.014556259955711 1
force Ir   0.036836502112495   0.066937291590479   0.020204185472466 1
force Ir   0.009698884943282   0.011245793564217   0.066083885402630 1
force Ir   0.003323009152602   0.018562426842260  -0.032239614750852 1
force Ir  -0.020803853254016  -0.008525414946094  -0.034979635784528 1
force Ir   0.015083349443670  -0.047439468926418   0.038787784768675 1
force Ir  -0.029144292421295  -0.061113660380276   0.105909175555170 1
force Ir   0.057131544678081   0.014377598911517   0.069959667688334 1
force Ir   0.078367488094773   0.026758425662476  -0.031404351367262 1
force Ir  -0.027963917752479   0.056598265387796  -0.041440092062605 1
force Ir  -0.001303577403071  -0.063549576160527   0.115572112423339 1
force Ir  -0.022194259516804  -0.037857312376139   0.010928926238973 1
force Ir   0.071327420681742   0.124986037327780   0.061672738733780 1
force Ir   0.090401982769169   0.059488113211799  -0.009114829090626 1
force Ir   0.031142421117660   0.080252537011476  -0.015677200190311 1
force Ir   0.163064818615265   0.024605069856199   0.126262411310242 1
force Ir   0.060301783131735   0.016458021651722  -0.067076167858094 1
force Ir   0.004793022942350   0.050431498680006   0.058475134240079 1
force Ir  -0.049337406376091  -0.009821360906530   0.040673509433953 1
force Ir   0.081843367457764   0.084665033193418   0.016121589131662 1
force Ir   0.122557084278771  -0.076681964180406   0.021907676187668 1
force Ir  -0.017012693863786   0.015981258021241   0.119941081640948 1
force Ir   0.013959889073180  -0.004931217121573   0.084489218450082 1
force Ir   0.026715552675676   0.059833535138492   0.110591088810532 1
force Ir   0.029766471215081   0.081674850335116   0.004492934184449 1
force Ir   0.003929119253990   0.145262494818735  -0.060861485760367 1
force Ir   0.047080178028918   0.100811811284805   0.049102282686543 1
force O   0.338559477413693   0.007648543240129   0.134911812871793 1

# Energy components:
   Eewald =    -2398.0526329886642998
       EH =      247.6893336385900000
     Eloc =     -747.1851313984825538
      Enl =       26.1349597139571159
      Exc =     -811.0661243231866138
 Exc_core =      457.0355290621319000
       KE =      760.5856493188307468
-------------------------------------
     Etot =    -2464.8584169768237189
       TS =        0.2280344046722717
-------------------------------------
        F =    -2465.0864513814958627

IonicMinimize: Iter:   6  F: -2465.086451381495863  |grad|_K:  5.753e-03  alpha:  5.649e-01  linmin: -2.124e-01  t[s]:  11807.02

#--- Lowdin population analysis ---
# oxidation-state Ir +0.085 +0.111 +0.109 +0.106 -0.007 -0.005 -0.006 -0.011 -0.008 -0.008 -0.010 -0.007 +0.020 +0.014 +0.015 +0.017 -0.006 -0.009 -0.008 -0.006 +0.022 +0.016 +0.013 +0.014 +0.022 +0.017 +0.015 +0.015 +0.008 +0.011 +0.012 +0.010
# oxidation-state O -0.044


-------- Electronic minimization -----------
Will mix electronic density at each iteration.
	FillingsUpdate:  mu: +1.081431723  nElectrons: 486.000000
	FillingsUpdate:  mu: +1.080930845  nElectrons: 486.000000
SCF: Cycle:  0   F: -2461.018382684957942   dF: +3.041e+00   |Residual|: 8.474e-01   |deigs|: 3.097e-03  t[s]:  11983.62
	FillingsUpdate:  mu: +1.082397210  nElectrons: 486.000000
SCF: Cycle:  1   F: -2459.176149832405827   dF: +1.842e+00   |Residual|: 1.048e+00   |deigs|: 1.272e-02  t[s]:  12111.23
	FillingsUpdate:  mu: +1.081630322  nElectrons: 486.000000
SCF: Cycle:  2   F: -2464.930324650397324   dF: -5.754e+00   |Residual|: 1.998e-01   |deigs|: 1.783e-02  t[s]:  12249.10
	FillingsUpdate:  mu: +1.081468595  nElectrons: 486.000000
SCF: Cycle:  3   F: -2464.977157675394665   dF: -4.683e-02   |Residual|: 1.769e-01   |deigs|: 1.123e-03  t[s]:  12385.79
	FillingsUpdate:  mu: +1.081420125  nElectrons: 486.000000
SCF: Cycle:  4   F: -2465.089161307063478   dF: -1.120e-01   |Residual|: 2.523e-02   |deigs|: 1.734e-03  t[s]:  12513.74
	FillingsUpdate:  mu: +1.081366770  nElectrons: 486.000000
SCF: Cycle:  5   F: -2465.089224842581189   dF: -6.354e-05   |Residual|: 1.933e-02   |deigs|: 2.032e-04  t[s]:  12586.88
	FillingsUpdate:  mu: +1.081349661  nElectrons: 486.000000
SCF: Cycle:  6   F: -2465.090237020326185   dF: -1.012e-03   |Residual|: 6.155e-03   |deigs|: 1.315e-04  t[s]:  12664.26
	FillingsUpdate:  mu: +1.081352970  nElectrons: 486.000000
SCF: Cycle:  7   F: -2465.090294772149718   dF: -5.775e-05   |Residual|: 3.515e-03   |deigs|: 5.683e-05  t[s]:  12740.17
	FillingsUpdate:  mu: +1.081354136  nElectrons: 486.000000
SCF: Cycle:  8   F: -2465.090342223439620   dF: -4.745e-05   |Residual|: 1.380e-03   |deigs|: 2.567e-05  t[s]:  12819.52
	FillingsUpdate:  mu: +1.081355189  nElectrons: 486.000000
SCF: Cycle:  9   F: -2465.090348605793224   dF: -6.382e-06   |Residual|: 6.325e-04   |deigs|: 1.374e-05  t[s]:  12894.24
	FillingsUpdate:  mu: +1.081355660  nElectrons: 486.000000
SCF: Cycle: 10   F: -2465.090349831740241   dF: -1.226e-06   |Residual|: 2.255e-04   |deigs|: 5.493e-06  t[s]:  12967.75
	FillingsUpdate:  mu: +1.081355770  nElectrons: 486.000000
SCF: Cycle: 11   F: -2465.090349930897446   dF: -9.916e-08   |Residual|: 8.878e-05   |deigs|: 1.658e-06  t[s]:  13041.35
	FillingsUpdate:  mu: +1.081355627  nElectrons: 486.000000
SCF: Cycle: 12   F: -2465.090349937629981   dF: -6.733e-09   |Residual|: 6.735e-05   |deigs|: 1.090e-06  t[s]:  13121.27
	FillingsUpdate:  mu: +1.081355582  nElectrons: 486.000000
SCF: Cycle: 13   F: -2465.090349952135966   dF: -1.451e-08   |Residual|: 3.081e-05   |deigs|: 7.248e-07  t[s]:  13194.16
	FillingsUpdate:  mu: +1.081355552  nElectrons: 486.000000
SCF: Cycle: 14   F: -2465.090349954645262   dF: -2.509e-09   |Residual|: 1.832e-05   |deigs|: 5.550e-07  t[s]:  13272.17
	FillingsUpdate:  mu: +1.081355548  nElectrons: 486.000000
SCF: Cycle: 15   F: -2465.090349955748025   dF: -1.103e-09   |Residual|: 7.653e-06   |deigs|: 5.114e-07  t[s]:  13345.28
SCF: Converged (|Delta E|<1.000000e-08 for 2 iters).

Setting wave functions to eigenvectors of Hamiltonian

# Ionic positions in lattice coordinates:
ion Ir   0.000000000000000   0.000000000000000   0.000000000000000 0
ion Ir  -0.019346108679812   0.274285774513107   0.278650527528719 1
ion Ir   0.275993992659955  -0.020229340394544   0.276912556393299 1
[...]
ion Ir   0.019359286856979   0.517989951395879   0.019647477752677 1
ion Ir   0.019418034943933   0.769529729845749   0.268665861294770 1
ion Ir   0.268355891795012   0.517933171052197   0.268659061722402 1
ion Ir   0.268418199463727   0.769519981274703   0.019727593657672 1
ion Ir   0.018708199315934   0.522338518742477   0.522741589737871 1
ion Ir   0.018705691033209   0.765141176544305   0.765627362782941 1
ion Ir   0.269048013264251   0.522404491687165   0.765512899079262 1
ion Ir   0.269095179096546   0.765020520056947   0.522771712015458 1
ion Ir   0.518105381646518   0.019198738691437   0.019643477968357 1
ion Ir   0.518105951464539   0.268223450544642   0.268624769850330 1
ion Ir   0.769589412108635   0.019174961906376   0.268648557815745 1
ion Ir   0.769583513413602   0.268259198384219   0.019650658926474 1
ion Ir   0.522581141956757   0.018469598079588   0.522822320186735 1
ion Ir   0.522502899272792   0.268835362529461   0.765524163359595 1
ion Ir   0.765359708262225   0.018474207253578   0.765610373751876 1
ion Ir   0.765281321704840   0.268817481247293   0.522684510218200 1
ion Ir   0.522554779162799   0.522385934566704   0.018979972688843 1
ion Ir   0.522506806004205   0.765072753263492   0.269361185629972 1
ion Ir   0.765358837861768   0.522301629933218   0.269307226735131 1
ion Ir   0.765465723608149   0.765236174920216   0.018948356006069 1
ion Ir   0.518638711878523   0.518434901107593   0.518957210906264 1
ion Ir   0.518698703092826   0.768868802944533   0.769380462253805 1
ion Ir   0.769080734427085   0.518492205537959   0.769351912050453 1
ion Ir   0.769089347537524   0.768846988216185   0.518990257154497 1
ion O   0.144262809385821   0.143869723098466   0.144325588087093 1

# Forces in Lattice coordinates:
force Ir  -0.008649381408308  -0.017773442322447   0.002292855682872 0
force Ir  -0.000302249480613   0.004262775031084   0.004220393359645 1
force Ir  -0.004678465507524   0.002038956383990  -0.001572647689371 1
force Ir  -0.002473371250033   0.000942648037281   0.002950938867750 1
force Ir   0.003088888965603   0.001094800182645  -0.001055008986013 1
force Ir   0.001780292398768   0.000266089068874   0.001524180274420 1
force Ir   0.000626393487035   0.000679969752581   0.000690179639540 1
force Ir   0.001762098573962  -0.001533613158824  -0.002325621819484 1
force Ir   0.001683718723388  -0.001941574341550  -0.000599552154811 1
force Ir  -0.001542698376351  -0.000183675613121  -0.001333666812996 1
force Ir   0.001315536660595  -0.000074090848763  -0.001404637466952 1
force Ir  -0.001198122877109  -0.001821951133018  -0.003212754513801 1
force Ir  -0.001699926287744  -0.002834162117483  -0.002935806776313 1
force Ir   0.000157402478527   0.003242953097669   0.002141511280079 1
force Ir   0.000416466264912  -0.005447472532166   0.005735098481944 1
force Ir  -0.000850425135404   0.005614460285330  -0.002587212614513 1
force Ir   0.001664823427043  -0.001193939021721  -0.000560419495854 1
force Ir   0.000556152875586   0.000202589193400   0.002034962742994 1
force Ir   0.002355502289799  -0.000439643263360  -0.000824809107446 1
force Ir   0.001261088480307  -0.000769992315815  -0.001473262461485 1
force Ir  -0.003640333665524   0.001171127514099  -0.002859008238106 1
force Ir   0.000697872550666   0.001451117760473   0.000173719498347 1
force Ir  -0.000049286715681   0.002644437609089   0.001767038749621 1
force Ir   0.001030591834515   0.002836998974266   0.000726806265833 1
force Ir  -0.001933751112616  -0.000768579361486  -0.000222271099117 1
force Ir   0.001710509115342  -0.000478256849405  -0.000819371895158 1
force Ir  -0.001056307651910  -0.000029473773641   0.001433816578436 1
force Ir  -0.001106294865758   0.001634097405227   0.001036026404730 1
force Ir   0.002843843200487   0.000095603165834  -0.001936543847474 1
force Ir   0.000251354888270   0.002248270051901   0.000696133080944 1
force Ir   0.000209751049012  -0.000346009247677  -0.000422192986985 1
force Ir   0.000255201741174   0.001077914505538  -0.002085439557327 1
force O  -0.000011056586448  -0.000800885040908  -0.000346774794116 1

# Energy components:
   Eewald =    -2398.2687004161234654
       EH =      247.5059726260004993
     Eloc =     -746.7402696847926791
      Enl =       26.1314901240572901
      Exc =     -811.0526876105369638
 Exc_core =      457.0355242488623162
       KE =      760.5086309521996100
-------------------------------------
     Etot =    -2464.8800397603336023
       TS =        0.2275774785157874
-------------------------------------
        F =    -2465.1076172388493433

IonicMinimize: Iter:  18  F: -2465.107617238849343  |grad|_K:  1.435e-04  alpha:  1.000e+00  linmin: -9.211e-02  t[s]:  26678.30

#--- Lowdin population analysis ---
# oxidation-state Ir +0.104 +0.105 +0.105 +0.105 -0.008 -0.008 -0.008 -0.008 -0.008 -0.008 -0.008 -0.008 +0.017 +0.017 +0.017 +0.017 -0.008 -0.008 -0.008 -0.008 +0.017 +0.017 +0.017 +0.017 +0.017 +0.017 +0.017 +0.017 +0.011 +0.011 +0.011 +0.011
# oxidation-state O -0.061


-------- Electronic minimization -----------
Will mix electronic density at each iteration.
	FillingsUpdate:  mu: +1.081445867  nElectrons: 486.000000
	FillingsUpdate:  mu: +1.081450305  nElectrons: 486.000000
SCF: Cycle:  0   F: -2465.107574998345171   dF: +2.065e-05   |Residual|: 2.230e-03   |deigs|: 7.810e-06  t[s]:  26807.28
	FillingsUpdate:  mu: +1.081450113  nElectrons: 486.000000
SCF: Cycle:  1   F: -2465.107553598382310   dF: +2.140e-05   |Residual|: 3.521e-03   |deigs|: 5.751e-05  t[s]:  26886.90
	FillingsUpdate:  mu: +1.081449885  nElectrons: 486.000000
SCF: Cycle:  2   F: -2465.107618202540834   dF: -6.460e-05   |Residual|: 4.301e-04   |deigs|: 3.836e-05  t[s]:  26965.47
	FillingsUpdate:  mu: +1.081449972  nElectrons: 486.000000
SCF: Cycle:  3   F: -2465.107618540107069   dF: -3.376e-07   |Residual|: 4.010e-04   |deigs|: 5.345e-06  t[s]:  27042.41
	FillingsUpdate:  mu: +1.081449810  nElectrons: 486.000000
SCF: Cycle:  4   F: -2465.107619226238512   dF: -6.861e-07   |Residual|: 9.290e-05   |deigs|: 3.813e-06  t[s]:  27119.16
	FillingsUpdate:  mu: +1.081449778  nElectrons: 486.000000
SCF: Cycle:  5   F: -2465.107619213649286   dF: +1.259e-08   |Residual|: 7.197e-05   |deigs|: 7.153e-07  t[s]:  27194.39
	FillingsUpdate:  mu: +1.081449791  nElectrons: 486.000000
SCF: Cycle:  6   F: -2465.107619235072434   dF: -2.142e-08   |Residual|: 1.831e-05   |deigs|: 6.878e-07  t[s]:  27274.15
	FillingsUpdate:  mu: +1.081449775  nElectrons: 486.000000
SCF: Cycle:  7   F: -2465.107619236227038   dF: -1.155e-09   |Residual|: 9.540e-06   |deigs|: 1.754e-07  t[s]:  27350.51
	FillingsUpdate:  mu: +1.081449775  nElectrons: 486.000000
SCF: Cycle:  8   F: -2465.107619236578103   dF: -3.511e-10   |Residual|: 4.153e-06   |deigs|: 9.391e-08  t[s]:  27424.28
SCF: Converged (|Delta E|<1.000000e-08 for 2 iters).

Setting wave functions to eigenvectors of Hamiltonian

# Ionic positions in lattice coordinates:
ion Ir   0.000000000000000   0.000000000000000   0.000000000000000 0
ion Ir  -0.000155206295912   0.287996210208896   0.288438936092300 1
ion Ir   0.288147445058953  -0.000284233084082   0.288417293447309 1
ion Ir   0.288124126551173   0.287999291614776   0.000092532265580 1
ion Ir   0.019498322088987   0.019311904731499   0.518462441843348 1
ion Ir   0.019495365830152   0.268392144500359   0.769942980919739 1
ion Ir   0.268540553540928   0.019306283201517   0.769943964000818 1
ion Ir   0.268504540671947   0.268320041537317   0.518496769500619 1
ion Ir   0.019509630006415   0.518067665980365   0.019732090707454 1
ion Ir   0.019502745106001   0.769637325824374   0.268702491972341 1
ion Ir   0.268487404980383   0.518040972028569   0.268718601874690 1
ion Ir   0.268505243051337   0.769593115660289   0.019752496004290 1
ion Ir   0.018797585669065   0.522418257859646   0.522801251471129 1
ion Ir   0.018835989254562   0.765327276168287   0.765744668946051 1
ion Ir   0.269179441583743   0.522392617754218   0.765736711351033 1
ion Ir   0.269209798270985   0.765282444322838   0.522776988976719 1
ion Ir   0.518258822251142   0.019292738603889   0.019725687783465 1
ion Ir   0.518253957456282   0.268358202481236   0.268757096258167 1
ion Ir   0.769763312961945   0.019307482590403   0.268706972932035 1
ion Ir   0.769736086619239   0.268364853561467   0.019725412031875 1
ion Ir   0.522587644221318   0.018608242965024   0.522810849856226 1
ion Ir   0.522589149973953   0.268985449128707   0.765661704313522 1
ion Ir   0.765452311872653   0.018647266251065   0.765705520644613 1
ion Ir   0.765397311163479   0.269008985563808   0.522817304269468 1
ion Ir   0.522592419415887   0.522445226616222   0.019061409523961 1
ion Ir   0.522604500416303   0.765235683606610   0.269436675417328 1
ion Ir   0.765427601656874   0.522454254600935   0.269446246482035 1
ion Ir   0.765533962430151   0.765361821115203   0.019044617482787 1
ion Ir   0.518808388325763   0.518585226072630   0.519026155479994 1
ion Ir   0.518829108862894   0.769034392047765   0.769460290727380 1
ion Ir   0.769198925763837   0.518616550555615   0.769433067616927 1
ion Ir   0.769212801439828   0.769021022143393   0.519043082347046 1
ion O   0.144124418889072   0.143994671304166   0.144397544861929 1

# Forces in Lattice coordinates:
force Ir  -0.000771740837548  -0.008517786665975   0.009676226235620 0
force Ir  -0.001008816158069  -0.001221630320626  -0.002426940564386 1
force Ir   0.001060938861827  -0.001169643304466  -0.003163442793956 1
force Ir   0.003996045929993  -0.002000388144092   0.000180261327020 1
force Ir  -0.002179284174253  -0.000775758664541   0.001153713913692 1
force Ir  -0.001014467990038   0.000345045006522  -0.000790677306584 1
force Ir   0.000964261816480   0.000084422841317   0.000827807365703 1
force Ir   0.001015398247174   0.002281903430985   0.000238000408283 1
force Ir  -0.003026286486105   0.001168838497659  -0.000111880895810 1
force Ir  -0.000261005684369  -0.000928729229534   0.000723248111389 1
force Ir   0.001270649361756   0.002556080258605   0.002647356846549 1
force Ir   0.000675564499759   0.001025330231164  -0.000966608365441 1
force Ir   0.002690211504296   0.005510314528219   0.004114507001015 1
force Ir   0.000227169325179  -0.004840090961394  -0.005415836520460 1
force Ir  -0.000239569261817   0.005531946512505  -0.007931520035351 1
force Ir  -0.001796766787630  -0.006437774628404   0.004854971440862 1
force Ir  -0.001313395036185   0.001016891950141   0.000440643736487 1
force Ir   0.000212163129891  -0.001027431571533  -0.001012434418695 1
force Ir  -0.000055714623359   0.001095153208908   0.001687832325446 1
force Ir  -0.000372501527417   0.001219889065166   0.000376252083654 1
force Ir   0.003501554063552   0.001680626853612   0.001764826182165 1
force Ir   0.000360951579072   0.000081976274427  -0.000611569889322 1
force Ir  -0.002891582604209   0.000880416611631  -0.004919659113923 1
force Ir  -0.000894066950139  -0.001734690396430   0.001390741451364 1
force Ir   0.003256842255006   0.002012819459868   0.000230494698467 1
force Ir  -0.000329011842511   0.000164994082191  -0.001342141805275 1
force Ir  -0.000515748136315   0.000199188057490  -0.002682905852811 1
force Ir  -0.002710066246295  -0.004081572277892  -0.000018921329564 1
force Ir  -0.002831089701465   0.001627197017309   0.001199661310648 1
force Ir  -0.001475133423449  -0.000742720737677  -0.000813618143104 1
force Ir   0.000691187561723   0.001600124554495   0.001289000460253 1
force Ir   0.000796407508516   0.001503487279097   0.000496015461656 1
force O  -0.002521272941676  -0.002982231350457  -0.001957957575746 1

# Energy components:
   Eewald =    -2398.2677530777918946
       EH =      247.5064732813781063
     Eloc =     -746.7416599183545713
      Enl =       26.1315055856412926
      Exc =     -811.0526949979238225
 Exc_core =      457.0355258912072145
       KE =      760.5085653495390261
-------------------------------------
     Etot =    -2464.8800378863047627
       TS =        0.2275813502734552
-------------------------------------
        F =    -2465.1076192365781026

IonicMinimize: Iter:  19  F: -2465.107619236578103  |grad|_K:  1.668e-04  alpha:  1.000e+00  linmin:  2.157e-01  t[s]:  27441.46

#--- Lowdin population analysis ---
# oxidation-state Ir +0.105 +0.105 +0.105 +0.105 -0.008 -0.008 -0.008 -0.008 -0.008 -0.008 -0.008 -0.008 +0.017 +0.017 +0.017 +0.017 -0.008 -0.008 -0.008 -0.008 +0.017 +0.017 +0.017 +0.017 +0.017 +0.017 +0.017 +0.017 +0.011 +0.011 +0.011 +0.011
# oxidation-state O -0.061


-------- Electronic minimization -----------
Will mix electronic density at each iteration.
	FillingsUpdate:  mu: +1.081449775  nElectrons: 486.000000
	FillingsUpdate:  mu: +1.081447387  nElectrons: 486.000000
SCF: Cycle:  0   F: -2465.107609628781574   dF: +9.550e-06   |Residual|: 1.092e-03   |deigs|: 2.588e-07  t[s]:  27569.63
	FillingsUpdate:  mu: +1.081447746  nElectrons: 486.000000
SCF: Cycle:  1   F: -2465.107604960981462   dF: +4.668e-06   |Residual|: 1.767e-03   |deigs|: 3.276e-05  t[s]:  27648.51
	FillingsUpdate:  mu: +1.081447784  nElectrons: 486.000000
SCF: Cycle:  2   F: -2465.107621234115413   dF: -1.627e-05   |Residual|: 1.787e-04   |deigs|: 2.128e-05  t[s]:  27724.82
	FillingsUpdate:  mu: +1.081447689  nElectrons: 486.000000
SCF: Cycle:  3   F: -2465.107621320239105   dF: -8.612e-08   |Residual|: 1.926e-04   |deigs|: 3.053e-06  t[s]:  27801.96
	FillingsUpdate:  mu: +1.081447790  nElectrons: 486.000000
SCF: Cycle:  4   F: -2465.107621477437078   dF: -1.572e-07   |Residual|: 3.690e-05   |deigs|: 2.084e-06  t[s]:  27880.67
	FillingsUpdate:  mu: +1.081447807  nElectrons: 486.000000
SCF: Cycle:  5   F: -2465.107621475480755   dF: +1.956e-09   |Residual|: 2.823e-05   |deigs|: 2.948e-07  t[s]:  27957.69
	FillingsUpdate:  mu: +1.081447803  nElectrons: 486.000000
SCF: Cycle:  6   F: -2465.107621478398869   dF: -2.918e-09   |Residual|: 7.416e-06   |deigs|: 2.544e-07  t[s]:  28035.70
	FillingsUpdate:  mu: +1.081447808  nElectrons: 486.000000
SCF: Cycle:  7   F: -2465.107621478863166   dF: -4.643e-10   |Residual|: 3.767e-06   |deigs|: 8.005e-08  t[s]:  28111.02
SCF: Converged (|Delta E|<1.000000e-08 for 2 iters).

Setting wave functions to eigenvectors of Hamiltonian

# Ionic positions in lattice coordinates:
ion Ir   0.000000000000000   0.000000000000000   0.000000000000000 0
ion Ir  -0.000140300781809   0.287973757374112   0.288410583055210 1
ion Ir   0.288172393765936  -0.000300878174633   0.288422334195092 1
ion Ir   0.288174530155381   0.288002716244708   0.000088170125526 1
ion Ir   0.019480439378916   0.019305619500962   0.518483649430218 1
ion Ir   0.019486254211406   0.268407701627181   0.769949142446013 1
ion Ir   0.268546478555596   0.019317487418955   0.769956967855002 1
ion Ir   0.268516259002050   0.268347646601723   0.518508603887127 1
ion Ir   0.019488268340957   0.518086334442086   0.019739722273794 1
ion Ir   0.019503102734460   0.769641476760341   0.268725846407863 1
ion Ir   0.268499333457201   0.518073883529422   0.268745648834952 1
ion Ir   0.268518159545715   0.769613141313184   0.019753748921608 1
ion Ir   0.018819000607698   0.522458388653299   0.522826969746481 1
ion Ir   0.018833377120704   0.765288761991388   0.765707277798300 1
ion Ir   0.269177144737239   0.522451972543416   0.765676733761863 1
ion Ir   0.269197837598822   0.765243026138540   0.522821942241771 1
ion Ir   0.518252459107341   0.019310510702432   0.019738863301765 1
ion Ir   0.518257795279118   0.268359699900705   0.268757558798775 1
ion Ir   0.769760382543462   0.019318898506189   0.268729574826161 1
ion Ir   0.769733619945083   0.268381111393692   0.019734693467902 1
ion Ir   0.522619977371013   0.018629897381756   0.522840786524612 1
ion Ir   0.522600207798511   0.268996175713265   0.765659165427015 1
ion Ir   0.765427748330490   0.018658200026551   0.765671927090257 1
ion Ir   0.765406730405987   0.269002670749163   0.522821370244292 1
ion Ir   0.522623095074925   0.522474399685998   0.019072951263022 1
ion Ir   0.522607957396381   0.765241951067058   0.269437513526208 1
ion Ir   0.765437869152615   0.522452500311956   0.269427597077052 1
ion Ir   0.765514885417075   0.765340346434496   0.019050963351330 1
ion Ir   0.518791039427494   0.518601676287809   0.519037777007768 1
ion Ir   0.518819926307946   0.769035956298082   0.769467681762489 1
ion Ir   0.769207411629902   0.518631690373688   0.769452520201001 1
ion Ir   0.769220075169805   0.769030768270569   0.519053855519502 1
ion O   0.144134510001820   0.143950935254194   0.144361569335531 1

# Forces in Lattice coordinates:
force Ir  -0.003664430226292  -0.011144441321767   0.006764693070348 0
force Ir  -0.000296457008209   0.000586226179980  -0.000225281354582 1
force Ir  -0.000680188148812   0.000228116810140  -0.001442108662073 1
force Ir   0.000118986681276  -0.000110578713497   0.000736274153095 1
force Ir  -0.000015419080834   0.000390979757443   0.000344469702976 1
force Ir   0.000089432013091  -0.000070305170350  -0.000435889921388 1
force Ir   0.000237487427061   0.000381505303911   0.000096458696523 1
force Ir   0.000010658645085   0.000277557467397  -0.000558607137801 1
force Ir  -0.000192206728778   0.000372731271048  -0.000093214313755 1
force Ir  -0.000184312293828  -0.000425728517540  -0.000566854661686 1
force Ir   0.000574672788733   0.000794188941158   0.000388313966878 1
force Ir  -0.000587547289084  -0.000058110603688  -0.000756985118448 1
force Ir   0.000348976525380   0.000638646401288   0.000169776693461 1
force Ir  -0.000307948475365  -0.000443198013382  -0.000978583964272 1
force Ir   0.000272411663351   0.000173202443036  -0.001075689471622 1
force Ir  -0.000451745529687  -0.000803569939364   0.001036690107855 1
force Ir  -0.000046578046665   0.000367817171349  -0.000078030663578 1
force Ir  -0.000046808402455  -0.000372898351216  -0.000232196952771 1
force Ir   0.000314204948519   0.000518555636190   0.000299389307968 1
force Ir  -0.000014764499103  -0.000015803285113  -0.000198540672187 1
force Ir   0.000198181649500   0.000863087832325  -0.000482814807289 1
force Ir   0.000324228880991   0.000702539548080  -0.000509647235387 1
force Ir  -0.000326054415754   0.000547508291530  -0.000870171876751 1
force Ir  -0.000110515809604   0.000313749561352   0.000533470789155 1
force Ir   0.000378908391063   0.000266061672597  -0.000132267763280 1
force Ir   0.000389137105841   0.000043877013526  -0.000486916310432 1
force Ir  -0.000298779508300  -0.000018805802422  -0.000401075828695 1
force Ir  -0.000524917200558  -0.000523554281296  -0.000030452891708 1
force Ir  -0.000058511111199   0.000845967612215   0.000249236579866 1
force Ir  -0.000495755064779   0.000081378138781  -0.000767116931734 1
force Ir  -0.000027484463614   0.000632662898038  -0.000195169317639 1
force Ir  -0.000298528721381   0.000512801228049  -0.000419415915757 1
force O   0.000043051001154  -0.000401751162930  -0.000534161610087 1

# Energy components:
   Eewald =    -2398.2683940293418345
       EH =      247.5061343623601147
     Eloc =     -746.7406879377301721
      Enl =       26.1315152662603154
      Exc =     -811.0526877568179316
 Exc_core =      457.0355261093509398
       KE =      760.5085515721802949
-------------------------------------
     Etot =    -2464.8800424137380105
       TS =        0.2275790651249984
-------------------------------------
        F =    -2465.1076214788631660

IonicMinimize: Iter:  20  F: -2465.107621478863166  |grad|_K:  3.383e-05  alpha:  1.000e+00  linmin: -1.468e-01  t[s]:  28127.74
IonicMinimize: Converged (|grad|_K<1.000000e-04).

#--- Lowdin population analysis ---
# oxidation-state Ir +0.105 +0.105 +0.105 +0.105 -0.008 -0.008 -0.008 -0.008 -0.008 -0.008 -0.008 -0.008 +0.017 +0.017 +0.017 +0.017 -0.008 -0.008 -0.008 -0.008 +0.017 +0.017 +0.017 +0.017 +0.017 +0.017 +0.017 +0.017 +0.011 +0.011 +0.011 +0.011
# oxidation-state O -0.061


Dumping 'Ir_tet.Ecomponents' ... done
End date and time: Mon Jun 17 20:54:21 2024  (Duration: 0-7:49:01.92)
Done!
