--------------------------------------------------------------------------
[[42946,1],3]: A high-performance Open MPI point-to-point messaging module
was unable to find any relevant network interfaces:

Module: OpenFabrics (openib)
  Host: node3217

Another transport will be used instead, although this may result in
lower performance.
--------------------------------------------------------------------------

*************** JDFTx 1.7.0  ***************

Start date and time: Wed Apr 17 13:46:15 2024
Executable jdftx with command-line: -i /home/cam559/Valla_project/Nb/Nb16.in
Running on hosts (process indices):  node3217.physics.cornell.edu (0-9)
Divided in process groups (process indices):  0 (0)  1 (1)  2 (2)  3 (3)  4 (4)  5 (5)  6 (6)  7 (7)  8 (8)  9 (9)
Resource initialization completed at t[s]:      0.00
Run totals: 10 processes, 40 threads, 0 GPUs


Input parsed successfully to the following command list (including defaults):

basis kpoint-dependent
coords-type Cartesian
core-overlap-check vector
coulomb-interaction Periodic
davidson-band-ratio 1.1
debug  EigsFillings
dump End Dtot Ecomponents
dump-name Nb16.$VAR
elec-cutoff 20 100
elec-eigen-algo Davidson
elec-ex-corr gga-PBE
elec-smearing Fermi 0.004
electronic-minimize  \
	dirUpdateScheme      FletcherReeves \
	linminMethod         DirUpdateRecommended \
	nIterations          100 \
	history              15 \
	knormThreshold       0 \
	energyDiffThreshold  1e-08 \
	nEnergyDiff          2 \
	alphaTstart          1 \
	alphaTmin            1e-10 \
	updateTestStepSize   yes \
	alphaTreduceFactor   0.1 \
	alphaTincreaseFactor 3 \
	nAlphaAdjustMax      3 \
	wolfeEnergy          0.0001 \
	wolfeGradient        0.9 \
	fdTest               no
exchange-regularization WignerSeitzTruncated
fluid None
fluid-ex-corr lda-TF lda-PZ
fluid-gummel-loop 10 1.000000e-05
fluid-minimize  \
	dirUpdateScheme      PolakRibiere \
	linminMethod         DirUpdateRecommended \
	nIterations          100 \
	history              15 \
	knormThreshold       0 \
	energyDiffThreshold  0 \
	nEnergyDiff          2 \
	alphaTstart          1 \
	alphaTmin            1e-10 \
	updateTestStepSize   yes \
	alphaTreduceFactor   0.1 \
	alphaTincreaseFactor 3 \
	nAlphaAdjustMax      3 \
	wolfeEnergy          0.0001 \
	wolfeGradient        0.9 \
	fdTest               no
fluid-solvent H2O 55.338 ScalarEOS \
	epsBulk 78.4 \
	pMol 0.92466 \
	epsInf 1.77 \
	Pvap 1.06736e-10 \
	sigmaBulk 4.62e-05 \
	Rvdw 2.61727 \
	Res 1.42 \
	tauNuc 343133 \
	poleEl 15 7 1
forces-output-coords Positions
initial-state Nb16.$VAR
ion Nb  -0.011761471284436  -0.011919642105416  -0.011763338657937 1
ion Nb   3.113581933821688   3.113704410558840   3.113720179637397 1
ion Nb  -0.011871564778617  -0.011854731533132   6.240789168306048 1
ion Nb   3.113607921885833   3.113551992759874   9.366034532249952 1
ion Nb  -0.011867334416704   6.240694199571827  -0.011887693511652 1
ion Nb   3.113551101096515   9.366208210199094   3.113680072456842 1
ion Nb  -0.011935450976663   6.240689061257050   6.240608909571075 1
ion Nb   3.113564801262581   9.366145392232665   9.366109398679221 1
ion Nb   6.240792646659604  -0.011824412734730  -0.011861728592045 1
ion Nb   9.366070168254891   3.113459926590294   3.113648000613463 1
ion Nb   6.240701823013421  -0.011777746177729   6.240576581240747 1
ion Nb   9.366090032314654   3.113359523923835   9.366143215394276 1
ion Nb   6.240711913309235   6.240674254786642  -0.011868772992166 1
ion Nb   9.366133433201052   9.366214724139526   3.113607818319112 1
ion Nb   6.240614523127064   6.240654853848760   6.240420324073093 1
ion Nb   9.366167523509905   9.366171982682618   9.366195333212595 1
ion-species GBRV/$ID_pbe.uspp
ion-width 0
ionic-minimize  \
	dirUpdateScheme      L-BFGS \
	linminMethod         DirUpdateRecommended \
	nIterations          0 \
	history              15 \
	knormThreshold       0.0001 \
	energyDiffThreshold  1e-06 \
	nEnergyDiff          2 \
	alphaTstart          1 \
	alphaTmin            1e-10 \
	updateTestStepSize   yes \
	alphaTreduceFactor   0.1 \
	alphaTincreaseFactor 3 \
	nAlphaAdjustMax      3 \
	wolfeEnergy          0.0001 \
	wolfeGradient        0.9 \
	fdTest               no
kpoint   0.000000000000   0.000000000000   0.000000000000  1.00000000000000
kpoint-folding 4 4 4 
latt-move-scale 1 1 1
latt-scale 1 1 1 
lattice  \
	  12.502806000000000    0.000000000000000    0.000000000000000  \
	   0.000000000000000   12.502806000000000    0.000000000000000  \
	   0.000000000000000    0.000000000000000   12.502806000000000 
lattice-minimize  \
	dirUpdateScheme      L-BFGS \
	linminMethod         DirUpdateRecommended \
	nIterations          0 \
	history              15 \
	knormThreshold       0 \
	energyDiffThreshold  1e-06 \
	nEnergyDiff          2 \
	alphaTstart          1 \
	alphaTmin            1e-10 \
	updateTestStepSize   yes \
	alphaTreduceFactor   0.1 \
	alphaTincreaseFactor 3 \
	nAlphaAdjustMax      3 \
	wolfeEnergy          0.0001 \
	wolfeGradient        0.9 \
	fdTest               no
lcao-params -1 1e-06 0.004
pcm-variant GLSSA13
spintype no-spin
subspace-rotation-factor 1 yes
symmetries automatic
symmetry-threshold 0.0001



---------- Setting up symmetries ----------

Found 48 point-group symmetries of the bravais lattice
Found 1 space-group symmetries with basis
Applied RMS atom displacement 0 bohrs to make symmetries exact.

---------- Initializing the Grid ----------
R = 
[      12.5028            0            0  ]
[            0      12.5028            0  ]
[            0            0      12.5028  ]
unit cell volume = 1954.44
G =
[   0.502542          0          0  ]
[          0   0.502542          0  ]
[          0          0   0.502542  ]
Minimum fftbox size, Smin = [  60  60  60  ]
Chosen fftbox size, S = [  60  60  60  ]

---------- Initializing tighter grid for wavefunction operations ----------
R = 
[      12.5028            0            0  ]
[            0      12.5028            0  ]
[            0            0      12.5028  ]
unit cell volume = 1954.44
G =
[   0.502542          0          0  ]
[          0   0.502542          0  ]
[          0          0   0.502542  ]
Minimum fftbox size, Smin = [  52  52  52  ]
Chosen fftbox size, S = [  54  54  54  ]

---------- Exchange Correlation functional ----------
Initalized PBE GGA exchange.
Initalized PBE GGA correlation.

---------- Setting up pseudopotentials ----------
Width of ionic core gaussian charges (only for fluid interactions / plotting) set to 0

Reading pseudopotential file '/home/cam559/JDFTx/build/pseudopotentials/GBRV/nb_pbe.uspp':
  Title: Nb.  Created by USPP 7.3.6 on 14-9-2013
  Reference state energy: -58.592548.  13 valence electrons in orbitals:
    |400>  occupation: 2  eigenvalue: -2.145853
    |410>  occupation: 6  eigenvalue: -1.268635
    |420>  occupation: 4  eigenvalue: -0.111734
    |500>  occupation: 1  eigenvalue: -0.146332
    |510>  occupation: 0  eigenvalue: -0.040820
  lMax: 2  lLocal: 3  QijEcut: 5
  6 projectors sampled on a log grid with 627 points:
    l: 0  eig: -2.145854  rCut: 1.8
    l: 0  eig: -0.146334  rCut: 1.8
    l: 1  eig: -1.268634  rCut: 2
    l: 1  eig: 0.150000  rCut: 2
    l: 2  eig: -0.040820  rCut: 2.2
    l: 2  eig: 0.150000  rCut: 2.2
  Partial core density with radius 1.2
  Transforming core density to a uniform radial grid of dG=0.02 with 1311 points.
  Transforming local potential to a uniform radial grid of dG=0.02 with 1311 points.
  Transforming nonlocal projectors to a uniform radial grid of dG=0.02 with 432 points.
  Transforming density augmentations to a uniform radial grid of dG=0.02 with 1311 points.
  Transforming atomic orbitals to a uniform radial grid of dG=0.02 with 432 points.
  Core radius for overlap checks: 2.20 bohrs.

Initialized 1 species with 16 total atoms.

Folded 1 k-points by 4x4x4 to 64 k-points.

---------- Setting up k-points, bands, fillings ----------
Adding inversion symmetry to k-mesh for non-inversion-symmetric unit cell.
Reduced to 36 k-points under symmetry. 
Computing the number of bands and number of electrons
Calculating initial fillings.
nElectrons: 208.000000   nBands: 208   nStates: 36   initial fillings:
2.000000000000000 2.000000000000000 2.000000000000000 2.000000000000000 2.000000000000000 2.000000000000000 2.000000000000000 2.000000000000000 2.000000000000000 2.000000000000000 2.000000000000000 2.000000000000000 2.000000000000000 2.000000000000000 2.000000000000000 2.000000000000000 2.000000000000000 2.000000000000000 2.000000000000000 2.000000000000000 2.000000000000000 2.000000000000000 2.000000000000000 2.000000000000000 2.000000000000000 2.000000000000000 2.000000000000000 2.000000000000000 2.000000000000000 2.000000000000000 2.000000000000000 2.000000000000000 2.000000000000000 2.000000000000000 2.000000000000000 2.000000000000000 2.000000000000000 2.000000000000000 2.000000000000000 2.000000000000000 2.000000000000000 2.000000000000000 2.000000000000000 2.000000000000000 2.000000000000000 2.000000000000000 2.000000000000000 2.000000000000000 2.000000000000000 2.000000000000000 2.000000000000000 2.000000000000000 2.000000000000000 2.000000000000000 2.000000000000000 2.000000000000000 2.000000000000000 2.000000000000000 2.000000000000000 2.000000000000000 2.000000000000000 2.000000000000000 2.000000000000000 2.000000000000000 2.000000000000000 2.000000000000000 2.000000000000000 2.000000000000000 2.000000000000000 2.000000000000000 2.000000000000000 2.000000000000000 2.000000000000000 2.000000000000000 2.000000000000000 2.000000000000000 2.000000000000000 2.000000000000000 2.000000000000000 2.000000000000000 2.000000000000000 2.000000000000000 2.000000000000000 2.000000000000000 2.000000000000000 2.000000000000000 2.000000000000000 2.000000000000000 2.000000000000000 2.000000000000000 2.000000000000000 2.000000000000000 2.000000000000000 2.000000000000000 2.000000000000000 2.000000000000000 2.000000000000000 2.000000000000000 2.000000000000000 2.000000000000000 2.000000000000000 2.000000000000000 2.000000000000000 2.000000000000000 0.000000000000000 0.000000000000000 0.000000000000000 0.000000000000000 0.000000000000000 0.000000000000000 0.000000000000000 0.000000000000000 0.000000000000000 0.000000000000000 0.000000000000000 0.000000000000000 0.000000000000000 0.000000000000000 0.000000000000000 0.000000000000000 0.000000000000000 0.000000000000000 0.000000000000000 0.000000000000000 0.000000000000000 0.000000000000000 0.000000000000000 0.000000000000000 0.000000000000000 0.000000000000000 0.000000000000000 0.000000000000000 0.000000000000000 0.000000000000000 0.000000000000000 0.000000000000000 0.000000000000000 0.000000000000000 0.000000000000000 0.000000000000000 0.000000000000000 0.000000000000000 0.000000000000000 0.000000000000000 0.000000000000000 0.000000000000000 0.000000000000000 0.000000000000000 0.000000000000000 0.000000000000000 0.000000000000000 0.000000000000000 0.000000000000000 0.000000000000000 0.000000000000000 0.000000000000000 0.000000000000000 0.000000000000000 0.000000000000000 0.000000000000000 0.000000000000000 0.000000000000000 0.000000000000000 0.000000000000000 0.000000000000000 0.000000000000000 0.000000000000000 0.000000000000000 0.000000000000000 0.000000000000000 0.000000000000000 0.000000000000000 0.000000000000000 0.000000000000000 0.000000000000000 0.000000000000000 0.000000000000000 0.000000000000000 0.000000000000000 0.000000000000000 0.000000000000000 0.000000000000000 0.000000000000000 0.000000000000000 0.000000000000000 0.000000000000000 0.000000000000000 0.000000000000000 0.000000000000000 0.000000000000000 0.000000000000000 0.000000000000000 0.000000000000000 0.000000000000000 0.000000000000000 0.000000000000000 0.000000000000000 0.000000000000000 0.000000000000000 0.000000000000000 0.000000000000000 0.000000000000000 0.000000000000000 0.000000000000000 0.000000000000000 0.000000000000000 0.000000000000000 0.000000000000000 
2.000000000000000 2.000000000000000 2.000000000000000 2.000000000000000 2.000000000000000 2.000000000000000 2.000000000000000 2.000000000000000 2.000000000000000 2.000000000000000 2.000000000000000 2.000000000000000 2.000000000000000 2.000000000000000 2.000000000000000 2.000000000000000 2.000000000000000 2.000000000000000 2.000000000000000 2.000000000000000 2.000000000000000 2.000000000000000 2.000000000000000 2.000000000000000 2.000000000000000 2.000000000000000 2.000000000000000 2.000000000000000 2.000000000000000 2.000000000000000 2.000000000000000 2.000000000000000 2.000000000000000 2.000000000000000 2.000000000000000 2.000000000000000 2.000000000000000 2.000000000000000 2.000000000000000 2.000000000000000 2.000000000000000 2.000000000000000 2.000000000000000 2.000000000000000 2.000000000000000 2.000000000000000 2.000000000000000 2.000000000000000 2.000000000000000 2.000000000000000 2.000000000000000 2.000000000000000 2.000000000000000 2.000000000000000 2.000000000000000 2.000000000000000 2.000000000000000 2.000000000000000 2.000000000000000 2.000000000000000 2.000000000000000 2.000000000000000 2.000000000000000 2.000000000000000 2.000000000000000 2.000000000000000 2.000000000000000 2.000000000000000 2.000000000000000 2.000000000000000 2.000000000000000 2.000000000000000 2.000000000000000 2.000000000000000 2.000000000000000 2.000000000000000 2.000000000000000 2.000000000000000 2.000000000000000 2.000000000000000 2.000000000000000 2.000000000000000 2.000000000000000 2.000000000000000 2.000000000000000 2.000000000000000 2.000000000000000 2.000000000000000 2.000000000000000 2.000000000000000 2.000000000000000 2.000000000000000 2.000000000000000 2.000000000000000 2.000000000000000 2.000000000000000 2.000000000000000 2.000000000000000 2.000000000000000 2.000000000000000 2.000000000000000 2.000000000000000 2.000000000000000 2.000000000000000 0.000000000000000 0.000000000000000 0.000000000000000 0.000000000000000 0.000000000000000 0.000000000000000 0.000000000000000 0.000000000000000 0.000000000000000 0.000000000000000 0.000000000000000 0.000000000000000 0.000000000000000 0.000000000000000 0.000000000000000 0.000000000000000 0.000000000000000 0.000000000000000 0.000000000000000 0.000000000000000 0.000000000000000 0.000000000000000 0.000000000000000 0.000000000000000 0.000000000000000 0.000000000000000 0.000000000000000 0.000000000000000 0.000000000000000 0.000000000000000 0.000000000000000 0.000000000000000 0.000000000000000 0.000000000000000 0.000000000000000 0.000000000000000 0.000000000000000 0.000000000000000 0.000000000000000 0.000000000000000 0.000000000000000 0.000000000000000 0.000000000000000 0.000000000000000 0.000000000000000 0.000000000000000 0.000000000000000 0.000000000000000 0.000000000000000 0.000000000000000 0.000000000000000 0.000000000000000 0.000000000000000 0.000000000000000 0.000000000000000 0.000000000000000 0.000000000000000 0.000000000000000 0.000000000000000 0.000000000000000 0.000000000000000 0.000000000000000 0.000000000000000 0.000000000000000 0.000000000000000 0.000000000000000 0.000000000000000 0.000000000000000 0.000000000000000 0.000000000000000 0.000000000000000 0.000000000000000 0.000000000000000 0.000000000000000 0.000000000000000 0.000000000000000 0.000000000000000 0.000000000000000 0.000000000000000 0.000000000000000 0.000000000000000 0.000000000000000 0.000000000000000 0.000000000000000 0.000000000000000 0.000000000000000 0.000000000000000 0.000000000000000 0.000000000000000 0.000000000000000 0.000000000000000 0.000000000000000 0.000000000000000 0.000000000000000 0.000000000000000 0.000000000000000 0.000000000000000 0.000000000000000 0.000000000000000 0.000000000000000 0.000000000000000 0.000000000000000 0.000000000000000 0.000000000000000 
2.000000000000000 2.000000000000000 2.000000000000000 2.000000000000000 2.000000000000000 2.000000000000000 2.000000000000000 2.000000000000000 2.000000000000000 2.000000000000000 2.000000000000000 2.000000000000000 2.000000000000000 2.000000000000000 2.000000000000000 2.000000000000000 2.000000000000000 2.000000000000000 2.000000000000000 2.000000000000000 2.000000000000000 2.000000000000000 2.000000000000000 2.000000000000000 2.000000000000000 2.000000000000000 2.000000000000000 2.000000000000000 2.000000000000000 2.000000000000000 2.000000000000000 2.000000000000000 2.000000000000000 2.000000000000000 2.000000000000000 2.000000000000000 2.000000000000000 2.000000000000000 2.000000000000000 2.000000000000000 2.000000000000000 2.000000000000000 2.000000000000000 2.000000000000000 2.000000000000000 2.000000000000000 2.000000000000000 2.000000000000000 2.000000000000000 2.000000000000000 2.000000000000000 2.000000000000000 2.000000000000000 2.000000000000000 2.000000000000000 2.000000000000000 2.000000000000000 2.000000000000000 2.000000000000000 2.000000000000000 2.000000000000000 2.000000000000000 2.000000000000000 2.000000000000000 2.000000000000000 2.000000000000000 2.000000000000000 2.000000000000000 2.000000000000000 2.000000000000000 2.000000000000000 2.000000000000000 2.000000000000000 2.000000000000000 2.000000000000000 2.000000000000000 2.000000000000000 2.000000000000000 2.000000000000000 2.000000000000000 2.000000000000000 2.000000000000000 2.000000000000000 2.000000000000000 2.000000000000000 2.000000000000000 2.000000000000000 2.000000000000000 2.000000000000000 2.000000000000000 2.000000000000000 2.000000000000000 2.000000000000000 2.000000000000000 2.000000000000000 2.000000000000000 2.000000000000000 2.000000000000000 2.000000000000000 2.000000000000000 2.000000000000000 2.000000000000000 2.000000000000000 2.000000000000000 0.000000000000000 0.000000000000000 0.000000000000000 0.000000000000000 0.000000000000000 0.000000000000000 0.000000000000000 0.000000000000000 0.000000000000000 0.000000000000000 0.000000000000000 0.000000000000000 0.000000000000000 0.000000000000000 0.000000000000000 0.000000000000000 0.000000000000000 0.000000000000000 0.000000000000000 0.000000000000000 0.000000000000000 0.000000000000000 0.000000000000000 0.000000000000000 0.000000000000000 0.000000000000000 0.000000000000000 0.000000000000000 0.000000000000000 0.000000000000000 0.000000000000000 0.000000000000000 0.000000000000000 0.000000000000000 0.000000000000000 0.000000000000000 0.000000000000000 0.000000000000000 0.000000000000000 0.000000000000000 0.000000000000000 0.000000000000000 0.000000000000000 0.000000000000000 0.000000000000000 0.000000000000000 0.000000000000000 0.000000000000000 0.000000000000000 0.000000000000000 0.000000000000000 0.000000000000000 0.000000000000000 0.000000000000000 0.000000000000000 0.000000000000000 0.000000000000000 0.000000000000000 0.000000000000000 0.000000000000000 0.000000000000000 0.000000000000000 0.000000000000000 0.000000000000000 0.000000000000000 0.000000000000000 0.000000000000000 0.000000000000000 0.000000000000000 0.000000000000000 0.000000000000000 0.000000000000000 0.000000000000000 0.000000000000000 0.000000000000000 0.000000000000000 0.000000000000000 0.000000000000000 0.000000000000000 0.000000000000000 0.000000000000000 0.000000000000000 0.000000000000000 0.000000000000000 0.000000000000000 0.000000000000000 0.000000000000000 0.000000000000000 0.000000000000000 0.000000000000000 0.000000000000000 0.000000000000000 0.000000000000000 0.000000000000000 0.000000000000000 0.000000000000000 0.000000000000000 0.000000000000000 0.000000000000000 0.000000000000000 0.000000000000000 0.000000000000000 0.000000000000000 0.000000000000000 
2.000000000000000 2.000000000000000 2.000000000000000 2.000000000000000 2.000000000000000 2.000000000000000 2.000000000000000 2.000000000000000 2.000000000000000 2.000000000000000 2.000000000000000 2.000000000000000 2.000000000000000 2.000000000000000 2.000000000000000 2.000000000000000 2.000000000000000 2.000000000000000 2.000000000000000 2.000000000000000 2.000000000000000 2.000000000000000 2.000000000000000 2.000000000000000 2.000000000000000 2.000000000000000 2.000000000000000 2.000000000000000 2.000000000000000 2.000000000000000 2.000000000000000 2.000000000000000 2.000000000000000 2.000000000000000 2.000000000000000 2.000000000000000 2.000000000000000 2.000000000000000 2.000000000000000 2.000000000000000 2.000000000000000 2.000000000000000 2.000000000000000 2.000000000000000 2.000000000000000 2.000000000000000 2.000000000000000 2.000000000000000 2.000000000000000 2.000000000000000 2.000000000000000 2.000000000000000 2.000000000000000 2.000000000000000 2.000000000000000 2.000000000000000 2.000000000000000 2.000000000000000 2.000000000000000 2.000000000000000 2.000000000000000 2.000000000000000 2.000000000000000 2.000000000000000 2.000000000000000 2.000000000000000 2.000000000000000 2.000000000000000 2.000000000000000 2.000000000000000 2.000000000000000 2.000000000000000 2.000000000000000 2.000000000000000 2.000000000000000 2.000000000000000 2.000000000000000 2.000000000000000 2.000000000000000 2.000000000000000 2.000000000000000 2.000000000000000 2.000000000000000 2.000000000000000 2.000000000000000 2.000000000000000 2.000000000000000 2.000000000000000 2.000000000000000 2.000000000000000 2.000000000000000 2.000000000000000 2.000000000000000 2.000000000000000 2.000000000000000 2.000000000000000 2.000000000000000 2.000000000000000 2.000000000000000 2.000000000000000 2.000000000000000 2.000000000000000 2.000000000000000 2.000000000000000 0.000000000000000 0.000000000000000 0.000000000000000 0.000000000000000 0.000000000000000 0.000000000000000 0.000000000000000 0.000000000000000 0.000000000000000 0.000000000000000 0.000000000000000 0.000000000000000 0.000000000000000 0.000000000000000 0.000000000000000 0.000000000000000 0.000000000000000 0.000000000000000 0.000000000000000 0.000000000000000 0.000000000000000 0.000000000000000 0.000000000000000 0.000000000000000 0.000000000000000 0.000000000000000 0.000000000000000 0.000000000000000 0.000000000000000 0.000000000000000 0.000000000000000 0.000000000000000 0.000000000000000 0.000000000000000 0.000000000000000 0.000000000000000 0.000000000000000 0.000000000000000 0.000000000000000 0.000000000000000 0.000000000000000 0.000000000000000 0.000000000000000 0.000000000000000 0.000000000000000 0.000000000000000 0.000000000000000 0.000000000000000 0.000000000000000 0.000000000000000 0.000000000000000 0.000000000000000 0.000000000000000 0.000000000000000 0.000000000000000 0.000000000000000 0.000000000000000 0.000000000000000 0.000000000000000 0.000000000000000 0.000000000000000 0.000000000000000 0.000000000000000 0.000000000000000 0.000000000000000 0.000000000000000 0.000000000000000 0.000000000000000 0.000000000000000 0.000000000000000 0.000000000000000 0.000000000000000 0.000000000000000 0.000000000000000 0.000000000000000 0.000000000000000 0.000000000000000 0.000000000000000 0.000000000000000 0.000000000000000 0.000000000000000 0.000000000000000 0.000000000000000 0.000000000000000 0.000000000000000 0.000000000000000 0.000000000000000 0.000000000000000 0.000000000000000 0.000000000000000 0.000000000000000 0.000000000000000 0.000000000000000 0.000000000000000 0.000000000000000 0.000000000000000 0.000000000000000 0.000000000000000 0.000000000000000 0.000000000000000 0.000000000000000 0.000000000000000 0.000000000000000 0.000000000000000 
2.000000000000000 2.000000000000000 2.000000000000000 2.000000000000000 2.000000000000000 2.000000000000000 2.000000000000000 2.000000000000000 2.000000000000000 2.000000000000000 2.000000000000000 2.000000000000000 2.000000000000000 2.000000000000000 2.000000000000000 2.000000000000000 2.000000000000000 2.000000000000000 2.000000000000000 2.000000000000000 2.000000000000000 2.000000000000000 2.000000000000000 2.000000000000000 2.000000000000000 2.000000000000000 2.000000000000000 2.000000000000000 2.000000000000000 2.000000000000000 2.000000000000000 2.000000000000000 2.000000000000000 2.000000000000000 2.000000000000000 2.000000000000000 2.000000000000000 2.000000000000000 2.000000000000000 2.000000000000000 2.000000000000000 2.000000000000000 2.000000000000000 2.000000000000000 2.000000000000000 2.000000000000000 2.000000000000000 2.000000000000000 2.000000000000000 2.000000000000000 2.000000000000000 2.000000000000000 2.000000000000000 2.000000000000000 2.000000000000000 2.000000000000000 2.000000000000000 2.000000000000000 2.000000000000000 2.000000000000000 2.000000000000000 2.000000000000000 2.000000000000000 2.000000000000000 2.000000000000000 2.000000000000000 2.000000000000000 2.000000000000000 2.000000000000000 2.000000000000000 2.000000000000000 2.000000000000000 2.000000000000000 2.000000000000000 2.000000000000000 2.000000000000000 2.000000000000000 2.000000000000000 2.000000000000000 2.000000000000000 2.000000000000000 2.000000000000000 2.000000000000000 2.000000000000000 2.000000000000000 2.000000000000000 2.000000000000000 2.000000000000000 2.000000000000000 2.000000000000000 2.000000000000000 2.000000000000000 2.000000000000000 2.000000000000000 2.000000000000000 2.000000000000000 2.000000000000000 2.000000000000000 2.000000000000000 2.000000000000000 2.000000000000000 2.000000000000000 2.000000000000000 2.000000000000000 0.000000000000000 0.000000000000000 0.000000000000000 0.000000000000000 0.000000000000000 0.000000000000000 0.000000000000000 0.000000000000000 0.000000000000000 0.000000000000000 0.000000000000000 0.000000000000000 0.000000000000000 0.000000000000000 0.000000000000000 0.000000000000000 0.000000000000000 0.000000000000000 0.000000000000000 0.000000000000000 0.000000000000000 0.000000000000000 0.000000000000000 0.000000000000000 0.000000000000000 0.000000000000000 0.000000000000000 0.000000000000000 0.000000000000000 0.000000000000000 0.000000000000000 0.000000000000000 0.000000000000000 0.000000000000000 0.000000000000000 0.000000000000000 0.000000000000000 0.000000000000000 0.000000000000000 0.000000000000000 0.000000000000000 0.000000000000000 0.000000000000000 0.000000000000000 0.000000000000000 0.000000000000000 0.000000000000000 0.000000000000000 0.000000000000000 0.000000000000000 0.000000000000000 0.000000000000000 0.000000000000000 0.000000000000000 0.000000000000000 0.000000000000000 0.000000000000000 0.000000000000000 0.000000000000000 0.000000000000000 0.000000000000000 0.000000000000000 0.000000000000000 0.000000000000000 0.000000000000000 0.000000000000000 0.000000000000000 0.000000000000000 0.000000000000000 0.000000000000000 0.000000000000000 0.000000000000000 0.000000000000000 0.000000000000000 0.000000000000000 0.000000000000000 0.000000000000000 0.000000000000000 0.000000000000000 0.000000000000000 0.000000000000000 0.000000000000000 0.000000000000000 0.000000000000000 0.000000000000000 0.000000000000000 0.000000000000000 0.000000000000000 0.000000000000000 0.000000000000000 0.000000000000000 0.000000000000000 0.000000000000000 0.000000000000000 0.000000000000000 0.000000000000000 0.000000000000000 0.000000000000000 0.000000000000000 0.000000000000000 0.000000000000000 0.000000000000000 0.000000000000000 0.000000000000000 
2.000000000000000 2.000000000000000 2.000000000000000 2.000000000000000 2.000000000000000 2.000000000000000 2.000000000000000 2.000000000000000 2.000000000000000 2.000000000000000 2.000000000000000 2.000000000000000 2.000000000000000 2.000000000000000 2.000000000000000 2.000000000000000 2.000000000000000 2.000000000000000 2.000000000000000 2.000000000000000 2.000000000000000 2.000000000000000 2.000000000000000 2.000000000000000 2.000000000000000 2.000000000000000 2.000000000000000 2.000000000000000 2.000000000000000 2.000000000000000 2.000000000000000 2.000000000000000 2.000000000000000 2.000000000000000 2.000000000000000 2.000000000000000 2.000000000000000 2.000000000000000 2.000000000000000 2.000000000000000 2.000000000000000 2.000000000000000 2.000000000000000 2.000000000000000 2.000000000000000 2.000000000000000 2.000000000000000 2.000000000000000 2.000000000000000 2.000000000000000 2.000000000000000 2.000000000000000 2.000000000000000 2.000000000000000 2.000000000000000 2.000000000000000 2.000000000000000 2.000000000000000 2.000000000000000 2.000000000000000 2.000000000000000 2.000000000000000 2.000000000000000 2.000000000000000 2.000000000000000 2.000000000000000 2.000000000000000 2.000000000000000 2.000000000000000 2.000000000000000 2.000000000000000 2.000000000000000 2.000000000000000 2.000000000000000 2.000000000000000 2.000000000000000 2.000000000000000 2.000000000000000 2.000000000000000 2.000000000000000 2.000000000000000 2.000000000000000 2.000000000000000 2.000000000000000 2.000000000000000 2.000000000000000 2.000000000000000 2.000000000000000 2.000000000000000 2.000000000000000 2.000000000000000 2.000000000000000 2.000000000000000 2.000000000000000 2.000000000000000 2.000000000000000 2.000000000000000 2.000000000000000 2.000000000000000 2.000000000000000 2.000000000000000 2.000000000000000 2.000000000000000 2.000000000000000 0.000000000000000 0.000000000000000 0.000000000000000 0.000000000000000 0.000000000000000 0.000000000000000 0.000000000000000 0.000000000000000 0.000000000000000 0.000000000000000 0.000000000000000 0.000000000000000 0.000000000000000 0.000000000000000 0.000000000000000 0.000000000000000 0.000000000000000 0.000000000000000 0.000000000000000 0.000000000000000 0.000000000000000 0.000000000000000 0.000000000000000 0.000000000000000 0.000000000000000 0.000000000000000 0.000000000000000 0.000000000000000 0.000000000000000 0.000000000000000 0.000000000000000 0.000000000000000 0.000000000000000 0.000000000000000 0.000000000000000 0.000000000000000 0.000000000000000 0.000000000000000 0.000000000000000 0.000000000000000 0.000000000000000 0.000000000000000 0.000000000000000 0.000000000000000 0.000000000000000 0.000000000000000 0.000000000000000 0.000000000000000 0.000000000000000 0.000000000000000 0.000000000000000 0.000000000000000 0.000000000000000 0.000000000000000 0.000000000000000 0.000000000000000 0.000000000000000 0.000000000000000 0.000000000000000 0.000000000000000 0.000000000000000 0.000000000000000 0.000000000000000 0.000000000000000 0.000000000000000 0.000000000000000 0.000000000000000 0.000000000000000 0.000000000000000 0.000000000000000 0.000000000000000 0.000000000000000 0.000000000000000 0.000000000000000 0.000000000000000 0.000000000000000 0.000000000000000 0.000000000000000 0.000000000000000 0.000000000000000 0.000000000000000 0.000000000000000 0.000000000000000 0.000000000000000 0.000000000000000 0.000000000000000 0.000000000000000 0.000000000000000 0.000000000000000 0.000000000000000 0.000000000000000 0.000000000000000 0.000000000000000 0.000000000000000 0.000000000000000 0.000000000000000 0.000000000000000 0.000000000000000 0.000000000000000 0.000000000000000 0.000000000000000 0.000000000000000 0.000000000000000 0.000000000000000 
2.000000000000000 2.000000000000000 2.000000000000000 2.000000000000000 2.000000000000000 2.000000000000000 2.000000000000000 2.000000000000000 2.000000000000000 2.000000000000000 2.000000000000000 2.000000000000000 2.000000000000000 2.000000000000000 2.000000000000000 2.000000000000000 2.000000000000000 2.000000000000000 2.000000000000000 2.000000000000000 2.000000000000000 2.000000000000000 2.000000000000000 2.000000000000000 2.000000000000000 2.000000000000000 2.000000000000000 2.000000000000000 2.000000000000000 2.000000000000000 2.000000000000000 2.000000000000000 2.000000000000000 2.000000000000000 2.000000000000000 2.000000000000000 2.000000000000000 2.000000000000000 2.000000000000000 2.000000000000000 2.000000000000000 2.000000000000000 2.000000000000000 2.000000000000000 2.000000000000000 2.000000000000000 2.000000000000000 2.000000000000000 2.000000000000000 2.000000000000000 2.000000000000000 2.000000000000000 2.000000000000000 2.000000000000000 2.000000000000000 2.000000000000000 2.000000000000000 2.000000000000000 2.000000000000000 2.000000000000000 2.000000000000000 2.000000000000000 2.000000000000000 2.000000000000000 2.000000000000000 2.000000000000000 2.000000000000000 2.000000000000000 2.000000000000000 2.000000000000000 2.000000000000000 2.000000000000000 2.000000000000000 2.000000000000000 2.000000000000000 2.000000000000000 2.000000000000000 2.000000000000000 2.000000000000000 2.000000000000000 2.000000000000000 2.000000000000000 2.000000000000000 2.000000000000000 2.000000000000000 2.000000000000000 2.000000000000000 2.000000000000000 2.000000000000000 2.000000000000000 2.000000000000000 2.000000000000000 2.000000000000000 2.000000000000000 2.000000000000000 2.000000000000000 2.000000000000000 2.000000000000000 2.000000000000000 2.000000000000000 2.000000000000000 2.000000000000000 2.000000000000000 2.000000000000000 0.000000000000000 0.000000000000000 0.000000000000000 0.000000000000000 0.000000000000000 0.000000000000000 0.000000000000000 0.000000000000000 0.000000000000000 0.000000000000000 0.000000000000000 0.000000000000000 0.000000000000000 0.000000000000000 0.000000000000000 0.000000000000000 0.000000000000000 0.000000000000000 0.000000000000000 0.000000000000000 0.000000000000000 0.000000000000000 0.000000000000000 0.000000000000000 0.000000000000000 0.000000000000000 0.000000000000000 0.000000000000000 0.000000000000000 0.000000000000000 0.000000000000000 0.000000000000000 0.000000000000000 0.000000000000000 0.000000000000000 0.000000000000000 0.000000000000000 0.000000000000000 0.000000000000000 0.000000000000000 0.000000000000000 0.000000000000000 0.000000000000000 0.000000000000000 0.000000000000000 0.000000000000000 0.000000000000000 0.000000000000000 0.000000000000000 0.000000000000000 0.000000000000000 0.000000000000000 0.000000000000000 0.000000000000000 0.000000000000000 0.000000000000000 0.000000000000000 0.000000000000000 0.000000000000000 0.000000000000000 0.000000000000000 0.000000000000000 0.000000000000000 0.000000000000000 0.000000000000000 0.000000000000000 0.000000000000000 0.000000000000000 0.000000000000000 0.000000000000000 0.000000000000000 0.000000000000000 0.000000000000000 0.000000000000000 0.000000000000000 0.000000000000000 0.000000000000000 0.000000000000000 0.000000000000000 0.000000000000000 0.000000000000000 0.000000000000000 0.000000000000000 0.000000000000000 0.000000000000000 0.000000000000000 0.000000000000000 0.000000000000000 0.000000000000000 0.000000000000000 0.000000000000000 0.000000000000000 0.000000000000000 0.000000000000000 0.000000000000000 0.000000000000000 0.000000000000000 0.000000000000000 0.000000000000000 0.000000000000000 0.000000000000000 0.000000000000000 0.000000000000000 0.000000000000000 
2.000000000000000 2.000000000000000 2.000000000000000 2.000000000000000 2.000000000000000 2.000000000000000 2.000000000000000 2.000000000000000 2.000000000000000 2.000000000000000 2.000000000000000 2.000000000000000 2.000000000000000 2.000000000000000 2.000000000000000 2.000000000000000 2.000000000000000 2.000000000000000 2.000000000000000 2.000000000000000 2.000000000000000 2.000000000000000 2.000000000000000 2.000000000000000 2.000000000000000 2.000000000000000 2.000000000000000 2.000000000000000 2.000000000000000 2.000000000000000 2.000000000000000 2.000000000000000 2.000000000000000 2.000000000000000 2.000000000000000 2.000000000000000 2.000000000000000 2.000000000000000 2.000000000000000 2.000000000000000 2.000000000000000 2.000000000000000 2.000000000000000 2.000000000000000 2.000000000000000 2.000000000000000 2.000000000000000 2.000000000000000 2.000000000000000 2.000000000000000 2.000000000000000 2.000000000000000 2.000000000000000 2.000000000000000 2.000000000000000 2.000000000000000 2.000000000000000 2.000000000000000 2.000000000000000 2.000000000000000 2.000000000000000 2.000000000000000 2.000000000000000 2.000000000000000 2.000000000000000 2.000000000000000 2.000000000000000 2.000000000000000 2.000000000000000 2.000000000000000 2.000000000000000 2.000000000000000 2.000000000000000 2.000000000000000 2.000000000000000 2.000000000000000 2.000000000000000 2.000000000000000 2.000000000000000 2.000000000000000 2.000000000000000 2.000000000000000 2.000000000000000 2.000000000000000 2.000000000000000 2.000000000000000 2.000000000000000 2.000000000000000 2.000000000000000 2.000000000000000 2.000000000000000 2.000000000000000 2.000000000000000 2.000000000000000 2.000000000000000 2.000000000000000 2.000000000000000 2.000000000000000 2.000000000000000 2.000000000000000 2.000000000000000 2.000000000000000 2.000000000000000 2.000000000000000 0.000000000000000 0.000000000000000 0.000000000000000 0.000000000000000 0.000000000000000 0.000000000000000 0.000000000000000 0.000000000000000 0.000000000000000 0.000000000000000 0.000000000000000 0.000000000000000 0.000000000000000 0.000000000000000 0.000000000000000 0.000000000000000 0.000000000000000 0.000000000000000 0.000000000000000 0.000000000000000 0.000000000000000 0.000000000000000 0.000000000000000 0.000000000000000 0.000000000000000 0.000000000000000 0.000000000000000 0.000000000000000 0.000000000000000 0.000000000000000 0.000000000000000 0.000000000000000 0.000000000000000 0.000000000000000 0.000000000000000 0.000000000000000 0.000000000000000 0.000000000000000 0.000000000000000 0.000000000000000 0.000000000000000 0.000000000000000 0.000000000000000 0.000000000000000 0.000000000000000 0.000000000000000 0.000000000000000 0.000000000000000 0.000000000000000 0.000000000000000 0.000000000000000 0.000000000000000 0.000000000000000 0.000000000000000 0.000000000000000 0.000000000000000 0.000000000000000 0.000000000000000 0.000000000000000 0.000000000000000 0.000000000000000 0.000000000000000 0.000000000000000 0.000000000000000 0.000000000000000 0.000000000000000 0.000000000000000 0.000000000000000 0.000000000000000 0.000000000000000 0.000000000000000 0.000000000000000 0.000000000000000 0.000000000000000 0.000000000000000 0.000000000000000 0.000000000000000 0.000000000000000 0.000000000000000 0.000000000000000 0.000000000000000 0.000000000000000 0.000000000000000 0.000000000000000 0.000000000000000 0.000000000000000 0.000000000000000 0.000000000000000 0.000000000000000 0.000000000000000 0.000000000000000 0.000000000000000 0.000000000000000 0.000000000000000 0.000000000000000 0.000000000000000 0.000000000000000 0.000000000000000 0.000000000000000 0.000000000000000 0.000000000000000 0.000000000000000 0.000000000000000 0.000000000000000 
2.000000000000000 2.000000000000000 2.000000000000000 2.000000000000000 2.000000000000000 2.000000000000000 2.000000000000000 2.000000000000000 2.000000000000000 2.000000000000000 2.000000000000000 2.000000000000000 2.000000000000000 2.000000000000000 2.000000000000000 2.000000000000000 2.000000000000000 2.000000000000000 2.000000000000000 2.000000000000000 2.000000000000000 2.000000000000000 2.000000000000000 2.000000000000000 2.000000000000000 2.000000000000000 2.000000000000000 2.000000000000000 2.000000000000000 2.000000000000000 2.000000000000000 2.000000000000000 2.000000000000000 2.000000000000000 2.000000000000000 2.000000000000000 2.000000000000000 2.000000000000000 2.000000000000000 2.000000000000000 2.000000000000000 2.000000000000000 2.000000000000000 2.000000000000000 2.000000000000000 2.000000000000000 2.000000000000000 2.000000000000000 2.000000000000000 2.000000000000000 2.000000000000000 2.000000000000000 2.000000000000000 2.000000000000000 2.000000000000000 2.000000000000000 2.000000000000000 2.000000000000000 2.000000000000000 2.000000000000000 2.000000000000000 2.000000000000000 2.000000000000000 2.000000000000000 2.000000000000000 2.000000000000000 2.000000000000000 2.000000000000000 2.000000000000000 2.000000000000000 2.000000000000000 2.000000000000000 2.000000000000000 2.000000000000000 2.000000000000000 2.000000000000000 2.000000000000000 2.000000000000000 2.000000000000000 2.000000000000000 2.000000000000000 2.000000000000000 2.000000000000000 2.000000000000000 2.000000000000000 2.000000000000000 2.000000000000000 2.000000000000000 2.000000000000000 2.000000000000000 2.000000000000000 2.000000000000000 2.000000000000000 2.000000000000000 2.000000000000000 2.000000000000000 2.000000000000000 2.000000000000000 2.000000000000000 2.000000000000000 2.000000000000000 2.000000000000000 2.000000000000000 2.000000000000000 0.000000000000000 0.000000000000000 0.000000000000000 0.000000000000000 0.000000000000000 0.000000000000000 0.000000000000000 0.000000000000000 0.000000000000000 0.000000000000000 0.000000000000000 0.000000000000000 0.000000000000000 0.000000000000000 0.000000000000000 0.000000000000000 0.000000000000000 0.000000000000000 0.000000000000000 0.000000000000000 0.000000000000000 0.000000000000000 0.000000000000000 0.000000000000000 0.000000000000000 0.000000000000000 0.000000000000000 0.000000000000000 0.000000000000000 0.000000000000000 0.000000000000000 0.000000000000000 0.000000000000000 0.000000000000000 0.000000000000000 0.000000000000000 0.000000000000000 0.000000000000000 0.000000000000000 0.000000000000000 0.000000000000000 0.000000000000000 0.000000000000000 0.000000000000000 0.000000000000000 0.000000000000000 0.000000000000000 0.000000000000000 0.000000000000000 0.000000000000000 0.000000000000000 0.000000000000000 0.000000000000000 0.000000000000000 0.000000000000000 0.000000000000000 0.000000000000000 0.000000000000000 0.000000000000000 0.000000000000000 0.000000000000000 0.000000000000000 0.000000000000000 0.000000000000000 0.000000000000000 0.000000000000000 0.000000000000000 0.000000000000000 0.000000000000000 0.000000000000000 0.000000000000000 0.000000000000000 0.000000000000000 0.000000000000000 0.000000000000000 0.000000000000000 0.000000000000000 0.000000000000000 0.000000000000000 0.000000000000000 0.000000000000000 0.000000000000000 0.000000000000000 0.000000000000000 0.000000000000000 0.000000000000000 0.000000000000000 0.000000000000000 0.000000000000000 0.000000000000000 0.000000000000000 0.000000000000000 0.000000000000000 0.000000000000000 0.000000000000000 0.000000000000000 0.000000000000000 0.000000000000000 0.000000000000000 0.000000000000000 0.000000000000000 0.000000000000000 0.000000000000000 0.000000000000000 
2.000000000000000 2.000000000000000 2.000000000000000 2.000000000000000 2.000000000000000 2.000000000000000 2.000000000000000 2.000000000000000 2.000000000000000 2.000000000000000 2.000000000000000 2.000000000000000 2.000000000000000 2.000000000000000 2.000000000000000 2.000000000000000 2.000000000000000 2.000000000000000 2.000000000000000 2.000000000000000 2.000000000000000 2.000000000000000 2.000000000000000 2.000000000000000 2.000000000000000 2.000000000000000 2.000000000000000 2.000000000000000 2.000000000000000 2.000000000000000 2.000000000000000 2.000000000000000 2.000000000000000 2.000000000000000 2.000000000000000 2.000000000000000 2.000000000000000 2.000000000000000 2.000000000000000 2.000000000000000 2.000000000000000 2.000000000000000 2.000000000000000 2.000000000000000 2.000000000000000 2.000000000000000 2.000000000000000 2.000000000000000 2.000000000000000 2.000000000000000 2.000000000000000 2.000000000000000 2.000000000000000 2.000000000000000 2.000000000000000 2.000000000000000 2.000000000000000 2.000000000000000 2.000000000000000 2.000000000000000 2.000000000000000 2.000000000000000 2.000000000000000 2.000000000000000 2.000000000000000 2.000000000000000 2.000000000000000 2.000000000000000 2.000000000000000 2.000000000000000 2.000000000000000 2.000000000000000 2.000000000000000 2.000000000000000 2.000000000000000 2.000000000000000 2.000000000000000 2.000000000000000 2.000000000000000 2.000000000000000 2.000000000000000 2.000000000000000 2.000000000000000 2.000000000000000 2.000000000000000 2.000000000000000 2.000000000000000 2.000000000000000 2.000000000000000 2.000000000000000 2.000000000000000 2.000000000000000 2.000000000000000 2.000000000000000 2.000000000000000 2.000000000000000 2.000000000000000 2.000000000000000 2.000000000000000 2.000000000000000 2.000000000000000 2.000000000000000 2.000000000000000 2.000000000000000 0.000000000000000 0.000000000000000 0.000000000000000 0.000000000000000 0.000000000000000 0.000000000000000 0.000000000000000 0.000000000000000 0.000000000000000 0.000000000000000 0.000000000000000 0.000000000000000 0.000000000000000 0.000000000000000 0.000000000000000 0.000000000000000 0.000000000000000 0.000000000000000 0.000000000000000 0.000000000000000 0.000000000000000 0.000000000000000 0.000000000000000 0.000000000000000 0.000000000000000 0.000000000000000 0.000000000000000 0.000000000000000 0.000000000000000 0.000000000000000 0.000000000000000 0.000000000000000 0.000000000000000 0.000000000000000 0.000000000000000 0.000000000000000 0.000000000000000 0.000000000000000 0.000000000000000 0.000000000000000 0.000000000000000 0.000000000000000 0.000000000000000 0.000000000000000 0.000000000000000 0.000000000000000 0.000000000000000 0.000000000000000 0.000000000000000 0.000000000000000 0.000000000000000 0.000000000000000 0.000000000000000 0.000000000000000 0.000000000000000 0.000000000000000 0.000000000000000 0.000000000000000 0.000000000000000 0.000000000000000 0.000000000000000 0.000000000000000 0.000000000000000 0.000000000000000 0.000000000000000 0.000000000000000 0.000000000000000 0.000000000000000 0.000000000000000 0.000000000000000 0.000000000000000 0.000000000000000 0.000000000000000 0.000000000000000 0.000000000000000 0.000000000000000 0.000000000000000 0.000000000000000 0.000000000000000 0.000000000000000 0.000000000000000 0.000000000000000 0.000000000000000 0.000000000000000 0.000000000000000 0.000000000000000 0.000000000000000 0.000000000000000 0.000000000000000 0.000000000000000 0.000000000000000 0.000000000000000 0.000000000000000 0.000000000000000 0.000000000000000 0.000000000000000 0.000000000000000 0.000000000000000 0.000000000000000 0.000000000000000 0.000000000000000 0.000000000000000 0.000000000000000 0.000000000000000 
2.000000000000000 2.000000000000000 2.000000000000000 2.000000000000000 2.000000000000000 2.000000000000000 2.000000000000000 2.000000000000000 2.000000000000000 2.000000000000000 2.000000000000000 2.000000000000000 2.000000000000000 2.000000000000000 2.000000000000000 2.000000000000000 2.000000000000000 2.000000000000000 2.000000000000000 2.000000000000000 2.000000000000000 2.000000000000000 2.000000000000000 2.000000000000000 2.000000000000000 2.000000000000000 2.000000000000000 2.000000000000000 2.000000000000000 2.000000000000000 2.000000000000000 2.000000000000000 2.000000000000000 2.000000000000000 2.000000000000000 2.000000000000000 2.000000000000000 2.000000000000000 2.000000000000000 2.000000000000000 2.000000000000000 2.000000000000000 2.000000000000000 2.000000000000000 2.000000000000000 2.000000000000000 2.000000000000000 2.000000000000000 2.000000000000000 2.000000000000000 2.000000000000000 2.000000000000000 2.000000000000000 2.000000000000000 2.000000000000000 2.000000000000000 2.000000000000000 2.000000000000000 2.000000000000000 2.000000000000000 2.000000000000000 2.000000000000000 2.000000000000000 2.000000000000000 2.000000000000000 2.000000000000000 2.000000000000000 2.000000000000000 2.000000000000000 2.000000000000000 2.000000000000000 2.000000000000000 2.000000000000000 2.000000000000000 2.000000000000000 2.000000000000000 2.000000000000000 2.000000000000000 2.000000000000000 2.000000000000000 2.000000000000000 2.000000000000000 2.000000000000000 2.000000000000000 2.000000000000000 2.000000000000000 2.000000000000000 2.000000000000000 2.000000000000000 2.000000000000000 2.000000000000000 2.000000000000000 2.000000000000000 2.000000000000000 2.000000000000000 2.000000000000000 2.000000000000000 2.000000000000000 2.000000000000000 2.000000000000000 2.000000000000000 2.000000000000000 2.000000000000000 2.000000000000000 0.000000000000000 0.000000000000000 0.000000000000000 0.000000000000000 0.000000000000000 0.000000000000000 0.000000000000000 0.000000000000000 0.000000000000000 0.000000000000000 0.000000000000000 0.000000000000000 0.000000000000000 0.000000000000000 0.000000000000000 0.000000000000000 0.000000000000000 0.000000000000000 0.000000000000000 0.000000000000000 0.000000000000000 0.000000000000000 0.000000000000000 0.000000000000000 0.000000000000000 0.000000000000000 0.000000000000000 0.000000000000000 0.000000000000000 0.000000000000000 0.000000000000000 0.000000000000000 0.000000000000000 0.000000000000000 0.000000000000000 0.000000000000000 0.000000000000000 0.000000000000000 0.000000000000000 0.000000000000000 0.000000000000000 0.000000000000000 0.000000000000000 0.000000000000000 0.000000000000000 0.000000000000000 0.000000000000000 0.000000000000000 0.000000000000000 0.000000000000000 0.000000000000000 0.000000000000000 0.000000000000000 0.000000000000000 0.000000000000000 0.000000000000000 0.000000000000000 0.000000000000000 0.000000000000000 0.000000000000000 0.000000000000000 0.000000000000000 0.000000000000000 0.000000000000000 0.000000000000000 0.000000000000000 0.000000000000000 0.000000000000000 0.000000000000000 0.000000000000000 0.000000000000000 0.000000000000000 0.000000000000000 0.000000000000000 0.000000000000000 0.000000000000000 0.000000000000000 0.000000000000000 0.000000000000000 0.000000000000000 0.000000000000000 0.000000000000000 0.000000000000000 0.000000000000000 0.000000000000000 0.000000000000000 0.000000000000000 0.000000000000000 0.000000000000000 0.000000000000000 0.000000000000000 0.000000000000000 0.000000000000000 0.000000000000000 0.000000000000000 0.000000000000000 0.000000000000000 0.000000000000000 0.000000000000000 0.000000000000000 0.000000000000000 0.000000000000000 0.000000000000000 0.000000000000000 
2.000000000000000 2.000000000000000 2.000000000000000 2.000000000000000 2.000000000000000 2.000000000000000 2.000000000000000 2.000000000000000 2.000000000000000 2.000000000000000 2.000000000000000 2.000000000000000 2.000000000000000 2.000000000000000 2.000000000000000 2.000000000000000 2.000000000000000 2.000000000000000 2.000000000000000 2.000000000000000 2.000000000000000 2.000000000000000 2.000000000000000 2.000000000000000 2.000000000000000 2.000000000000000 2.000000000000000 2.000000000000000 2.000000000000000 2.000000000000000 2.000000000000000 2.000000000000000 2.000000000000000 2.000000000000000 2.000000000000000 2.000000000000000 2.000000000000000 2.000000000000000 2.000000000000000 2.000000000000000 2.000000000000000 2.000000000000000 2.000000000000000 2.000000000000000 2.000000000000000 2.000000000000000 2.000000000000000 2.000000000000000 2.000000000000000 2.000000000000000 2.000000000000000 2.000000000000000 2.000000000000000 2.000000000000000 2.000000000000000 2.000000000000000 2.000000000000000 2.000000000000000 2.000000000000000 2.000000000000000 2.000000000000000 2.000000000000000 2.000000000000000 2.000000000000000 2.000000000000000 2.000000000000000 2.000000000000000 2.000000000000000 2.000000000000000 2.000000000000000 2.000000000000000 2.000000000000000 2.000000000000000 2.000000000000000 2.000000000000000 2.000000000000000 2.000000000000000 2.000000000000000 2.000000000000000 2.000000000000000 2.000000000000000 2.000000000000000 2.000000000000000 2.000000000000000 2.000000000000000 2.000000000000000 2.000000000000000 2.000000000000000 2.000000000000000 2.000000000000000 2.000000000000000 2.000000000000000 2.000000000000000 2.000000000000000 2.000000000000000 2.000000000000000 2.000000000000000 2.000000000000000 2.000000000000000 2.000000000000000 2.000000000000000 2.000000000000000 2.000000000000000 2.000000000000000 0.000000000000000 0.000000000000000 0.000000000000000 0.000000000000000 0.000000000000000 0.000000000000000 0.000000000000000 0.000000000000000 0.000000000000000 0.000000000000000 0.000000000000000 0.000000000000000 0.000000000000000 0.000000000000000 0.000000000000000 0.000000000000000 0.000000000000000 0.000000000000000 0.000000000000000 0.000000000000000 0.000000000000000 0.000000000000000 0.000000000000000 0.000000000000000 0.000000000000000 0.000000000000000 0.000000000000000 0.000000000000000 0.000000000000000 0.000000000000000 0.000000000000000 0.000000000000000 0.000000000000000 0.000000000000000 0.000000000000000 0.000000000000000 0.000000000000000 0.000000000000000 0.000000000000000 0.000000000000000 0.000000000000000 0.000000000000000 0.000000000000000 0.000000000000000 0.000000000000000 0.000000000000000 0.000000000000000 0.000000000000000 0.000000000000000 0.000000000000000 0.000000000000000 0.000000000000000 0.000000000000000 0.000000000000000 0.000000000000000 0.000000000000000 0.000000000000000 0.000000000000000 0.000000000000000 0.000000000000000 0.000000000000000 0.000000000000000 0.000000000000000 0.000000000000000 0.000000000000000 0.000000000000000 0.000000000000000 0.000000000000000 0.000000000000000 0.000000000000000 0.000000000000000 0.000000000000000 0.000000000000000 0.000000000000000 0.000000000000000 0.000000000000000 0.000000000000000 0.000000000000000 0.000000000000000 0.000000000000000 0.000000000000000 0.000000000000000 0.000000000000000 0.000000000000000 0.000000000000000 0.000000000000000 0.000000000000000 0.000000000000000 0.000000000000000 0.000000000000000 0.000000000000000 0.000000000000000 0.000000000000000 0.000000000000000 0.000000000000000 0.000000000000000 0.000000000000000 0.000000000000000 0.000000000000000 0.000000000000000 0.000000000000000 0.000000000000000 0.000000000000000 0.000000000000000 
2.000000000000000 2.000000000000000 2.000000000000000 2.000000000000000 2.000000000000000 2.000000000000000 2.000000000000000 2.000000000000000 2.000000000000000 2.000000000000000 2.000000000000000 2.000000000000000 2.000000000000000 2.000000000000000 2.000000000000000 2.000000000000000 2.000000000000000 2.000000000000000 2.000000000000000 2.000000000000000 2.000000000000000 2.000000000000000 2.000000000000000 2.000000000000000 2.000000000000000 2.000000000000000 2.000000000000000 2.000000000000000 2.000000000000000 2.000000000000000 2.000000000000000 2.000000000000000 2.000000000000000 2.000000000000000 2.000000000000000 2.000000000000000 2.000000000000000 2.000000000000000 2.000000000000000 2.000000000000000 2.000000000000000 2.000000000000000 2.000000000000000 2.000000000000000 2.000000000000000 2.000000000000000 2.000000000000000 2.000000000000000 2.000000000000000 2.000000000000000 2.000000000000000 2.000000000000000 2.000000000000000 2.000000000000000 2.000000000000000 2.000000000000000 2.000000000000000 2.000000000000000 2.000000000000000 2.000000000000000 2.000000000000000 2.000000000000000 2.000000000000000 2.000000000000000 2.000000000000000 2.000000000000000 2.000000000000000 2.000000000000000 2.000000000000000 2.000000000000000 2.000000000000000 2.000000000000000 2.000000000000000 2.000000000000000 2.000000000000000 2.000000000000000 2.000000000000000 2.000000000000000 2.000000000000000 2.000000000000000 2.000000000000000 2.000000000000000 2.000000000000000 2.000000000000000 2.000000000000000 2.000000000000000 2.000000000000000 2.000000000000000 2.000000000000000 2.000000000000000 2.000000000000000 2.000000000000000 2.000000000000000 2.000000000000000 2.000000000000000 2.000000000000000 2.000000000000000 2.000000000000000 2.000000000000000 2.000000000000000 2.000000000000000 2.000000000000000 2.000000000000000 2.000000000000000 0.000000000000000 0.000000000000000 0.000000000000000 0.000000000000000 0.000000000000000 0.000000000000000 0.000000000000000 0.000000000000000 0.000000000000000 0.000000000000000 0.000000000000000 0.000000000000000 0.000000000000000 0.000000000000000 0.000000000000000 0.000000000000000 0.000000000000000 0.000000000000000 0.000000000000000 0.000000000000000 0.000000000000000 0.000000000000000 0.000000000000000 0.000000000000000 0.000000000000000 0.000000000000000 0.000000000000000 0.000000000000000 0.000000000000000 0.000000000000000 0.000000000000000 0.000000000000000 0.000000000000000 0.000000000000000 0.000000000000000 0.000000000000000 0.000000000000000 0.000000000000000 0.000000000000000 0.000000000000000 0.000000000000000 0.000000000000000 0.000000000000000 0.000000000000000 0.000000000000000 0.000000000000000 0.000000000000000 0.000000000000000 0.000000000000000 0.000000000000000 0.000000000000000 0.000000000000000 0.000000000000000 0.000000000000000 0.000000000000000 0.000000000000000 0.000000000000000 0.000000000000000 0.000000000000000 0.000000000000000 0.000000000000000 0.000000000000000 0.000000000000000 0.000000000000000 0.000000000000000 0.000000000000000 0.000000000000000 0.000000000000000 0.000000000000000 0.000000000000000 0.000000000000000 0.000000000000000 0.000000000000000 0.000000000000000 0.000000000000000 0.000000000000000 0.000000000000000 0.000000000000000 0.000000000000000 0.000000000000000 0.000000000000000 0.000000000000000 0.000000000000000 0.000000000000000 0.000000000000000 0.000000000000000 0.000000000000000 0.000000000000000 0.000000000000000 0.000000000000000 0.000000000000000 0.000000000000000 0.000000000000000 0.000000000000000 0.000000000000000 0.000000000000000 0.000000000000000 0.000000000000000 0.000000000000000 0.000000000000000 0.000000000000000 0.000000000000000 0.000000000000000 0.000000000000000 
2.000000000000000 2.000000000000000 2.000000000000000 2.000000000000000 2.000000000000000 2.000000000000000 2.000000000000000 2.000000000000000 2.000000000000000 2.000000000000000 2.000000000000000 2.000000000000000 2.000000000000000 2.000000000000000 2.000000000000000 2.000000000000000 2.000000000000000 2.000000000000000 2.000000000000000 2.000000000000000 2.000000000000000 2.000000000000000 2.000000000000000 2.000000000000000 2.000000000000000 2.000000000000000 2.000000000000000 2.000000000000000 2.000000000000000 2.000000000000000 2.000000000000000 2.000000000000000 2.000000000000000 2.000000000000000 2.000000000000000 2.000000000000000 2.000000000000000 2.000000000000000 2.000000000000000 2.000000000000000 2.000000000000000 2.000000000000000 2.000000000000000 2.000000000000000 2.000000000000000 2.000000000000000 2.000000000000000 2.000000000000000 2.000000000000000 2.000000000000000 2.000000000000000 2.000000000000000 2.000000000000000 2.000000000000000 2.000000000000000 2.000000000000000 2.000000000000000 2.000000000000000 2.000000000000000 2.000000000000000 2.000000000000000 2.000000000000000 2.000000000000000 2.000000000000000 2.000000000000000 2.000000000000000 2.000000000000000 2.000000000000000 2.000000000000000 2.000000000000000 2.000000000000000 2.000000000000000 2.000000000000000 2.000000000000000 2.000000000000000 2.000000000000000 2.000000000000000 2.000000000000000 2.000000000000000 2.000000000000000 2.000000000000000 2.000000000000000 2.000000000000000 2.000000000000000 2.000000000000000 2.000000000000000 2.000000000000000 2.000000000000000 2.000000000000000 2.000000000000000 2.000000000000000 2.000000000000000 2.000000000000000 2.000000000000000 2.000000000000000 2.000000000000000 2.000000000000000 2.000000000000000 2.000000000000000 2.000000000000000 2.000000000000000 2.000000000000000 2.000000000000000 2.000000000000000 0.000000000000000 0.000000000000000 0.000000000000000 0.000000000000000 0.000000000000000 0.000000000000000 0.000000000000000 0.000000000000000 0.000000000000000 0.000000000000000 0.000000000000000 0.000000000000000 0.000000000000000 0.000000000000000 0.000000000000000 0.000000000000000 0.000000000000000 0.000000000000000 0.000000000000000 0.000000000000000 0.000000000000000 0.000000000000000 0.000000000000000 0.000000000000000 0.000000000000000 0.000000000000000 0.000000000000000 0.000000000000000 0.000000000000000 0.000000000000000 0.000000000000000 0.000000000000000 0.000000000000000 0.000000000000000 0.000000000000000 0.000000000000000 0.000000000000000 0.000000000000000 0.000000000000000 0.000000000000000 0.000000000000000 0.000000000000000 0.000000000000000 0.000000000000000 0.000000000000000 0.000000000000000 0.000000000000000 0.000000000000000 0.000000000000000 0.000000000000000 0.000000000000000 0.000000000000000 0.000000000000000 0.000000000000000 0.000000000000000 0.000000000000000 0.000000000000000 0.000000000000000 0.000000000000000 0.000000000000000 0.000000000000000 0.000000000000000 0.000000000000000 0.000000000000000 0.000000000000000 0.000000000000000 0.000000000000000 0.000000000000000 0.000000000000000 0.000000000000000 0.000000000000000 0.000000000000000 0.000000000000000 0.000000000000000 0.000000000000000 0.000000000000000 0.000000000000000 0.000000000000000 0.000000000000000 0.000000000000000 0.000000000000000 0.000000000000000 0.000000000000000 0.000000000000000 0.000000000000000 0.000000000000000 0.000000000000000 0.000000000000000 0.000000000000000 0.000000000000000 0.000000000000000 0.000000000000000 0.000000000000000 0.000000000000000 0.000000000000000 0.000000000000000 0.000000000000000 0.000000000000000 0.000000000000000 0.000000000000000 0.000000000000000 0.000000000000000 0.000000000000000 0.000000000000000 
2.000000000000000 2.000000000000000 2.000000000000000 2.000000000000000 2.000000000000000 2.000000000000000 2.000000000000000 2.000000000000000 2.000000000000000 2.000000000000000 2.000000000000000 2.000000000000000 2.000000000000000 2.000000000000000 2.000000000000000 2.000000000000000 2.000000000000000 2.000000000000000 2.000000000000000 2.000000000000000 2.000000000000000 2.000000000000000 2.000000000000000 2.000000000000000 2.000000000000000 2.000000000000000 2.000000000000000 2.000000000000000 2.000000000000000 2.000000000000000 2.000000000000000 2.000000000000000 2.000000000000000 2.000000000000000 2.000000000000000 2.000000000000000 2.000000000000000 2.000000000000000 2.000000000000000 2.000000000000000 2.000000000000000 2.000000000000000 2.000000000000000 2.000000000000000 2.000000000000000 2.000000000000000 2.000000000000000 2.000000000000000 2.000000000000000 2.000000000000000 2.000000000000000 2.000000000000000 2.000000000000000 2.000000000000000 2.000000000000000 2.000000000000000 2.000000000000000 2.000000000000000 2.000000000000000 2.000000000000000 2.000000000000000 2.000000000000000 2.000000000000000 2.000000000000000 2.000000000000000 2.000000000000000 2.000000000000000 2.000000000000000 2.000000000000000 2.000000000000000 2.000000000000000 2.000000000000000 2.000000000000000 2.000000000000000 2.000000000000000 2.000000000000000 2.000000000000000 2.000000000000000 2.000000000000000 2.000000000000000 2.000000000000000 2.000000000000000 2.000000000000000 2.000000000000000 2.000000000000000 2.000000000000000 2.000000000000000 2.000000000000000 2.000000000000000 2.000000000000000 2.000000000000000 2.000000000000000 2.000000000000000 2.000000000000000 2.000000000000000 2.000000000000000 2.000000000000000 2.000000000000000 2.000000000000000 2.000000000000000 2.000000000000000 2.000000000000000 2.000000000000000 2.000000000000000 0.000000000000000 0.000000000000000 0.000000000000000 0.000000000000000 0.000000000000000 0.000000000000000 0.000000000000000 0.000000000000000 0.000000000000000 0.000000000000000 0.000000000000000 0.000000000000000 0.000000000000000 0.000000000000000 0.000000000000000 0.000000000000000 0.000000000000000 0.000000000000000 0.000000000000000 0.000000000000000 0.000000000000000 0.000000000000000 0.000000000000000 0.000000000000000 0.000000000000000 0.000000000000000 0.000000000000000 0.000000000000000 0.000000000000000 0.000000000000000 0.000000000000000 0.000000000000000 0.000000000000000 0.000000000000000 0.000000000000000 0.000000000000000 0.000000000000000 0.000000000000000 0.000000000000000 0.000000000000000 0.000000000000000 0.000000000000000 0.000000000000000 0.000000000000000 0.000000000000000 0.000000000000000 0.000000000000000 0.000000000000000 0.000000000000000 0.000000000000000 0.000000000000000 0.000000000000000 0.000000000000000 0.000000000000000 0.000000000000000 0.000000000000000 0.000000000000000 0.000000000000000 0.000000000000000 0.000000000000000 0.000000000000000 0.000000000000000 0.000000000000000 0.000000000000000 0.000000000000000 0.000000000000000 0.000000000000000 0.000000000000000 0.000000000000000 0.000000000000000 0.000000000000000 0.000000000000000 0.000000000000000 0.000000000000000 0.000000000000000 0.000000000000000 0.000000000000000 0.000000000000000 0.000000000000000 0.000000000000000 0.000000000000000 0.000000000000000 0.000000000000000 0.000000000000000 0.000000000000000 0.000000000000000 0.000000000000000 0.000000000000000 0.000000000000000 0.000000000000000 0.000000000000000 0.000000000000000 0.000000000000000 0.000000000000000 0.000000000000000 0.000000000000000 0.000000000000000 0.000000000000000 0.000000000000000 0.000000000000000 0.000000000000000 0.000000000000000 0.000000000000000 0.000000000000000 
2.000000000000000 2.000000000000000 2.000000000000000 2.000000000000000 2.000000000000000 2.000000000000000 2.000000000000000 2.000000000000000 2.000000000000000 2.000000000000000 2.000000000000000 2.000000000000000 2.000000000000000 2.000000000000000 2.000000000000000 2.000000000000000 2.000000000000000 2.000000000000000 2.000000000000000 2.000000000000000 2.000000000000000 2.000000000000000 2.000000000000000 2.000000000000000 2.000000000000000 2.000000000000000 2.000000000000000 2.000000000000000 2.000000000000000 2.000000000000000 2.000000000000000 2.000000000000000 2.000000000000000 2.000000000000000 2.000000000000000 2.000000000000000 2.000000000000000 2.000000000000000 2.000000000000000 2.000000000000000 2.000000000000000 2.000000000000000 2.000000000000000 2.000000000000000 2.000000000000000 2.000000000000000 2.000000000000000 2.000000000000000 2.000000000000000 2.000000000000000 2.000000000000000 2.000000000000000 2.000000000000000 2.000000000000000 2.000000000000000 2.000000000000000 2.000000000000000 2.000000000000000 2.000000000000000 2.000000000000000 2.000000000000000 2.000000000000000 2.000000000000000 2.000000000000000 2.000000000000000 2.000000000000000 2.000000000000000 2.000000000000000 2.000000000000000 2.000000000000000 2.000000000000000 2.000000000000000 2.000000000000000 2.000000000000000 2.000000000000000 2.000000000000000 2.000000000000000 2.000000000000000 2.000000000000000 2.000000000000000 2.000000000000000 2.000000000000000 2.000000000000000 2.000000000000000 2.000000000000000 2.000000000000000 2.000000000000000 2.000000000000000 2.000000000000000 2.000000000000000 2.000000000000000 2.000000000000000 2.000000000000000 2.000000000000000 2.000000000000000 2.000000000000000 2.000000000000000 2.000000000000000 2.000000000000000 2.000000000000000 2.000000000000000 2.000000000000000 2.000000000000000 2.000000000000000 0.000000000000000 0.000000000000000 0.000000000000000 0.000000000000000 0.000000000000000 0.000000000000000 0.000000000000000 0.000000000000000 0.000000000000000 0.000000000000000 0.000000000000000 0.000000000000000 0.000000000000000 0.000000000000000 0.000000000000000 0.000000000000000 0.000000000000000 0.000000000000000 0.000000000000000 0.000000000000000 0.000000000000000 0.000000000000000 0.000000000000000 0.000000000000000 0.000000000000000 0.000000000000000 0.000000000000000 0.000000000000000 0.000000000000000 0.000000000000000 0.000000000000000 0.000000000000000 0.000000000000000 0.000000000000000 0.000000000000000 0.000000000000000 0.000000000000000 0.000000000000000 0.000000000000000 0.000000000000000 0.000000000000000 0.000000000000000 0.000000000000000 0.000000000000000 0.000000000000000 0.000000000000000 0.000000000000000 0.000000000000000 0.000000000000000 0.000000000000000 0.000000000000000 0.000000000000000 0.000000000000000 0.000000000000000 0.000000000000000 0.000000000000000 0.000000000000000 0.000000000000000 0.000000000000000 0.000000000000000 0.000000000000000 0.000000000000000 0.000000000000000 0.000000000000000 0.000000000000000 0.000000000000000 0.000000000000000 0.000000000000000 0.000000000000000 0.000000000000000 0.000000000000000 0.000000000000000 0.000000000000000 0.000000000000000 0.000000000000000 0.000000000000000 0.000000000000000 0.000000000000000 0.000000000000000 0.000000000000000 0.000000000000000 0.000000000000000 0.000000000000000 0.000000000000000 0.000000000000000 0.000000000000000 0.000000000000000 0.000000000000000 0.000000000000000 0.000000000000000 0.000000000000000 0.000000000000000 0.000000000000000 0.000000000000000 0.000000000000000 0.000000000000000 0.000000000000000 0.000000000000000 0.000000000000000 0.000000000000000 0.000000000000000 0.000000000000000 0.000000000000000 0.000000000000000 
2.000000000000000 2.000000000000000 2.000000000000000 2.000000000000000 2.000000000000000 2.000000000000000 2.000000000000000 2.000000000000000 2.000000000000000 2.000000000000000 2.000000000000000 2.000000000000000 2.000000000000000 2.000000000000000 2.000000000000000 2.000000000000000 2.000000000000000 2.000000000000000 2.000000000000000 2.000000000000000 2.000000000000000 2.000000000000000 2.000000000000000 2.000000000000000 2.000000000000000 2.000000000000000 2.000000000000000 2.000000000000000 2.000000000000000 2.000000000000000 2.000000000000000 2.000000000000000 2.000000000000000 2.000000000000000 2.000000000000000 2.000000000000000 2.000000000000000 2.000000000000000 2.000000000000000 2.000000000000000 2.000000000000000 2.000000000000000 2.000000000000000 2.000000000000000 2.000000000000000 2.000000000000000 2.000000000000000 2.000000000000000 2.000000000000000 2.000000000000000 2.000000000000000 2.000000000000000 2.000000000000000 2.000000000000000 2.000000000000000 2.000000000000000 2.000000000000000 2.000000000000000 2.000000000000000 2.000000000000000 2.000000000000000 2.000000000000000 2.000000000000000 2.000000000000000 2.000000000000000 2.000000000000000 2.000000000000000 2.000000000000000 2.000000000000000 2.000000000000000 2.000000000000000 2.000000000000000 2.000000000000000 2.000000000000000 2.000000000000000 2.000000000000000 2.000000000000000 2.000000000000000 2.000000000000000 2.000000000000000 2.000000000000000 2.000000000000000 2.000000000000000 2.000000000000000 2.000000000000000 2.000000000000000 2.000000000000000 2.000000000000000 2.000000000000000 2.000000000000000 2.000000000000000 2.000000000000000 2.000000000000000 2.000000000000000 2.000000000000000 2.000000000000000 2.000000000000000 2.000000000000000 2.000000000000000 2.000000000000000 2.000000000000000 2.000000000000000 2.000000000000000 2.000000000000000 0.000000000000000 0.000000000000000 0.000000000000000 0.000000000000000 0.000000000000000 0.000000000000000 0.000000000000000 0.000000000000000 0.000000000000000 0.000000000000000 0.000000000000000 0.000000000000000 0.000000000000000 0.000000000000000 0.000000000000000 0.000000000000000 0.000000000000000 0.000000000000000 0.000000000000000 0.000000000000000 0.000000000000000 0.000000000000000 0.000000000000000 0.000000000000000 0.000000000000000 0.000000000000000 0.000000000000000 0.000000000000000 0.000000000000000 0.000000000000000 0.000000000000000 0.000000000000000 0.000000000000000 0.000000000000000 0.000000000000000 0.000000000000000 0.000000000000000 0.000000000000000 0.000000000000000 0.000000000000000 0.000000000000000 0.000000000000000 0.000000000000000 0.000000000000000 0.000000000000000 0.000000000000000 0.000000000000000 0.000000000000000 0.000000000000000 0.000000000000000 0.000000000000000 0.000000000000000 0.000000000000000 0.000000000000000 0.000000000000000 0.000000000000000 0.000000000000000 0.000000000000000 0.000000000000000 0.000000000000000 0.000000000000000 0.000000000000000 0.000000000000000 0.000000000000000 0.000000000000000 0.000000000000000 0.000000000000000 0.000000000000000 0.000000000000000 0.000000000000000 0.000000000000000 0.000000000000000 0.000000000000000 0.000000000000000 0.000000000000000 0.000000000000000 0.000000000000000 0.000000000000000 0.000000000000000 0.000000000000000 0.000000000000000 0.000000000000000 0.000000000000000 0.000000000000000 0.000000000000000 0.000000000000000 0.000000000000000 0.000000000000000 0.000000000000000 0.000000000000000 0.000000000000000 0.000000000000000 0.000000000000000 0.000000000000000 0.000000000000000 0.000000000000000 0.000000000000000 0.000000000000000 0.000000000000000 0.000000000000000 0.000000000000000 0.000000000000000 0.000000000000000 0.000000000000000 
2.000000000000000 2.000000000000000 2.000000000000000 2.000000000000000 2.000000000000000 2.000000000000000 2.000000000000000 2.000000000000000 2.000000000000000 2.000000000000000 2.000000000000000 2.000000000000000 2.000000000000000 2.000000000000000 2.000000000000000 2.000000000000000 2.000000000000000 2.000000000000000 2.000000000000000 2.000000000000000 2.000000000000000 2.000000000000000 2.000000000000000 2.000000000000000 2.000000000000000 2.000000000000000 2.000000000000000 2.000000000000000 2.000000000000000 2.000000000000000 2.000000000000000 2.000000000000000 2.000000000000000 2.000000000000000 2.000000000000000 2.000000000000000 2.000000000000000 2.000000000000000 2.000000000000000 2.000000000000000 2.000000000000000 2.000000000000000 2.000000000000000 2.000000000000000 2.000000000000000 2.000000000000000 2.000000000000000 2.000000000000000 2.000000000000000 2.000000000000000 2.000000000000000 2.000000000000000 2.000000000000000 2.000000000000000 2.000000000000000 2.000000000000000 2.000000000000000 2.000000000000000 2.000000000000000 2.000000000000000 2.000000000000000 2.000000000000000 2.000000000000000 2.000000000000000 2.000000000000000 2.000000000000000 2.000000000000000 2.000000000000000 2.000000000000000 2.000000000000000 2.000000000000000 2.000000000000000 2.000000000000000 2.000000000000000 2.000000000000000 2.000000000000000 2.000000000000000 2.000000000000000 2.000000000000000 2.000000000000000 2.000000000000000 2.000000000000000 2.000000000000000 2.000000000000000 2.000000000000000 2.000000000000000 2.000000000000000 2.000000000000000 2.000000000000000 2.000000000000000 2.000000000000000 2.000000000000000 2.000000000000000 2.000000000000000 2.000000000000000 2.000000000000000 2.000000000000000 2.000000000000000 2.000000000000000 2.000000000000000 2.000000000000000 2.000000000000000 2.000000000000000 2.000000000000000 0.000000000000000 0.000000000000000 0.000000000000000 0.000000000000000 0.000000000000000 0.000000000000000 0.000000000000000 0.000000000000000 0.000000000000000 0.000000000000000 0.000000000000000 0.000000000000000 0.000000000000000 0.000000000000000 0.000000000000000 0.000000000000000 0.000000000000000 0.000000000000000 0.000000000000000 0.000000000000000 0.000000000000000 0.000000000000000 0.000000000000000 0.000000000000000 0.000000000000000 0.000000000000000 0.000000000000000 0.000000000000000 0.000000000000000 0.000000000000000 0.000000000000000 0.000000000000000 0.000000000000000 0.000000000000000 0.000000000000000 0.000000000000000 0.000000000000000 0.000000000000000 0.000000000000000 0.000000000000000 0.000000000000000 0.000000000000000 0.000000000000000 0.000000000000000 0.000000000000000 0.000000000000000 0.000000000000000 0.000000000000000 0.000000000000000 0.000000000000000 0.000000000000000 0.000000000000000 0.000000000000000 0.000000000000000 0.000000000000000 0.000000000000000 0.000000000000000 0.000000000000000 0.000000000000000 0.000000000000000 0.000000000000000 0.000000000000000 0.000000000000000 0.000000000000000 0.000000000000000 0.000000000000000 0.000000000000000 0.000000000000000 0.000000000000000 0.000000000000000 0.000000000000000 0.000000000000000 0.000000000000000 0.000000000000000 0.000000000000000 0.000000000000000 0.000000000000000 0.000000000000000 0.000000000000000 0.000000000000000 0.000000000000000 0.000000000000000 0.000000000000000 0.000000000000000 0.000000000000000 0.000000000000000 0.000000000000000 0.000000000000000 0.000000000000000 0.000000000000000 0.000000000000000 0.000000000000000 0.000000000000000 0.000000000000000 0.000000000000000 0.000000000000000 0.000000000000000 0.000000000000000 0.000000000000000 0.000000000000000 0.000000000000000 0.000000000000000 0.000000000000000 0.000000000000000 
2.000000000000000 2.000000000000000 2.000000000000000 2.000000000000000 2.000000000000000 2.000000000000000 2.000000000000000 2.000000000000000 2.000000000000000 2.000000000000000 2.000000000000000 2.000000000000000 2.000000000000000 2.000000000000000 2.000000000000000 2.000000000000000 2.000000000000000 2.000000000000000 2.000000000000000 2.000000000000000 2.000000000000000 2.000000000000000 2.000000000000000 2.000000000000000 2.000000000000000 2.000000000000000 2.000000000000000 2.000000000000000 2.000000000000000 2.000000000000000 2.000000000000000 2.000000000000000 2.000000000000000 2.000000000000000 2.000000000000000 2.000000000000000 2.000000000000000 2.000000000000000 2.000000000000000 2.000000000000000 2.000000000000000 2.000000000000000 2.000000000000000 2.000000000000000 2.000000000000000 2.000000000000000 2.000000000000000 2.000000000000000 2.000000000000000 2.000000000000000 2.000000000000000 2.000000000000000 2.000000000000000 2.000000000000000 2.000000000000000 2.000000000000000 2.000000000000000 2.000000000000000 2.000000000000000 2.000000000000000 2.000000000000000 2.000000000000000 2.000000000000000 2.000000000000000 2.000000000000000 2.000000000000000 2.000000000000000 2.000000000000000 2.000000000000000 2.000000000000000 2.000000000000000 2.000000000000000 2.000000000000000 2.000000000000000 2.000000000000000 2.000000000000000 2.000000000000000 2.000000000000000 2.000000000000000 2.000000000000000 2.000000000000000 2.000000000000000 2.000000000000000 2.000000000000000 2.000000000000000 2.000000000000000 2.000000000000000 2.000000000000000 2.000000000000000 2.000000000000000 2.000000000000000 2.000000000000000 2.000000000000000 2.000000000000000 2.000000000000000 2.000000000000000 2.000000000000000 2.000000000000000 2.000000000000000 2.000000000000000 2.000000000000000 2.000000000000000 2.000000000000000 2.000000000000000 0.000000000000000 0.000000000000000 0.000000000000000 0.000000000000000 0.000000000000000 0.000000000000000 0.000000000000000 0.000000000000000 0.000000000000000 0.000000000000000 0.000000000000000 0.000000000000000 0.000000000000000 0.000000000000000 0.000000000000000 0.000000000000000 0.000000000000000 0.000000000000000 0.000000000000000 0.000000000000000 0.000000000000000 0.000000000000000 0.000000000000000 0.000000000000000 0.000000000000000 0.000000000000000 0.000000000000000 0.000000000000000 0.000000000000000 0.000000000000000 0.000000000000000 0.000000000000000 0.000000000000000 0.000000000000000 0.000000000000000 0.000000000000000 0.000000000000000 0.000000000000000 0.000000000000000 0.000000000000000 0.000000000000000 0.000000000000000 0.000000000000000 0.000000000000000 0.000000000000000 0.000000000000000 0.000000000000000 0.000000000000000 0.000000000000000 0.000000000000000 0.000000000000000 0.000000000000000 0.000000000000000 0.000000000000000 0.000000000000000 0.000000000000000 0.000000000000000 0.000000000000000 0.000000000000000 0.000000000000000 0.000000000000000 0.000000000000000 0.000000000000000 0.000000000000000 0.000000000000000 0.000000000000000 0.000000000000000 0.000000000000000 0.000000000000000 0.000000000000000 0.000000000000000 0.000000000000000 0.000000000000000 0.000000000000000 0.000000000000000 0.000000000000000 0.000000000000000 0.000000000000000 0.000000000000000 0.000000000000000 0.000000000000000 0.000000000000000 0.000000000000000 0.000000000000000 0.000000000000000 0.000000000000000 0.000000000000000 0.000000000000000 0.000000000000000 0.000000000000000 0.000000000000000 0.000000000000000 0.000000000000000 0.000000000000000 0.000000000000000 0.000000000000000 0.000000000000000 0.000000000000000 0.000000000000000 0.000000000000000 0.000000000000000 0.000000000000000 0.000000000000000 0.000000000000000 
[...]
  92   1.999877e+00   6.182352e-01   6.182352e-01
  93   1.999877e+00   6.182406e-01   6.182406e-01
  94   1.939471e+00   6.431613e-01   6.431613e-01
  95   1.939471e+00   6.431613e-01   6.431613e-01
  96   3.307742e-01   6.635046e-01   6.635045e-01
  97   3.305702e-01   6.635074e-01   6.635074e-01
  98   3.298355e-01   6.635180e-01   6.635180e-01
  99   3.296337e-01   6.635211e-01   6.635211e-01
 100   1.980126e-01   6.658645e-01   6.658645e-01
 101   9.747330e-02   6.689152e-01   6.689152e-01
 102   9.747234e-02   6.689152e-01   6.689152e-01
 103   2.632865e-02   6.742979e-01   6.742979e-01
 104   2.632848e-02   6.742980e-01   6.742980e-01
 105   2.012975e-02   6.753840e-01   6.753840e-01
 106   3.229788e-05   7.011644e-01   7.011644e-01
 107   3.227132e-05   7.011675e-01   7.011675e-01
 108   3.220341e-05   7.011759e-01   7.011759e-01
 109   3.217710e-05   7.011794e-01   7.011794e-01
 110   3.969377e-06   7.095507e-01   7.095507e-01
 111   3.967541e-06   7.095525e-01   7.095525e-01
 112   3.962485e-06   7.095576e-01   7.095576e-01
 113   3.960765e-06   7.095593e-01   7.095593e-01
 114   7.977310e-07   7.159684e-01   7.159684e-01
 115   4.188574e-07   7.185451e-01   7.185451e-01
 116   4.188559e-07   7.185451e-01   7.185451e-01
 117   1.227170e-07   7.234560e-01   7.234560e-01
 118   1.227151e-07   7.234561e-01   7.234561e-01
 119   1.749567e-11   7.588782e-01   7.588782e-01
 120   2.177147e-12   7.672144e-01   7.672144e-01
 121   2.177036e-12   7.672148e-01   7.672147e-01
 122   2.174261e-12   7.672199e-01   7.672199e-01
 123   2.174039e-12   7.672202e-01   7.672202e-01
 124   6.661338e-14   7.811600e-01   7.811596e-01
 125   6.661338e-14   7.811596e-01   7.811600e-01
 126   4.996004e-14   7.823090e-01   7.823090e-01
 127   4.662937e-14   7.825934e-01   7.825934e-01
 128   4.651834e-14   7.826026e-01   7.826025e-01
 129   4.607426e-14   7.826326e-01   7.826326e-01
 130   4.607426e-14   7.826394e-01   7.826394e-01
 131   2.076117e-14   7.858231e-01   7.858231e-01
 132   3.330669e-16   8.020449e-01   8.020439e-01
 133   3.330669e-16   8.020439e-01   8.020449e-01
 134   3.330669e-16   8.030364e-01   8.030351e-01
 135   3.330669e-16   8.030351e-01   8.030364e-01
 136   1.110223e-16   8.064702e-01   8.064690e-01
 137   1.110223e-16   8.064690e-01   8.064702e-01
 138   0.000000e+00   8.163304e-01   8.163304e-01
 139   0.000000e+00   8.223068e-01   8.223067e-01
 140   0.000000e+00   8.223073e-01   8.223073e-01
 141   0.000000e+00   8.223195e-01   8.223195e-01
 142   0.000000e+00   8.223200e-01   8.223201e-01
 143   0.000000e+00   8.245439e-01   8.245439e-01
 144   0.000000e+00   8.245440e-01   8.245440e-01
 145   0.000000e+00   8.319694e-01   8.319694e-01
 146   0.000000e+00   8.319722e-01   8.319722e-01
 147   0.000000e+00   8.320151e-01   8.320151e-01
 148   0.000000e+00   8.320179e-01   8.320180e-01
 149   0.000000e+00   8.505646e-01   8.505646e-01
 150   0.000000e+00   8.526611e-01   8.526611e-01
 151   0.000000e+00   8.734873e-01   8.734873e-01
 152   0.000000e+00   8.734906e-01   8.734906e-01
 153   0.000000e+00   8.735035e-01   8.735035e-01
 154   0.000000e+00   8.735069e-01   8.735069e-01
 155   0.000000e+00   9.162904e-01   9.162904e-01
 156   0.000000e+00   9.162904e-01   9.162904e-01
 157   0.000000e+00   9.594643e-01   9.594642e-01
 158   0.000000e+00   1.015865e+00   1.015865e+00
 159   0.000000e+00   1.015865e+00   1.015865e+00
 160   0.000000e+00   1.035077e+00   1.035077e+00
 161   0.000000e+00   1.035077e+00   1.035077e+00
 162   0.000000e+00   1.037919e+00   1.037919e+00
 163   0.000000e+00   1.037919e+00   1.037919e+00
 164   0.000000e+00   1.082618e+00   1.082618e+00
 165   0.000000e+00   1.082618e+00   1.082618e+00
 166   0.000000e+00   1.095353e+00   1.095353e+00
 167   0.000000e+00   1.095353e+00   1.095353e+00
 168   0.000000e+00   1.100049e+00   1.100049e+00
 169   0.000000e+00   1.100051e+00   1.100051e+00
 170   0.000000e+00   1.100059e+00   1.100059e+00
 171   0.000000e+00   1.100062e+00   1.100062e+00
 172   0.000000e+00   1.121099e+00   1.121098e+00
 173   0.000000e+00   1.121117e+00   1.121116e+00
 174   0.000000e+00   1.121168e+00   1.121168e+00
 175   0.000000e+00   1.121175e+00   1.121175e+00
 176   0.000000e+00   1.121267e+00   1.121268e+00
 177   0.000000e+00   1.121277e+00   1.121277e+00
 178   0.000000e+00   1.127948e+00   1.127948e+00
 179   0.000000e+00   1.127948e+00   1.127948e+00
 180   0.000000e+00   1.169963e+00   1.169963e+00
 181   0.000000e+00   1.169967e+00   1.169967e+00
 182   0.000000e+00   1.170005e+00   1.170004e+00
 183   0.000000e+00   1.170006e+00   1.170006e+00
 184   0.000000e+00   1.222495e+00   1.222495e+00
 185   0.000000e+00   1.229878e+00   1.223714e+00
 186   0.000000e+00   1.234053e+00   1.229878e+00
 187   0.000000e+00   1.234053e+00   1.234053e+00
 188   0.000000e+00   1.244988e+00   1.234054e+00
 189   0.000000e+00   1.244987e+00   1.244987e+00
 190   0.000000e+00   1.272284e+00   1.244988e+00
 191   0.000000e+00   1.278019e+00   1.272279e+00
 192   0.000000e+00   1.278019e+00   1.278019e+00
 193   0.000000e+00   1.278022e+00   1.278019e+00
 194   0.000000e+00   1.278022e+00   1.278022e+00
 195   0.000000e+00   1.283928e+00   1.278022e+00
 196   0.000000e+00   1.283952e+00   1.283929e+00
 197   0.000000e+00   1.283969e+00   1.283953e+00
 198   0.000000e+00   1.296075e+00   1.283970e+00
 199   0.000000e+00   1.321077e+00   1.299060e+00
 200   0.000000e+00   1.321083e+00   1.321080e+00
 201   0.000000e+00   1.321108e+00   1.321086e+00
 202   0.000000e+00   1.321038e+00   1.321107e+00
 203   0.000000e+00   1.330535e+00   1.321116e+00
 204   0.000000e+00   1.330338e+00   1.330554e+00
 205   0.000000e+00   1.352046e+00   1.330610e+00
 206   0.000000e+00   1.227584e+00   1.352561e+00
 207   0.000000e+00   1.465423e+00   1.465423e+00

state = 2   q_k = [ 0 0 0.5 ]   w = 0.03125   spin = 0
band     filling       diag(Hsub)      epsilon   
-------------------------------------------------
   0   2.000000e+00  -1.338776e+00  -1.338776e+00
   1   2.000000e+00  -1.338765e+00  -1.338765e+00
   2   2.000000e+00  -1.332777e+00  -1.332779e+00
   3   2.000000e+00  -1.332778e+00  -1.332777e+00
   4   2.000000e+00  -1.332775e+00  -1.332775e+00
   5   2.000000e+00  -1.332775e+00  -1.332774e+00
   6   2.000000e+00  -1.332747e+00  -1.332747e+00
   7   2.000000e+00  -1.332744e+00  -1.332745e+00
   8   2.000000e+00  -1.332745e+00  -1.332745e+00
   9   2.000000e+00  -1.332742e+00  -1.332741e+00
  10   2.000000e+00  -1.332054e+00  -1.332056e+00
  11   2.000000e+00  -1.332056e+00  -1.332054e+00
  12   2.000000e+00  -1.332023e+00  -1.332024e+00
  13   2.000000e+00  -1.332024e+00  -1.332022e+00
  14   2.000000e+00  -1.328096e+00  -1.328096e+00
  15   2.000000e+00  -1.328065e+00  -1.328065e+00
  16   2.000000e+00  -4.763637e-01  -4.763637e-01
  17   2.000000e+00  -4.763637e-01  -4.763637e-01
  18   2.000000e+00  -4.763512e-01  -4.763512e-01
  19   2.000000e+00  -4.763512e-01  -4.763512e-01
  20   2.000000e+00  -4.749030e-01  -4.749034e-01
  21   2.000000e+00  -4.749027e-01  -4.749030e-01
  22   2.000000e+00  -4.749027e-01  -4.749024e-01
  23   2.000000e+00  -4.749026e-01  -4.749023e-01
  24   2.000000e+00  -4.748952e-01  -4.748955e-01
  25   2.000000e+00  -4.748953e-01  -4.748954e-01
  26   2.000000e+00  -4.748946e-01  -4.748944e-01
  27   2.000000e+00  -4.748944e-01  -4.748943e-01
  28   2.000000e+00  -4.677486e-01  -4.677486e-01
  29   2.000000e+00  -4.677254e-01  -4.677254e-01
  30   2.000000e+00  -4.628633e-01  -4.628633e-01
  31   2.000000e+00  -4.628633e-01  -4.628633e-01
  32   2.000000e+00  -4.628596e-01  -4.628596e-01
  33   2.000000e+00  -4.628596e-01  -4.628596e-01
  34   2.000000e+00  -4.545857e-01  -4.545873e-01
  35   2.000000e+00  -4.545873e-01  -4.545857e-01
  36   2.000000e+00  -4.545572e-01  -4.545586e-01
  37   2.000000e+00  -4.545586e-01  -4.545572e-01
  38   2.000000e+00  -4.503323e-01  -4.503324e-01
  39   2.000000e+00  -4.503310e-01  -4.503313e-01
  40   2.000000e+00  -4.503278e-01  -4.503275e-01
  41   2.000000e+00  -4.503270e-01  -4.503268e-01
  42   2.000000e+00  -4.503057e-01  -4.503058e-01
  43   2.000000e+00  -4.503051e-01  -4.503053e-01
  44   2.000000e+00  -4.503004e-01  -4.503002e-01
  45   2.000000e+00  -4.502992e-01  -4.502991e-01
  46   2.000000e+00  -4.442788e-01  -4.442788e-01
  47   2.000000e+00  -4.442455e-01  -4.442455e-01
  48   2.000000e+00  -4.419766e-01  -4.419766e-01
  49   2.000000e+00  -4.419765e-01  -4.419765e-01
  50   2.000000e+00  -4.419290e-01  -4.419290e-01
  51   2.000000e+00  -4.419290e-01  -4.419290e-01
  52   2.000000e+00  -4.400254e-01  -4.400260e-01
  53   2.000000e+00  -4.400252e-01  -4.400249e-01
  54   2.000000e+00  -4.400243e-01  -4.400248e-01
  55   2.000000e+00  -4.400249e-01  -4.400243e-01
  56   2.000000e+00  -4.399895e-01  -4.399906e-01
  57   2.000000e+00  -4.399905e-01  -4.399898e-01
  58   2.000000e+00  -4.399889e-01  -4.399893e-01
  59   2.000000e+00  -4.399894e-01  -4.399885e-01
  60   2.000000e+00  -4.390923e-01  -4.390923e-01
  61   2.000000e+00  -4.390923e-01  -4.390923e-01
  62   2.000000e+00  -4.390527e-01  -4.390527e-01
  63   2.000000e+00  -4.390527e-01  -4.390527e-01
  64   2.000000e+00   4.833908e-01   4.833908e-01
  65   2.000000e+00   4.834002e-01   4.834002e-01
  66   2.000000e+00   5.446388e-01   5.446388e-01
  67   2.000000e+00   5.446400e-01   5.446400e-01
  68   2.000000e+00   5.446418e-01   5.446418e-01
  69   2.000000e+00   5.446419e-01   5.446419e-01
  70   2.000000e+00   5.446736e-01   5.446736e-01
  71   2.000000e+00   5.446742e-01   5.446742e-01
  72   2.000000e+00   5.446762e-01   5.446762e-01
  73   2.000000e+00   5.446765e-01   5.446765e-01
  74   2.000000e+00   5.458380e-01   5.458380e-01
  75   2.000000e+00   5.459182e-01   5.459182e-01
  76   2.000000e+00   5.547318e-01   5.547318e-01
  77   2.000000e+00   5.547547e-01   5.547547e-01
  78   2.000000e+00   5.630759e-01   5.630758e-01
  79   2.000000e+00   5.630758e-01   5.630759e-01
  80   2.000000e+00   5.630958e-01   5.630958e-01
  81   2.000000e+00   5.630960e-01   5.630960e-01
  82   2.000000e+00   5.951708e-01   5.951708e-01
  83   2.000000e+00   5.951708e-01   5.951708e-01
  84   2.000000e+00   5.952266e-01   5.952266e-01
  85   2.000000e+00   5.952266e-01   5.952266e-01
  86   1.998625e+00   6.279017e-01   6.279016e-01
  87   1.998625e+00   6.279024e-01   6.279024e-01
  88   1.998625e+00   6.279043e-01   6.279040e-01
  89   1.998624e+00   6.279040e-01   6.279044e-01
  90   1.998598e+00   6.279794e-01   6.279794e-01
  91   1.998598e+00   6.279795e-01   6.279794e-01
  92   1.998597e+00   6.279827e-01   6.279827e-01
  93   1.998597e+00   6.279834e-01   6.279835e-01
  94   1.801308e+00   6.482121e-01   6.482121e-01
  95   1.801122e+00   6.482157e-01   6.482157e-01
  96   1.800421e+00   6.482313e-01   6.482313e-01
  97   1.800298e+00   6.482347e-01   6.482347e-01
  98   1.799781e+00   6.482456e-01   6.482456e-01
  99   1.799640e+00   6.482490e-01   6.482490e-01
 100   1.799155e+00   6.482597e-01   6.482597e-01
 101   1.798954e+00   6.482639e-01   6.482639e-01
 102   1.129048e-01   6.682949e-01   6.682949e-01
 103   1.129039e-01   6.682949e-01   6.682949e-01
 104   1.118892e-01   6.683333e-01   6.683333e-01
 105   1.118884e-01   6.683334e-01   6.683334e-01
 106   7.506630e-03   6.793549e-01   6.793549e-01
 107   7.506611e-03   6.793549e-01   6.793549e-01
 108   7.496397e-03   6.793604e-01   6.793604e-01
 109   7.496375e-03   6.793604e-01   6.793604e-01
 110   4.174308e-04   6.909271e-01   6.909271e-01
 111   4.082421e-04   6.910160e-01   6.910160e-01
 112   6.960585e-07   7.165160e-01   7.165160e-01
 113   6.772665e-07   7.166256e-01   7.166256e-01
 114   1.519064e-09   7.410236e-01   7.410236e-01
 115   1.518241e-09   7.410258e-01   7.410258e-01
 116   1.516683e-09   7.410299e-01   7.410299e-01
 117   1.515769e-09   7.410324e-01   7.410324e-01
 118   1.482266e-09   7.411218e-01   7.411218e-01
 119   1.481694e-09   7.411234e-01   7.411234e-01
 120   1.480934e-09   7.411254e-01   7.411254e-01
 121   1.480209e-09   7.411274e-01   7.411274e-01
 122   1.347922e-12   7.691322e-01   7.691322e-01
 123   1.347922e-12   7.691322e-01   7.691322e-01
 124   1.338707e-12   7.691598e-01   7.691598e-01
 125   1.338707e-12   7.691598e-01   7.691598e-01
 126   5.884182e-15   7.908328e-01   7.908326e-01
 127   5.884182e-15   7.908326e-01   7.908328e-01
 128   5.884182e-15   7.909052e-01   7.909052e-01
 129   5.884182e-15   7.909063e-01   7.909063e-01
 130   9.992007e-16   7.980744e-01   7.980744e-01
 131   9.992007e-16   7.980849e-01   7.980849e-01
 132   2.220446e-16   8.047330e-01   8.047318e-01
 133   2.220446e-16   8.047318e-01   8.047330e-01
 134   2.220446e-16   8.047467e-01   8.047456e-01
 135   2.220446e-16   8.047456e-01   8.047467e-01
 136   0.000000e+00   8.223576e-01   8.223576e-01
 137   0.000000e+00   8.224680e-01   8.224680e-01
 138   0.000000e+00   8.329431e-01   8.329431e-01
 139   0.000000e+00   8.329474e-01   8.329474e-01
 140   0.000000e+00   8.329522e-01   8.329522e-01
 141   0.000000e+00   8.329529e-01   8.329530e-01
 142   0.000000e+00   8.330487e-01   8.330487e-01
 143   0.000000e+00   8.330497e-01   8.330497e-01
 144   0.000000e+00   8.330585e-01   8.330585e-01
 145   0.000000e+00   8.330625e-01   8.330625e-01
 146   0.000000e+00   8.338058e-01   8.338058e-01
 147   0.000000e+00   8.338069e-01   8.338069e-01
 148   0.000000e+00   8.338150e-01   8.338150e-01
 149   0.000000e+00   8.338161e-01   8.338161e-01
 150   0.000000e+00   8.338401e-01   8.338401e-01
 151   0.000000e+00   8.338411e-01   8.338411e-01
 152   0.000000e+00   8.338456e-01   8.338456e-01
 153   0.000000e+00   8.338465e-01   8.338465e-01
 154   0.000000e+00   9.015663e-01   9.015663e-01
 155   0.000000e+00   9.017547e-01   9.017547e-01
 156   0.000000e+00   9.723262e-01   9.723262e-01
 157   0.000000e+00   9.723262e-01   9.723262e-01
 158   0.000000e+00   9.724064e-01   9.724064e-01
 159   0.000000e+00   9.724065e-01   9.724065e-01
 160   0.000000e+00   1.048477e+00   1.048477e+00
 161   0.000000e+00   1.048477e+00   1.048477e+00
 162   0.000000e+00   1.048593e+00   1.048593e+00
 163   0.000000e+00   1.048594e+00   1.048594e+00
 164   0.000000e+00   1.122181e+00   1.122181e+00
 165   0.000000e+00   1.122182e+00   1.122181e+00
 166   0.000000e+00   1.122297e+00   1.122297e+00
 167   0.000000e+00   1.122297e+00   1.122297e+00
 168   0.000000e+00   1.130265e+00   1.130265e+00
 169   0.000000e+00   1.130266e+00   1.130266e+00
 170   0.000000e+00   1.130268e+00   1.130268e+00
 171   0.000000e+00   1.130269e+00   1.130269e+00
 172   0.000000e+00   1.130402e+00   1.130402e+00
 173   0.000000e+00   1.130403e+00   1.130403e+00
 174   0.000000e+00   1.130406e+00   1.130405e+00
 175   0.000000e+00   1.130406e+00   1.130406e+00
 176   0.000000e+00   1.130737e+00   1.130737e+00
 177   0.000000e+00   1.130737e+00   1.130737e+00
 178   0.000000e+00   1.130756e+00   1.130756e+00
 179   0.000000e+00   1.130757e+00   1.130757e+00
 180   0.000000e+00   1.186380e+00   1.186380e+00
 181   0.000000e+00   1.186380e+00   1.186380e+00
 182   0.000000e+00   1.186538e+00   1.186538e+00
 183   0.000000e+00   1.186538e+00   1.186538e+00
 184   0.000000e+00   1.195621e+00   1.195595e+00
 185   0.000000e+00   1.195615e+00   1.195615e+00
 186   0.000000e+00   1.195625e+00   1.195628e+00
 187   0.000000e+00   1.195634e+00   1.195634e+00
 188   0.000000e+00   1.195687e+00   1.195689e+00
 189   0.000000e+00   1.195691e+00   1.195691e+00
 190   0.000000e+00   1.195708e+00   1.195712e+00
 191   0.000000e+00   1.195718e+00   1.195719e+00
 192   0.000000e+00   1.257371e+00   1.256814e+00
 193   0.000000e+00   1.257256e+00   1.257200e+00
 194   0.000000e+00   1.257855e+00   1.257232e+00
 195   0.000000e+00   1.258115e+00   1.257621e+00
 196   0.000000e+00   1.291789e+00   1.291886e+00
 197   0.000000e+00   1.290381e+00   1.292022e+00
 198   0.000000e+00   1.304120e+00   1.304120e+00
 199   0.000000e+00   1.304123e+00   1.304123e+00
 200   0.000000e+00   1.304126e+00   1.304126e+00
 201   0.000000e+00   1.304123e+00   1.304127e+00
 202   0.000000e+00   1.304234e+00   1.304234e+00
 203   0.000000e+00   1.304234e+00   1.304235e+00
 204   0.000000e+00   1.304241e+00   1.304241e+00
 205   0.000000e+00   1.304239e+00   1.304244e+00
 206   0.000000e+00   1.329540e+00   1.329540e+00
 207   0.000000e+00   1.329622e+00   1.329622e+00

	FillingsUpdate:  mu: +0.657029756  nElectrons: 208.000000
	SubspaceRotationAdjust: set factor to 0.333
ElecMinimize: Iter:  17  F: -916.067502770762530  |grad|_K:  6.912e-09  alpha:  3.930e-01  linmin:  6.882e-08  t[s]:    497.26
ElecMinimize: Converged (|Delta F|<1.000000e-08 for 2 iters).
Setting wave functions to eigenvectors of Hamiltonian

# Ionic positions in cartesian coordinates:
ion Nb  -0.011761471284436  -0.011919642105416  -0.011763338657937 1
ion Nb   3.113581933821688   3.113704410558840   3.113720179637397 1
ion Nb  -0.011871564778617  -0.011854731533132   6.240789168306048 1
ion Nb   3.113607921885833   3.113551992759874   9.366034532249952 1
ion Nb  -0.011867334416704   6.240694199571827  -0.011887693511652 1
ion Nb   3.113551101096515   9.366208210199094   3.113680072456842 1
ion Nb  -0.011935450976663   6.240689061257050   6.240608909571075 1
ion Nb   3.113564801262581   9.366145392232665   9.366109398679221 1
ion Nb   6.240792646659604  -0.011824412734730  -0.011861728592045 1
ion Nb   9.366070168254891   3.113459926590294   3.113648000613463 1
ion Nb   6.240701823013421  -0.011777746177729   6.240576581240747 1
ion Nb   9.366090032314654   3.113359523923835   9.366143215394276 1
ion Nb   6.240711913309235   6.240674254786642  -0.011868772992166 1
ion Nb   9.366133433201052   9.366214724139526   3.113607818319112 1
ion Nb   6.240614523127064   6.240654853848760   6.240420324073093 1
ion Nb   9.366167523509905   9.366171982682618   9.366195333212595 1

# Forces in Cartesian coordinates:
force Nb   0.000092673168095   0.000100668841641   0.000024125244933 1
force Nb   0.000136881313727   0.000134295289976   0.000049616520325 1
force Nb   0.000096856447593   0.000094046800920  -0.000132967285530 1
force Nb   0.000137403222058   0.000145891126935  -0.000083929397652 1
force Nb   0.000096253763681  -0.000069605354677   0.000029276954399 1
force Nb   0.000142141557356  -0.000028267102065   0.000055144501890 1
force Nb   0.000095988334423  -0.000066790799586  -0.000121479274019 1
force Nb   0.000144035577910  -0.000027833687361  -0.000091065182762 1
force Nb  -0.000076066545394   0.000091866235238   0.000027402246128 1
force Nb  -0.000016257150069   0.000152950829066   0.000057509362911 1
force Nb  -0.000069793284061   0.000087275749740  -0.000119403407523 1
force Nb  -0.000018874329738   0.000159200501052  -0.000093469376320 1
force Nb  -0.000069448178161  -0.000064641811652   0.000020801353185 1
force Nb  -0.000022503947142  -0.000033456666795   0.000063012149780 1
force Nb  -0.000062415797324  -0.000060444632512  -0.000109683700784 1
force Nb  -0.000026712629427  -0.000035078218777  -0.000098248916422 1

# Energy components:
   Eewald =     -787.0622013486164406
       EH =      119.9349464419519222
     Eloc =     -509.2324581848157550
      Enl =      159.6600265683906059
      Exc =     -147.5192577901800632
 Exc_core =       27.4108751864439597
       KE =      220.7734104237017618
-------------------------------------
     Etot =     -916.0346587031242507
       TS =        0.0328440676382650
-------------------------------------
        F =     -916.0675027707625304

IonicMinimize: Iter:   0  F: -916.067502770762530  |grad|_K:  8.280e-05  t[s]:    501.37
IonicMinimize: Converged (|grad|_K<1.000000e-04).

#--- Lowdin population analysis ---
# oxidation-state Nb +0.005 +0.005 +0.005 +0.005 +0.005 +0.005 +0.005 +0.005 +0.005 +0.005 +0.005 +0.005 +0.005 +0.005 +0.006 +0.005


Dumping 'Nb16.d_tot' ... done
Dumping 'Nb16.Ecomponents' ... done
End date and time: Wed Apr 17 13:54:39 2024  (Duration: 0-0:08:24.28)
Done!
