--------------------------------------------------------------------------
Initialization of PSM library failed.

  Error: PSM is in the finalized state
--------------------------------------------------------------------------

*************** JDFTx 1.7.0  ***************

Start date and time: Tue Apr 16 10:42:02 2024
Executable jdftx with command-line: -i /home/cam559/Valla_project/Nb/Nb16O_oct.in
Running on hosts (process indices):  node3204.physics.cornell.edu (0-9)
Divided in process groups (process indices):  0 (0)  1 (1)  2 (2)  3 (3)  4 (4)  5 (5)  6 (6)  7 (7)  8 (8)  9 (9)
Resource initialization completed at t[s]:      0.00
Run totals: 10 processes, 30 threads, 0 GPUs


Input parsed successfully to the following command list (including defaults):

basis kpoint-dependent
coords-type Cartesian
core-overlap-check vector
coulomb-interaction Periodic
davidson-band-ratio 1.1
debug  EigsFillings
dump End Dtot Ecomponents
dump-name Nb16O_oct.$VAR
elec-cutoff 20 100
elec-eigen-algo Davidson
elec-ex-corr gga-PBE
elec-smearing Fermi 0.004
electronic-minimize  \
	dirUpdateScheme      FletcherReeves \
	linminMethod         DirUpdateRecommended \
	nIterations          100 \
	history              15 \
	knormThreshold       0 \
	energyDiffThreshold  1e-08 \
	nEnergyDiff          2 \
	alphaTstart          1 \
	alphaTmin            1e-10 \
	updateTestStepSize   yes \
	alphaTreduceFactor   0.1 \
	alphaTincreaseFactor 3 \
	nAlphaAdjustMax      3 \
	wolfeEnergy          0.0001 \
	wolfeGradient        0.9 \
	fdTest               no
exchange-regularization WignerSeitzTruncated
fluid None
fluid-ex-corr lda-TF lda-PZ
fluid-gummel-loop 10 1.000000e-05
fluid-minimize  \
	dirUpdateScheme      PolakRibiere \
	linminMethod         DirUpdateRecommended \
	nIterations          100 \
	history              15 \
	knormThreshold       0 \
	energyDiffThreshold  0 \
	nEnergyDiff          2 \
	alphaTstart          1 \
	alphaTmin            1e-10 \
	updateTestStepSize   yes \
	alphaTreduceFactor   0.1 \
	alphaTincreaseFactor 3 \
	nAlphaAdjustMax      3 \
	wolfeEnergy          0.0001 \
	wolfeGradient        0.9 \
	fdTest               no
fluid-solvent H2O 55.338 ScalarEOS \
	epsBulk 78.4 \
	pMol 0.92466 \
	epsInf 1.77 \
	Pvap 1.06736e-10 \
	sigmaBulk 4.62e-05 \
	Rvdw 2.61727 \
	Res 1.42 \
	tauNuc 343133 \
	poleEl 15 7 1
forces-output-coords Positions
initial-state Nb16O_oct.$VAR
ion Nb  -0.561242198732585   0.000148104413161   0.000168548385238 1
ion Nb   3.119064607609892   3.103168486158242   3.103023371432841 1
ion Nb  -0.014706159765743   0.000840947996851   6.237389473905822 1
ion Nb   3.119189896897019   3.103531952278586   9.372043167592084 1
ion Nb  -0.014832250217997   6.237362149206210   0.000836853129321 1
ion Nb   3.119064061070933   9.371769719770294   3.103327516399179 1
ion Nb   0.067622365398853   6.237164564697099   6.237252521695993 1
ion Nb   3.119187726525853   9.371103332473860   9.371327442492598 1
ion Nb   6.800719095345865   0.000149089726194   0.000041886052567 1
ion Nb   9.355300192817005   3.217327021539488   3.217393250407816 1
ion Nb   6.253043256016565   0.000843856978916   6.237357230931242 1
ion Nb   9.355148491859818   3.217669005698998   9.255377477224027 1
ion Nb   6.253172918876463   6.237364547404689   0.000855651378437 1
ion Nb   9.355302840142674   9.255477867229709   3.217664472966034 1
ion Nb   6.170146261461517   6.237174603954547   6.237098259887239 1
ion Nb   9.355149943234183   9.255075285358483   9.254928855865352 1
ion O   3.119765951459680   0.006878465114679   0.006963020254210 1
ion-species GBRV/$ID_pbe.uspp
ion-width 0
ionic-minimize  \
	dirUpdateScheme      L-BFGS \
	linminMethod         DirUpdateRecommended \
	nIterations          0 \
	history              15 \
	knormThreshold       0.0001 \
	energyDiffThreshold  1e-06 \
	nEnergyDiff          2 \
	alphaTstart          1 \
	alphaTmin            1e-10 \
	updateTestStepSize   yes \
	alphaTreduceFactor   0.1 \
	alphaTincreaseFactor 3 \
	nAlphaAdjustMax      3 \
	wolfeEnergy          0.0001 \
	wolfeGradient        0.9 \
	fdTest               no
kpoint   0.000000000000   0.000000000000   0.000000000000  1.00000000000000
kpoint-folding 4 4 4 
latt-move-scale 1 1 1
latt-scale 1 1 1 
lattice  \
	  12.472192000000000    0.000000000000000    0.000000000000000  \
	   0.000000000000000   12.472192000000000    0.000000000000000  \
	   0.000000000000000    0.000000000000000   12.472192000000000 
lattice-minimize  \
	dirUpdateScheme      L-BFGS \
	linminMethod         DirUpdateRecommended \
	nIterations          0 \
	history              15 \
	knormThreshold       0 \
	energyDiffThreshold  1e-06 \
	nEnergyDiff          2 \
	alphaTstart          1 \
	alphaTmin            1e-10 \
	updateTestStepSize   yes \
	alphaTreduceFactor   0.1 \
	alphaTincreaseFactor 3 \
	nAlphaAdjustMax      3 \
	wolfeEnergy          0.0001 \
	wolfeGradient        0.9 \
	fdTest               no
lcao-params -1 1e-06 0.004
pcm-variant GLSSA13
spintype no-spin
subspace-rotation-factor 1 yes
symmetries automatic
symmetry-threshold 0.0001



---------- Setting up symmetries ----------

Found 48 point-group symmetries of the bravais lattice
Found 1 space-group symmetries with basis
Applied RMS atom displacement 0 bohrs to make symmetries exact.

---------- Initializing the Grid ----------
R = 
[      12.4722            0            0  ]
[            0      12.4722            0  ]
[            0            0      12.4722  ]
unit cell volume = 1940.12
G =
[   0.503776          0          0  ]
[          0   0.503776          0  ]
[          0          0   0.503776  ]
Minimum fftbox size, Smin = [  60  60  60  ]
Chosen fftbox size, S = [  60  60  60  ]

---------- Initializing tighter grid for wavefunction operations ----------
R = 
[      12.4722            0            0  ]
[            0      12.4722            0  ]
[            0            0      12.4722  ]
unit cell volume = 1940.12
G =
[   0.503776          0          0  ]
[          0   0.503776          0  ]
[          0          0   0.503776  ]
Minimum fftbox size, Smin = [  52  52  52  ]
Chosen fftbox size, S = [  54  54  54  ]

---------- Exchange Correlation functional ----------
Initalized PBE GGA exchange.
Initalized PBE GGA correlation.

---------- Setting up pseudopotentials ----------
Width of ionic core gaussian charges (only for fluid interactions / plotting) set to 0

Reading pseudopotential file '/home/cam559/JDFTx/build/pseudopotentials/GBRV/nb_pbe.uspp':
  Title: Nb.  Created by USPP 7.3.6 on 14-9-2013
  Reference state energy: -58.592548.  13 valence electrons in orbitals:
    |400>  occupation: 2  eigenvalue: -2.145853
    |410>  occupation: 6  eigenvalue: -1.268635
    |420>  occupation: 4  eigenvalue: -0.111734
    |500>  occupation: 1  eigenvalue: -0.146332
    |510>  occupation: 0  eigenvalue: -0.040820
  lMax: 2  lLocal: 3  QijEcut: 5
  6 projectors sampled on a log grid with 627 points:
    l: 0  eig: -2.145854  rCut: 1.8
    l: 0  eig: -0.146334  rCut: 1.8
    l: 1  eig: -1.268634  rCut: 2
    l: 1  eig: 0.150000  rCut: 2
    l: 2  eig: -0.040820  rCut: 2.2
    l: 2  eig: 0.150000  rCut: 2.2
  Partial core density with radius 1.2
  Transforming core density to a uniform radial grid of dG=0.02 with 1314 points.
  Transforming local potential to a uniform radial grid of dG=0.02 with 1314 points.
  Transforming nonlocal projectors to a uniform radial grid of dG=0.02 with 432 points.
  Transforming density augmentations to a uniform radial grid of dG=0.02 with 1314 points.
  Transforming atomic orbitals to a uniform radial grid of dG=0.02 with 432 points.
  Core radius for overlap checks: 2.20 bohrs.

Reading pseudopotential file '/home/cam559/JDFTx/build/pseudopotentials/GBRV/o_pbe.uspp':
  Title: O.  Created by USPP 7.3.6 on 3-2-2014
  Reference state energy: -15.894388.  6 valence electrons in orbitals:
    |200>  occupation: 2  eigenvalue: -0.878823
    |210>  occupation: 4  eigenvalue: -0.332131
  lMax: 2  lLocal: 2  QijEcut: 6
  5 projectors sampled on a log grid with 511 points:
    l: 0  eig: -0.878823  rCut: 1.25
    l: 0  eig: 0.000000  rCut: 1.25
    l: 1  eig: -0.332132  rCut: 1.25
    l: 1  eig: 0.000000  rCut: 1.25
    l: 2  eig: 1.000000  rCut: 1.25
  Partial core density with radius 0.7
  Transforming core density to a uniform radial grid of dG=0.02 with 1314 points.
  Transforming local potential to a uniform radial grid of dG=0.02 with 1314 points.
  Transforming nonlocal projectors to a uniform radial grid of dG=0.02 with 432 points.
  Transforming density augmentations to a uniform radial grid of dG=0.02 with 1314 points.
  Transforming atomic orbitals to a uniform radial grid of dG=0.02 with 432 points.
  Core radius for overlap checks: 1.25 bohrs.

Initialized 2 species with 17 total atoms.

Folded 1 k-points by 4x4x4 to 64 k-points.

---------- Setting up k-points, bands, fillings ----------
Adding inversion symmetry to k-mesh for non-inversion-symmetric unit cell.
Reduced to 36 k-points under symmetry. 
Computing the number of bands and number of electrons
Calculating initial fillings.
nElectrons: 214.000000   nBands: 212   nStates: 36   initial fillings:
2.000000000000000 2.000000000000000 2.000000000000000 2.000000000000000 2.000000000000000 2.000000000000000 2.000000000000000 2.000000000000000 2.000000000000000 2.000000000000000 2.000000000000000 2.000000000000000 2.000000000000000 2.000000000000000 2.000000000000000 2.000000000000000 2.000000000000000 2.000000000000000 2.000000000000000 2.000000000000000 2.000000000000000 2.000000000000000 2.000000000000000 2.000000000000000 2.000000000000000 2.000000000000000 2.000000000000000 2.000000000000000 2.000000000000000 2.000000000000000 2.000000000000000 2.000000000000000 2.000000000000000 2.000000000000000 2.000000000000000 2.000000000000000 2.000000000000000 2.000000000000000 2.000000000000000 2.000000000000000 2.000000000000000 2.000000000000000 2.000000000000000 2.000000000000000 2.000000000000000 2.000000000000000 2.000000000000000 2.000000000000000 2.000000000000000 2.000000000000000 2.000000000000000 2.000000000000000 2.000000000000000 2.000000000000000 2.000000000000000 2.000000000000000 2.000000000000000 2.000000000000000 2.000000000000000 2.000000000000000 2.000000000000000 2.000000000000000 2.000000000000000 2.000000000000000 2.000000000000000 2.000000000000000 2.000000000000000 2.000000000000000 2.000000000000000 2.000000000000000 2.000000000000000 2.000000000000000 2.000000000000000 2.000000000000000 2.000000000000000 2.000000000000000 2.000000000000000 2.000000000000000 2.000000000000000 2.000000000000000 2.000000000000000 2.000000000000000 2.000000000000000 2.000000000000000 2.000000000000000 2.000000000000000 2.000000000000000 2.000000000000000 2.000000000000000 2.000000000000000 2.000000000000000 2.000000000000000 2.000000000000000 2.000000000000000 2.000000000000000 2.000000000000000 2.000000000000000 2.000000000000000 2.000000000000000 2.000000000000000 2.000000000000000 2.000000000000000 2.000000000000000 2.000000000000000 2.000000000000000 2.000000000000000 2.000000000000000 0.000000000000000 0.000000000000000 0.000000000000000 0.000000000000000 0.000000000000000 0.000000000000000 0.000000000000000 0.000000000000000 0.000000000000000 0.000000000000000 0.000000000000000 0.000000000000000 0.000000000000000 0.000000000000000 0.000000000000000 0.000000000000000 0.000000000000000 0.000000000000000 0.000000000000000 0.000000000000000 0.000000000000000 0.000000000000000 0.000000000000000 0.000000000000000 0.000000000000000 0.000000000000000 0.000000000000000 0.000000000000000 0.000000000000000 0.000000000000000 0.000000000000000 0.000000000000000 0.000000000000000 0.000000000000000 0.000000000000000 0.000000000000000 0.000000000000000 0.000000000000000 0.000000000000000 0.000000000000000 0.000000000000000 0.000000000000000 0.000000000000000 0.000000000000000 0.000000000000000 0.000000000000000 0.000000000000000 0.000000000000000 0.000000000000000 0.000000000000000 0.000000000000000 0.000000000000000 0.000000000000000 0.000000000000000 0.000000000000000 0.000000000000000 0.000000000000000 0.000000000000000 0.000000000000000 0.000000000000000 0.000000000000000 0.000000000000000 0.000000000000000 0.000000000000000 0.000000000000000 0.000000000000000 0.000000000000000 0.000000000000000 0.000000000000000 0.000000000000000 0.000000000000000 0.000000000000000 0.000000000000000 0.000000000000000 0.000000000000000 0.000000000000000 0.000000000000000 0.000000000000000 0.000000000000000 0.000000000000000 0.000000000000000 0.000000000000000 0.000000000000000 0.000000000000000 0.000000000000000 0.000000000000000 0.000000000000000 0.000000000000000 0.000000000000000 0.000000000000000 0.000000000000000 0.000000000000000 0.000000000000000 0.000000000000000 0.000000000000000 0.000000000000000 0.000000000000000 0.000000000000000 0.000000000000000 0.000000000000000 0.000000000000000 0.000000000000000 0.000000000000000 0.000000000000000 0.000000000000000 
2.000000000000000 2.000000000000000 2.000000000000000 2.000000000000000 2.000000000000000 2.000000000000000 2.000000000000000 2.000000000000000 2.000000000000000 2.000000000000000 2.000000000000000 2.000000000000000 2.000000000000000 2.000000000000000 2.000000000000000 2.000000000000000 2.000000000000000 2.000000000000000 2.000000000000000 2.000000000000000 2.000000000000000 2.000000000000000 2.000000000000000 2.000000000000000 2.000000000000000 2.000000000000000 2.000000000000000 2.000000000000000 2.000000000000000 2.000000000000000 2.000000000000000 2.000000000000000 2.000000000000000 2.000000000000000 2.000000000000000 2.000000000000000 2.000000000000000 2.000000000000000 2.000000000000000 2.000000000000000 2.000000000000000 2.000000000000000 2.000000000000000 2.000000000000000 2.000000000000000 2.000000000000000 2.000000000000000 2.000000000000000 2.000000000000000 2.000000000000000 2.000000000000000 2.000000000000000 2.000000000000000 2.000000000000000 2.000000000000000 2.000000000000000 2.000000000000000 2.000000000000000 2.000000000000000 2.000000000000000 2.000000000000000 2.000000000000000 2.000000000000000 2.000000000000000 2.000000000000000 2.000000000000000 2.000000000000000 2.000000000000000 2.000000000000000 2.000000000000000 2.000000000000000 2.000000000000000 2.000000000000000 2.000000000000000 2.000000000000000 2.000000000000000 2.000000000000000 2.000000000000000 2.000000000000000 2.000000000000000 2.000000000000000 2.000000000000000 2.000000000000000 2.000000000000000 2.000000000000000 2.000000000000000 2.000000000000000 2.000000000000000 2.000000000000000 2.000000000000000 2.000000000000000 2.000000000000000 2.000000000000000 2.000000000000000 2.000000000000000 2.000000000000000 2.000000000000000 2.000000000000000 2.000000000000000 2.000000000000000 2.000000000000000 2.000000000000000 2.000000000000000 2.000000000000000 2.000000000000000 2.000000000000000 2.000000000000000 0.000000000000000 0.000000000000000 0.000000000000000 0.000000000000000 0.000000000000000 0.000000000000000 0.000000000000000 0.000000000000000 0.000000000000000 0.000000000000000 0.000000000000000 0.000000000000000 0.000000000000000 0.000000000000000 0.000000000000000 0.000000000000000 0.000000000000000 0.000000000000000 0.000000000000000 0.000000000000000 0.000000000000000 0.000000000000000 0.000000000000000 0.000000000000000 0.000000000000000 0.000000000000000 0.000000000000000 0.000000000000000 0.000000000000000 0.000000000000000 0.000000000000000 0.000000000000000 0.000000000000000 0.000000000000000 0.000000000000000 0.000000000000000 0.000000000000000 0.000000000000000 0.000000000000000 0.000000000000000 0.000000000000000 0.000000000000000 0.000000000000000 0.000000000000000 0.000000000000000 0.000000000000000 0.000000000000000 0.000000000000000 0.000000000000000 0.000000000000000 0.000000000000000 0.000000000000000 0.000000000000000 0.000000000000000 0.000000000000000 0.000000000000000 0.000000000000000 0.000000000000000 0.000000000000000 0.000000000000000 0.000000000000000 0.000000000000000 0.000000000000000 0.000000000000000 0.000000000000000 0.000000000000000 0.000000000000000 0.000000000000000 0.000000000000000 0.000000000000000 0.000000000000000 0.000000000000000 0.000000000000000 0.000000000000000 0.000000000000000 0.000000000000000 0.000000000000000 0.000000000000000 0.000000000000000 0.000000000000000 0.000000000000000 0.000000000000000 0.000000000000000 0.000000000000000 0.000000000000000 0.000000000000000 0.000000000000000 0.000000000000000 0.000000000000000 0.000000000000000 0.000000000000000 0.000000000000000 0.000000000000000 0.000000000000000 0.000000000000000 0.000000000000000 0.000000000000000 0.000000000000000 0.000000000000000 0.000000000000000 0.000000000000000 0.000000000000000 0.000000000000000 0.000000000000000 0.000000000000000 
2.000000000000000 2.000000000000000 2.000000000000000 2.000000000000000 2.000000000000000 2.000000000000000 2.000000000000000 2.000000000000000 2.000000000000000 2.000000000000000 2.000000000000000 2.000000000000000 2.000000000000000 2.000000000000000 2.000000000000000 2.000000000000000 2.000000000000000 2.000000000000000 2.000000000000000 2.000000000000000 2.000000000000000 2.000000000000000 2.000000000000000 2.000000000000000 2.000000000000000 2.000000000000000 2.000000000000000 2.000000000000000 2.000000000000000 2.000000000000000 2.000000000000000 2.000000000000000 2.000000000000000 2.000000000000000 2.000000000000000 2.000000000000000 2.000000000000000 2.000000000000000 2.000000000000000 2.000000000000000 2.000000000000000 2.000000000000000 2.000000000000000 2.000000000000000 2.000000000000000 2.000000000000000 2.000000000000000 2.000000000000000 2.000000000000000 2.000000000000000 2.000000000000000 2.000000000000000 2.000000000000000 2.000000000000000 2.000000000000000 2.000000000000000 2.000000000000000 2.000000000000000 2.000000000000000 2.000000000000000 2.000000000000000 2.000000000000000 2.000000000000000 2.000000000000000 2.000000000000000 2.000000000000000 2.000000000000000 2.000000000000000 2.000000000000000 2.000000000000000 2.000000000000000 2.000000000000000 2.000000000000000 2.000000000000000 2.000000000000000 2.000000000000000 2.000000000000000 2.000000000000000 2.000000000000000 2.000000000000000 2.000000000000000 2.000000000000000 2.000000000000000 2.000000000000000 2.000000000000000 2.000000000000000 2.000000000000000 2.000000000000000 2.000000000000000 2.000000000000000 2.000000000000000 2.000000000000000 2.000000000000000 2.000000000000000 2.000000000000000 2.000000000000000 2.000000000000000 2.000000000000000 2.000000000000000 2.000000000000000 2.000000000000000 2.000000000000000 2.000000000000000 2.000000000000000 2.000000000000000 2.000000000000000 2.000000000000000 0.000000000000000 0.000000000000000 0.000000000000000 0.000000000000000 0.000000000000000 0.000000000000000 0.000000000000000 0.000000000000000 0.000000000000000 0.000000000000000 0.000000000000000 0.000000000000000 0.000000000000000 0.000000000000000 0.000000000000000 0.000000000000000 0.000000000000000 0.000000000000000 0.000000000000000 0.000000000000000 0.000000000000000 0.000000000000000 0.000000000000000 0.000000000000000 0.000000000000000 0.000000000000000 0.000000000000000 0.000000000000000 0.000000000000000 0.000000000000000 0.000000000000000 0.000000000000000 0.000000000000000 0.000000000000000 0.000000000000000 0.000000000000000 0.000000000000000 0.000000000000000 0.000000000000000 0.000000000000000 0.000000000000000 0.000000000000000 0.000000000000000 0.000000000000000 0.000000000000000 0.000000000000000 0.000000000000000 0.000000000000000 0.000000000000000 0.000000000000000 0.000000000000000 0.000000000000000 0.000000000000000 0.000000000000000 0.000000000000000 0.000000000000000 0.000000000000000 0.000000000000000 0.000000000000000 0.000000000000000 0.000000000000000 0.000000000000000 0.000000000000000 0.000000000000000 0.000000000000000 0.000000000000000 0.000000000000000 0.000000000000000 0.000000000000000 0.000000000000000 0.000000000000000 0.000000000000000 0.000000000000000 0.000000000000000 0.000000000000000 0.000000000000000 0.000000000000000 0.000000000000000 0.000000000000000 0.000000000000000 0.000000000000000 0.000000000000000 0.000000000000000 0.000000000000000 0.000000000000000 0.000000000000000 0.000000000000000 0.000000000000000 0.000000000000000 0.000000000000000 0.000000000000000 0.000000000000000 0.000000000000000 0.000000000000000 0.000000000000000 0.000000000000000 0.000000000000000 0.000000000000000 0.000000000000000 0.000000000000000 0.000000000000000 0.000000000000000 0.000000000000000 0.000000000000000 0.000000000000000 
2.000000000000000 2.000000000000000 2.000000000000000 2.000000000000000 2.000000000000000 2.000000000000000 2.000000000000000 2.000000000000000 2.000000000000000 2.000000000000000 2.000000000000000 2.000000000000000 2.000000000000000 2.000000000000000 2.000000000000000 2.000000000000000 2.000000000000000 2.000000000000000 2.000000000000000 2.000000000000000 2.000000000000000 2.000000000000000 2.000000000000000 2.000000000000000 2.000000000000000 2.000000000000000 2.000000000000000 2.000000000000000 2.000000000000000 2.000000000000000 2.000000000000000 2.000000000000000 2.000000000000000 2.000000000000000 2.000000000000000 2.000000000000000 2.000000000000000 2.000000000000000 2.000000000000000 2.000000000000000 2.000000000000000 2.000000000000000 2.000000000000000 2.000000000000000 2.000000000000000 2.000000000000000 2.000000000000000 2.000000000000000 2.000000000000000 2.000000000000000 2.000000000000000 2.000000000000000 2.000000000000000 2.000000000000000 2.000000000000000 2.000000000000000 2.000000000000000 2.000000000000000 2.000000000000000 2.000000000000000 2.000000000000000 2.000000000000000 2.000000000000000 2.000000000000000 2.000000000000000 2.000000000000000 2.000000000000000 2.000000000000000 2.000000000000000 2.000000000000000 2.000000000000000 2.000000000000000 2.000000000000000 2.000000000000000 2.000000000000000 2.000000000000000 2.000000000000000 2.000000000000000 2.000000000000000 2.000000000000000 2.000000000000000 2.000000000000000 2.000000000000000 2.000000000000000 2.000000000000000 2.000000000000000 2.000000000000000 2.000000000000000 2.000000000000000 2.000000000000000 2.000000000000000 2.000000000000000 2.000000000000000 2.000000000000000 2.000000000000000 2.000000000000000 2.000000000000000 2.000000000000000 2.000000000000000 2.000000000000000 2.000000000000000 2.000000000000000 2.000000000000000 2.000000000000000 2.000000000000000 2.000000000000000 2.000000000000000 0.000000000000000 0.000000000000000 0.000000000000000 0.000000000000000 0.000000000000000 0.000000000000000 0.000000000000000 0.000000000000000 0.000000000000000 0.000000000000000 0.000000000000000 0.000000000000000 0.000000000000000 0.000000000000000 0.000000000000000 0.000000000000000 0.000000000000000 0.000000000000000 0.000000000000000 0.000000000000000 0.000000000000000 0.000000000000000 0.000000000000000 0.000000000000000 0.000000000000000 0.000000000000000 0.000000000000000 0.000000000000000 0.000000000000000 0.000000000000000 0.000000000000000 0.000000000000000 0.000000000000000 0.000000000000000 0.000000000000000 0.000000000000000 0.000000000000000 0.000000000000000 0.000000000000000 0.000000000000000 0.000000000000000 0.000000000000000 0.000000000000000 0.000000000000000 0.000000000000000 0.000000000000000 0.000000000000000 0.000000000000000 0.000000000000000 0.000000000000000 0.000000000000000 0.000000000000000 0.000000000000000 0.000000000000000 0.000000000000000 0.000000000000000 0.000000000000000 0.000000000000000 0.000000000000000 0.000000000000000 0.000000000000000 0.000000000000000 0.000000000000000 0.000000000000000 0.000000000000000 0.000000000000000 0.000000000000000 0.000000000000000 0.000000000000000 0.000000000000000 0.000000000000000 0.000000000000000 0.000000000000000 0.000000000000000 0.000000000000000 0.000000000000000 0.000000000000000 0.000000000000000 0.000000000000000 0.000000000000000 0.000000000000000 0.000000000000000 0.000000000000000 0.000000000000000 0.000000000000000 0.000000000000000 0.000000000000000 0.000000000000000 0.000000000000000 0.000000000000000 0.000000000000000 0.000000000000000 0.000000000000000 0.000000000000000 0.000000000000000 0.000000000000000 0.000000000000000 0.000000000000000 0.000000000000000 0.000000000000000 0.000000000000000 0.000000000000000 0.000000000000000 0.000000000000000 0.000000000000000 
2.000000000000000 2.000000000000000 2.000000000000000 2.000000000000000 2.000000000000000 2.000000000000000 2.000000000000000 2.000000000000000 2.000000000000000 2.000000000000000 2.000000000000000 2.000000000000000 2.000000000000000 2.000000000000000 2.000000000000000 2.000000000000000 2.000000000000000 2.000000000000000 2.000000000000000 2.000000000000000 2.000000000000000 2.000000000000000 2.000000000000000 2.000000000000000 2.000000000000000 2.000000000000000 2.000000000000000 2.000000000000000 2.000000000000000 2.000000000000000 2.000000000000000 2.000000000000000 2.000000000000000 2.000000000000000 2.000000000000000 2.000000000000000 2.000000000000000 2.000000000000000 2.000000000000000 2.000000000000000 2.000000000000000 2.000000000000000 2.000000000000000 2.000000000000000 2.000000000000000 2.000000000000000 2.000000000000000 2.000000000000000 2.000000000000000 2.000000000000000 2.000000000000000 2.000000000000000 2.000000000000000 2.000000000000000 2.000000000000000 2.000000000000000 2.000000000000000 2.000000000000000 2.000000000000000 2.000000000000000 2.000000000000000 2.000000000000000 2.000000000000000 2.000000000000000 2.000000000000000 2.000000000000000 2.000000000000000 2.000000000000000 2.000000000000000 2.000000000000000 2.000000000000000 2.000000000000000 2.000000000000000 2.000000000000000 2.000000000000000 2.000000000000000 2.000000000000000 2.000000000000000 2.000000000000000 2.000000000000000 2.000000000000000 2.000000000000000 2.000000000000000 2.000000000000000 2.000000000000000 2.000000000000000 2.000000000000000 2.000000000000000 2.000000000000000 2.000000000000000 2.000000000000000 2.000000000000000 2.000000000000000 2.000000000000000 2.000000000000000 2.000000000000000 2.000000000000000 2.000000000000000 2.000000000000000 2.000000000000000 2.000000000000000 2.000000000000000 2.000000000000000 2.000000000000000 2.000000000000000 2.000000000000000 2.000000000000000 0.000000000000000 0.000000000000000 0.000000000000000 0.000000000000000 0.000000000000000 0.000000000000000 0.000000000000000 0.000000000000000 0.000000000000000 0.000000000000000 0.000000000000000 0.000000000000000 0.000000000000000 0.000000000000000 0.000000000000000 0.000000000000000 0.000000000000000 0.000000000000000 0.000000000000000 0.000000000000000 0.000000000000000 0.000000000000000 0.000000000000000 0.000000000000000 0.000000000000000 0.000000000000000 0.000000000000000 0.000000000000000 0.000000000000000 0.000000000000000 0.000000000000000 0.000000000000000 0.000000000000000 0.000000000000000 0.000000000000000 0.000000000000000 0.000000000000000 0.000000000000000 0.000000000000000 0.000000000000000 0.000000000000000 0.000000000000000 0.000000000000000 0.000000000000000 0.000000000000000 0.000000000000000 0.000000000000000 0.000000000000000 0.000000000000000 0.000000000000000 0.000000000000000 0.000000000000000 0.000000000000000 0.000000000000000 0.000000000000000 0.000000000000000 0.000000000000000 0.000000000000000 0.000000000000000 0.000000000000000 0.000000000000000 0.000000000000000 0.000000000000000 0.000000000000000 0.000000000000000 0.000000000000000 0.000000000000000 0.000000000000000 0.000000000000000 0.000000000000000 0.000000000000000 0.000000000000000 0.000000000000000 0.000000000000000 0.000000000000000 0.000000000000000 0.000000000000000 0.000000000000000 0.000000000000000 0.000000000000000 0.000000000000000 0.000000000000000 0.000000000000000 0.000000000000000 0.000000000000000 0.000000000000000 0.000000000000000 0.000000000000000 0.000000000000000 0.000000000000000 0.000000000000000 0.000000000000000 0.000000000000000 0.000000000000000 0.000000000000000 0.000000000000000 0.000000000000000 0.000000000000000 0.000000000000000 0.000000000000000 0.000000000000000 0.000000000000000 0.000000000000000 0.000000000000000 0.000000000000000 
2.000000000000000 2.000000000000000 2.000000000000000 2.000000000000000 2.000000000000000 2.000000000000000 2.000000000000000 2.000000000000000 2.000000000000000 2.000000000000000 2.000000000000000 2.000000000000000 2.000000000000000 2.000000000000000 2.000000000000000 2.000000000000000 2.000000000000000 2.000000000000000 2.000000000000000 2.000000000000000 2.000000000000000 2.000000000000000 2.000000000000000 2.000000000000000 2.000000000000000 2.000000000000000 2.000000000000000 2.000000000000000 2.000000000000000 2.000000000000000 2.000000000000000 2.000000000000000 2.000000000000000 2.000000000000000 2.000000000000000 2.000000000000000 2.000000000000000 2.000000000000000 2.000000000000000 2.000000000000000 2.000000000000000 2.000000000000000 2.000000000000000 2.000000000000000 2.000000000000000 2.000000000000000 2.000000000000000 2.000000000000000 2.000000000000000 2.000000000000000 2.000000000000000 2.000000000000000 2.000000000000000 2.000000000000000 2.000000000000000 2.000000000000000 2.000000000000000 2.000000000000000 2.000000000000000 2.000000000000000 2.000000000000000 2.000000000000000 2.000000000000000 2.000000000000000 2.000000000000000 2.000000000000000 2.000000000000000 2.000000000000000 2.000000000000000 2.000000000000000 2.000000000000000 2.000000000000000 2.000000000000000 2.000000000000000 2.000000000000000 2.000000000000000 2.000000000000000 2.000000000000000 2.000000000000000 2.000000000000000 2.000000000000000 2.000000000000000 2.000000000000000 2.000000000000000 2.000000000000000 2.000000000000000 2.000000000000000 2.000000000000000 2.000000000000000 2.000000000000000 2.000000000000000 2.000000000000000 2.000000000000000 2.000000000000000 2.000000000000000 2.000000000000000 2.000000000000000 2.000000000000000 2.000000000000000 2.000000000000000 2.000000000000000 2.000000000000000 2.000000000000000 2.000000000000000 2.000000000000000 2.000000000000000 2.000000000000000 0.000000000000000 0.000000000000000 0.000000000000000 0.000000000000000 0.000000000000000 0.000000000000000 0.000000000000000 0.000000000000000 0.000000000000000 0.000000000000000 0.000000000000000 0.000000000000000 0.000000000000000 0.000000000000000 0.000000000000000 0.000000000000000 0.000000000000000 0.000000000000000 0.000000000000000 0.000000000000000 0.000000000000000 0.000000000000000 0.000000000000000 0.000000000000000 0.000000000000000 0.000000000000000 0.000000000000000 0.000000000000000 0.000000000000000 0.000000000000000 0.000000000000000 0.000000000000000 0.000000000000000 0.000000000000000 0.000000000000000 0.000000000000000 0.000000000000000 0.000000000000000 0.000000000000000 0.000000000000000 0.000000000000000 0.000000000000000 0.000000000000000 0.000000000000000 0.000000000000000 0.000000000000000 0.000000000000000 0.000000000000000 0.000000000000000 0.000000000000000 0.000000000000000 0.000000000000000 0.000000000000000 0.000000000000000 0.000000000000000 0.000000000000000 0.000000000000000 0.000000000000000 0.000000000000000 0.000000000000000 0.000000000000000 0.000000000000000 0.000000000000000 0.000000000000000 0.000000000000000 0.000000000000000 0.000000000000000 0.000000000000000 0.000000000000000 0.000000000000000 0.000000000000000 0.000000000000000 0.000000000000000 0.000000000000000 0.000000000000000 0.000000000000000 0.000000000000000 0.000000000000000 0.000000000000000 0.000000000000000 0.000000000000000 0.000000000000000 0.000000000000000 0.000000000000000 0.000000000000000 0.000000000000000 0.000000000000000 0.000000000000000 0.000000000000000 0.000000000000000 0.000000000000000 0.000000000000000 0.000000000000000 0.000000000000000 0.000000000000000 0.000000000000000 0.000000000000000 0.000000000000000 0.000000000000000 0.000000000000000 0.000000000000000 0.000000000000000 0.000000000000000 0.000000000000000 0.000000000000000 
2.000000000000000 2.000000000000000 2.000000000000000 2.000000000000000 2.000000000000000 2.000000000000000 2.000000000000000 2.000000000000000 2.000000000000000 2.000000000000000 2.000000000000000 2.000000000000000 2.000000000000000 2.000000000000000 2.000000000000000 2.000000000000000 2.000000000000000 2.000000000000000 2.000000000000000 2.000000000000000 2.000000000000000 2.000000000000000 2.000000000000000 2.000000000000000 2.000000000000000 2.000000000000000 2.000000000000000 2.000000000000000 2.000000000000000 2.000000000000000 2.000000000000000 2.000000000000000 2.000000000000000 2.000000000000000 2.000000000000000 2.000000000000000 2.000000000000000 2.000000000000000 2.000000000000000 2.000000000000000 2.000000000000000 2.000000000000000 2.000000000000000 2.000000000000000 2.000000000000000 2.000000000000000 2.000000000000000 2.000000000000000 2.000000000000000 2.000000000000000 2.000000000000000 2.000000000000000 2.000000000000000 2.000000000000000 2.000000000000000 2.000000000000000 2.000000000000000 2.000000000000000 2.000000000000000 2.000000000000000 2.000000000000000 2.000000000000000 2.000000000000000 2.000000000000000 2.000000000000000 2.000000000000000 2.000000000000000 2.000000000000000 2.000000000000000 2.000000000000000 2.000000000000000 2.000000000000000 2.000000000000000 2.000000000000000 2.000000000000000 2.000000000000000 2.000000000000000 2.000000000000000 2.000000000000000 2.000000000000000 2.000000000000000 2.000000000000000 2.000000000000000 2.000000000000000 2.000000000000000 2.000000000000000 2.000000000000000 2.000000000000000 2.000000000000000 2.000000000000000 2.000000000000000 2.000000000000000 2.000000000000000 2.000000000000000 2.000000000000000 2.000000000000000 2.000000000000000 2.000000000000000 2.000000000000000 2.000000000000000 2.000000000000000 2.000000000000000 2.000000000000000 2.000000000000000 2.000000000000000 2.000000000000000 2.000000000000000 0.000000000000000 0.000000000000000 0.000000000000000 0.000000000000000 0.000000000000000 0.000000000000000 0.000000000000000 0.000000000000000 0.000000000000000 0.000000000000000 0.000000000000000 0.000000000000000 0.000000000000000 0.000000000000000 0.000000000000000 0.000000000000000 0.000000000000000 0.000000000000000 0.000000000000000 0.000000000000000 0.000000000000000 0.000000000000000 0.000000000000000 0.000000000000000 0.000000000000000 0.000000000000000 0.000000000000000 0.000000000000000 0.000000000000000 0.000000000000000 0.000000000000000 0.000000000000000 0.000000000000000 0.000000000000000 0.000000000000000 0.000000000000000 0.000000000000000 0.000000000000000 0.000000000000000 0.000000000000000 0.000000000000000 0.000000000000000 0.000000000000000 0.000000000000000 0.000000000000000 0.000000000000000 0.000000000000000 0.000000000000000 0.000000000000000 0.000000000000000 0.000000000000000 0.000000000000000 0.000000000000000 0.000000000000000 0.000000000000000 0.000000000000000 0.000000000000000 0.000000000000000 0.000000000000000 0.000000000000000 0.000000000000000 0.000000000000000 0.000000000000000 0.000000000000000 0.000000000000000 0.000000000000000 0.000000000000000 0.000000000000000 0.000000000000000 0.000000000000000 0.000000000000000 0.000000000000000 0.000000000000000 0.000000000000000 0.000000000000000 0.000000000000000 0.000000000000000 0.000000000000000 0.000000000000000 0.000000000000000 0.000000000000000 0.000000000000000 0.000000000000000 0.000000000000000 0.000000000000000 0.000000000000000 0.000000000000000 0.000000000000000 0.000000000000000 0.000000000000000 0.000000000000000 0.000000000000000 0.000000000000000 0.000000000000000 0.000000000000000 0.000000000000000 0.000000000000000 0.000000000000000 0.000000000000000 0.000000000000000 0.000000000000000 0.000000000000000 0.000000000000000 0.000000000000000 0.000000000000000 
2.000000000000000 2.000000000000000 2.000000000000000 2.000000000000000 2.000000000000000 2.000000000000000 2.000000000000000 2.000000000000000 2.000000000000000 2.000000000000000 2.000000000000000 2.000000000000000 2.000000000000000 2.000000000000000 2.000000000000000 2.000000000000000 2.000000000000000 2.000000000000000 2.000000000000000 2.000000000000000 2.000000000000000 2.000000000000000 2.000000000000000 2.000000000000000 2.000000000000000 2.000000000000000 2.000000000000000 2.000000000000000 2.000000000000000 2.000000000000000 2.000000000000000 2.000000000000000 2.000000000000000 2.000000000000000 2.000000000000000 2.000000000000000 2.000000000000000 2.000000000000000 2.000000000000000 2.000000000000000 2.000000000000000 2.000000000000000 2.000000000000000 2.000000000000000 2.000000000000000 2.000000000000000 2.000000000000000 2.000000000000000 2.000000000000000 2.000000000000000 2.000000000000000 2.000000000000000 2.000000000000000 2.000000000000000 2.000000000000000 2.000000000000000 2.000000000000000 2.000000000000000 2.000000000000000 2.000000000000000 2.000000000000000 2.000000000000000 2.000000000000000 2.000000000000000 2.000000000000000 2.000000000000000 2.000000000000000 2.000000000000000 2.000000000000000 2.000000000000000 2.000000000000000 2.000000000000000 2.000000000000000 2.000000000000000 2.000000000000000 2.000000000000000 2.000000000000000 2.000000000000000 2.000000000000000 2.000000000000000 2.000000000000000 2.000000000000000 2.000000000000000 2.000000000000000 2.000000000000000 2.000000000000000 2.000000000000000 2.000000000000000 2.000000000000000 2.000000000000000 2.000000000000000 2.000000000000000 2.000000000000000 2.000000000000000 2.000000000000000 2.000000000000000 2.000000000000000 2.000000000000000 2.000000000000000 2.000000000000000 2.000000000000000 2.000000000000000 2.000000000000000 2.000000000000000 2.000000000000000 2.000000000000000 2.000000000000000 0.000000000000000 0.000000000000000 0.000000000000000 0.000000000000000 0.000000000000000 0.000000000000000 0.000000000000000 0.000000000000000 0.000000000000000 0.000000000000000 0.000000000000000 0.000000000000000 0.000000000000000 0.000000000000000 0.000000000000000 0.000000000000000 0.000000000000000 0.000000000000000 0.000000000000000 0.000000000000000 0.000000000000000 0.000000000000000 0.000000000000000 0.000000000000000 0.000000000000000 0.000000000000000 0.000000000000000 0.000000000000000 0.000000000000000 0.000000000000000 0.000000000000000 0.000000000000000 0.000000000000000 0.000000000000000 0.000000000000000 0.000000000000000 0.000000000000000 0.000000000000000 0.000000000000000 0.000000000000000 0.000000000000000 0.000000000000000 0.000000000000000 0.000000000000000 0.000000000000000 0.000000000000000 0.000000000000000 0.000000000000000 0.000000000000000 0.000000000000000 0.000000000000000 0.000000000000000 0.000000000000000 0.000000000000000 0.000000000000000 0.000000000000000 0.000000000000000 0.000000000000000 0.000000000000000 0.000000000000000 0.000000000000000 0.000000000000000 0.000000000000000 0.000000000000000 0.000000000000000 0.000000000000000 0.000000000000000 0.000000000000000 0.000000000000000 0.000000000000000 0.000000000000000 0.000000000000000 0.000000000000000 0.000000000000000 0.000000000000000 0.000000000000000 0.000000000000000 0.000000000000000 0.000000000000000 0.000000000000000 0.000000000000000 0.000000000000000 0.000000000000000 0.000000000000000 0.000000000000000 0.000000000000000 0.000000000000000 0.000000000000000 0.000000000000000 0.000000000000000 0.000000000000000 0.000000000000000 0.000000000000000 0.000000000000000 0.000000000000000 0.000000000000000 0.000000000000000 0.000000000000000 0.000000000000000 0.000000000000000 0.000000000000000 0.000000000000000 0.000000000000000 0.000000000000000 0.000000000000000 
2.000000000000000 2.000000000000000 2.000000000000000 2.000000000000000 2.000000000000000 2.000000000000000 2.000000000000000 2.000000000000000 2.000000000000000 2.000000000000000 2.000000000000000 2.000000000000000 2.000000000000000 2.000000000000000 2.000000000000000 2.000000000000000 2.000000000000000 2.000000000000000 2.000000000000000 2.000000000000000 2.000000000000000 2.000000000000000 2.000000000000000 2.000000000000000 2.000000000000000 2.000000000000000 2.000000000000000 2.000000000000000 2.000000000000000 2.000000000000000 2.000000000000000 2.000000000000000 2.000000000000000 2.000000000000000 2.000000000000000 2.000000000000000 2.000000000000000 2.000000000000000 2.000000000000000 2.000000000000000 2.000000000000000 2.000000000000000 2.000000000000000 2.000000000000000 2.000000000000000 2.000000000000000 2.000000000000000 2.000000000000000 2.000000000000000 2.000000000000000 2.000000000000000 2.000000000000000 2.000000000000000 2.000000000000000 2.000000000000000 2.000000000000000 2.000000000000000 2.000000000000000 2.000000000000000 2.000000000000000 2.000000000000000 2.000000000000000 2.000000000000000 2.000000000000000 2.000000000000000 2.000000000000000 2.000000000000000 2.000000000000000 2.000000000000000 2.000000000000000 2.000000000000000 2.000000000000000 2.000000000000000 2.000000000000000 2.000000000000000 2.000000000000000 2.000000000000000 2.000000000000000 2.000000000000000 2.000000000000000 2.000000000000000 2.000000000000000 2.000000000000000 2.000000000000000 2.000000000000000 2.000000000000000 2.000000000000000 2.000000000000000 2.000000000000000 2.000000000000000 2.000000000000000 2.000000000000000 2.000000000000000 2.000000000000000 2.000000000000000 2.000000000000000 2.000000000000000 2.000000000000000 2.000000000000000 2.000000000000000 2.000000000000000 2.000000000000000 2.000000000000000 2.000000000000000 2.000000000000000 2.000000000000000 2.000000000000000 0.000000000000000 0.000000000000000 0.000000000000000 0.000000000000000 0.000000000000000 0.000000000000000 0.000000000000000 0.000000000000000 0.000000000000000 0.000000000000000 0.000000000000000 0.000000000000000 0.000000000000000 0.000000000000000 0.000000000000000 0.000000000000000 0.000000000000000 0.000000000000000 0.000000000000000 0.000000000000000 0.000000000000000 0.000000000000000 0.000000000000000 0.000000000000000 0.000000000000000 0.000000000000000 0.000000000000000 0.000000000000000 0.000000000000000 0.000000000000000 0.000000000000000 0.000000000000000 0.000000000000000 0.000000000000000 0.000000000000000 0.000000000000000 0.000000000000000 0.000000000000000 0.000000000000000 0.000000000000000 0.000000000000000 0.000000000000000 0.000000000000000 0.000000000000000 0.000000000000000 0.000000000000000 0.000000000000000 0.000000000000000 0.000000000000000 0.000000000000000 0.000000000000000 0.000000000000000 0.000000000000000 0.000000000000000 0.000000000000000 0.000000000000000 0.000000000000000 0.000000000000000 0.000000000000000 0.000000000000000 0.000000000000000 0.000000000000000 0.000000000000000 0.000000000000000 0.000000000000000 0.000000000000000 0.000000000000000 0.000000000000000 0.000000000000000 0.000000000000000 0.000000000000000 0.000000000000000 0.000000000000000 0.000000000000000 0.000000000000000 0.000000000000000 0.000000000000000 0.000000000000000 0.000000000000000 0.000000000000000 0.000000000000000 0.000000000000000 0.000000000000000 0.000000000000000 0.000000000000000 0.000000000000000 0.000000000000000 0.000000000000000 0.000000000000000 0.000000000000000 0.000000000000000 0.000000000000000 0.000000000000000 0.000000000000000 0.000000000000000 0.000000000000000 0.000000000000000 0.000000000000000 0.000000000000000 0.000000000000000 0.000000000000000 0.000000000000000 0.000000000000000 0.000000000000000 0.000000000000000 
2.000000000000000 2.000000000000000 2.000000000000000 2.000000000000000 2.000000000000000 2.000000000000000 2.000000000000000 2.000000000000000 2.000000000000000 2.000000000000000 2.000000000000000 2.000000000000000 2.000000000000000 2.000000000000000 2.000000000000000 2.000000000000000 2.000000000000000 2.000000000000000 2.000000000000000 2.000000000000000 2.000000000000000 2.000000000000000 2.000000000000000 2.000000000000000 2.000000000000000 2.000000000000000 2.000000000000000 2.000000000000000 2.000000000000000 2.000000000000000 2.000000000000000 2.000000000000000 2.000000000000000 2.000000000000000 2.000000000000000 2.000000000000000 2.000000000000000 2.000000000000000 2.000000000000000 2.000000000000000 2.000000000000000 2.000000000000000 2.000000000000000 2.000000000000000 2.000000000000000 2.000000000000000 2.000000000000000 2.000000000000000 2.000000000000000 2.000000000000000 2.000000000000000 2.000000000000000 2.000000000000000 2.000000000000000 2.000000000000000 2.000000000000000 2.000000000000000 2.000000000000000 2.000000000000000 2.000000000000000 2.000000000000000 2.000000000000000 2.000000000000000 2.000000000000000 2.000000000000000 2.000000000000000 2.000000000000000 2.000000000000000 2.000000000000000 2.000000000000000 2.000000000000000 2.000000000000000 2.000000000000000 2.000000000000000 2.000000000000000 2.000000000000000 2.000000000000000 2.000000000000000 2.000000000000000 2.000000000000000 2.000000000000000 2.000000000000000 2.000000000000000 2.000000000000000 2.000000000000000 2.000000000000000 2.000000000000000 2.000000000000000 2.000000000000000 2.000000000000000 2.000000000000000 2.000000000000000 2.000000000000000 2.000000000000000 2.000000000000000 2.000000000000000 2.000000000000000 2.000000000000000 2.000000000000000 2.000000000000000 2.000000000000000 2.000000000000000 2.000000000000000 2.000000000000000 2.000000000000000 2.000000000000000 2.000000000000000 0.000000000000000 0.000000000000000 0.000000000000000 0.000000000000000 0.000000000000000 0.000000000000000 0.000000000000000 0.000000000000000 0.000000000000000 0.000000000000000 0.000000000000000 0.000000000000000 0.000000000000000 0.000000000000000 0.000000000000000 0.000000000000000 0.000000000000000 0.000000000000000 0.000000000000000 0.000000000000000 0.000000000000000 0.000000000000000 0.000000000000000 0.000000000000000 0.000000000000000 0.000000000000000 0.000000000000000 0.000000000000000 0.000000000000000 0.000000000000000 0.000000000000000 0.000000000000000 0.000000000000000 0.000000000000000 0.000000000000000 0.000000000000000 0.000000000000000 0.000000000000000 0.000000000000000 0.000000000000000 0.000000000000000 0.000000000000000 0.000000000000000 0.000000000000000 0.000000000000000 0.000000000000000 0.000000000000000 0.000000000000000 0.000000000000000 0.000000000000000 0.000000000000000 0.000000000000000 0.000000000000000 0.000000000000000 0.000000000000000 0.000000000000000 0.000000000000000 0.000000000000000 0.000000000000000 0.000000000000000 0.000000000000000 0.000000000000000 0.000000000000000 0.000000000000000 0.000000000000000 0.000000000000000 0.000000000000000 0.000000000000000 0.000000000000000 0.000000000000000 0.000000000000000 0.000000000000000 0.000000000000000 0.000000000000000 0.000000000000000 0.000000000000000 0.000000000000000 0.000000000000000 0.000000000000000 0.000000000000000 0.000000000000000 0.000000000000000 0.000000000000000 0.000000000000000 0.000000000000000 0.000000000000000 0.000000000000000 0.000000000000000 0.000000000000000 0.000000000000000 0.000000000000000 0.000000000000000 0.000000000000000 0.000000000000000 0.000000000000000 0.000000000000000 0.000000000000000 0.000000000000000 0.000000000000000 0.000000000000000 0.000000000000000 0.000000000000000 0.000000000000000 0.000000000000000 0.000000000000000 
2.000000000000000 2.000000000000000 2.000000000000000 2.000000000000000 2.000000000000000 2.000000000000000 2.000000000000000 2.000000000000000 2.000000000000000 2.000000000000000 2.000000000000000 2.000000000000000 2.000000000000000 2.000000000000000 2.000000000000000 2.000000000000000 2.000000000000000 2.000000000000000 2.000000000000000 2.000000000000000 2.000000000000000 2.000000000000000 2.000000000000000 2.000000000000000 2.000000000000000 2.000000000000000 2.000000000000000 2.000000000000000 2.000000000000000 2.000000000000000 2.000000000000000 2.000000000000000 2.000000000000000 2.000000000000000 2.000000000000000 2.000000000000000 2.000000000000000 2.000000000000000 2.000000000000000 2.000000000000000 2.000000000000000 2.000000000000000 2.000000000000000 2.000000000000000 2.000000000000000 2.000000000000000 2.000000000000000 2.000000000000000 2.000000000000000 2.000000000000000 2.000000000000000 2.000000000000000 2.000000000000000 2.000000000000000 2.000000000000000 2.000000000000000 2.000000000000000 2.000000000000000 2.000000000000000 2.000000000000000 2.000000000000000 2.000000000000000 2.000000000000000 2.000000000000000 2.000000000000000 2.000000000000000 2.000000000000000 2.000000000000000 2.000000000000000 2.000000000000000 2.000000000000000 2.000000000000000 2.000000000000000 2.000000000000000 2.000000000000000 2.000000000000000 2.000000000000000 2.000000000000000 2.000000000000000 2.000000000000000 2.000000000000000 2.000000000000000 2.000000000000000 2.000000000000000 2.000000000000000 2.000000000000000 2.000000000000000 2.000000000000000 2.000000000000000 2.000000000000000 2.000000000000000 2.000000000000000 2.000000000000000 2.000000000000000 2.000000000000000 2.000000000000000 2.000000000000000 2.000000000000000 2.000000000000000 2.000000000000000 2.000000000000000 2.000000000000000 2.000000000000000 2.000000000000000 2.000000000000000 2.000000000000000 2.000000000000000 0.000000000000000 0.000000000000000 0.000000000000000 0.000000000000000 0.000000000000000 0.000000000000000 0.000000000000000 0.000000000000000 0.000000000000000 0.000000000000000 0.000000000000000 0.000000000000000 0.000000000000000 0.000000000000000 0.000000000000000 0.000000000000000 0.000000000000000 0.000000000000000 0.000000000000000 0.000000000000000 0.000000000000000 0.000000000000000 0.000000000000000 0.000000000000000 0.000000000000000 0.000000000000000 0.000000000000000 0.000000000000000 0.000000000000000 0.000000000000000 0.000000000000000 0.000000000000000 0.000000000000000 0.000000000000000 0.000000000000000 0.000000000000000 0.000000000000000 0.000000000000000 0.000000000000000 0.000000000000000 0.000000000000000 0.000000000000000 0.000000000000000 0.000000000000000 0.000000000000000 0.000000000000000 0.000000000000000 0.000000000000000 0.000000000000000 0.000000000000000 0.000000000000000 0.000000000000000 0.000000000000000 0.000000000000000 0.000000000000000 0.000000000000000 0.000000000000000 0.000000000000000 0.000000000000000 0.000000000000000 0.000000000000000 0.000000000000000 0.000000000000000 0.000000000000000 0.000000000000000 0.000000000000000 0.000000000000000 0.000000000000000 0.000000000000000 0.000000000000000 0.000000000000000 0.000000000000000 0.000000000000000 0.000000000000000 0.000000000000000 0.000000000000000 0.000000000000000 0.000000000000000 0.000000000000000 0.000000000000000 0.000000000000000 0.000000000000000 0.000000000000000 0.000000000000000 0.000000000000000 0.000000000000000 0.000000000000000 0.000000000000000 0.000000000000000 0.000000000000000 0.000000000000000 0.000000000000000 0.000000000000000 0.000000000000000 0.000000000000000 0.000000000000000 0.000000000000000 0.000000000000000 0.000000000000000 0.000000000000000 0.000000000000000 0.000000000000000 0.000000000000000 0.000000000000000 0.000000000000000 
2.000000000000000 2.000000000000000 2.000000000000000 2.000000000000000 2.000000000000000 2.000000000000000 2.000000000000000 2.000000000000000 2.000000000000000 2.000000000000000 2.000000000000000 2.000000000000000 2.000000000000000 2.000000000000000 2.000000000000000 2.000000000000000 2.000000000000000 2.000000000000000 2.000000000000000 2.000000000000000 2.000000000000000 2.000000000000000 2.000000000000000 2.000000000000000 2.000000000000000 2.000000000000000 2.000000000000000 2.000000000000000 2.000000000000000 2.000000000000000 2.000000000000000 2.000000000000000 2.000000000000000 2.000000000000000 2.000000000000000 2.000000000000000 2.000000000000000 2.000000000000000 2.000000000000000 2.000000000000000 2.000000000000000 2.000000000000000 2.000000000000000 2.000000000000000 2.000000000000000 2.000000000000000 2.000000000000000 2.000000000000000 2.000000000000000 2.000000000000000 2.000000000000000 2.000000000000000 2.000000000000000 2.000000000000000 2.000000000000000 2.000000000000000 2.000000000000000 2.000000000000000 2.000000000000000 2.000000000000000 2.000000000000000 2.000000000000000 2.000000000000000 2.000000000000000 2.000000000000000 2.000000000000000 2.000000000000000 2.000000000000000 2.000000000000000 2.000000000000000 2.000000000000000 2.000000000000000 2.000000000000000 2.000000000000000 2.000000000000000 2.000000000000000 2.000000000000000 2.000000000000000 2.000000000000000 2.000000000000000 2.000000000000000 2.000000000000000 2.000000000000000 2.000000000000000 2.000000000000000 2.000000000000000 2.000000000000000 2.000000000000000 2.000000000000000 2.000000000000000 2.000000000000000 2.000000000000000 2.000000000000000 2.000000000000000 2.000000000000000 2.000000000000000 2.000000000000000 2.000000000000000 2.000000000000000 2.000000000000000 2.000000000000000 2.000000000000000 2.000000000000000 2.000000000000000 2.000000000000000 2.000000000000000 2.000000000000000 0.000000000000000 0.000000000000000 0.000000000000000 0.000000000000000 0.000000000000000 0.000000000000000 0.000000000000000 0.000000000000000 0.000000000000000 0.000000000000000 0.000000000000000 0.000000000000000 0.000000000000000 0.000000000000000 0.000000000000000 0.000000000000000 0.000000000000000 0.000000000000000 0.000000000000000 0.000000000000000 0.000000000000000 0.000000000000000 0.000000000000000 0.000000000000000 0.000000000000000 0.000000000000000 0.000000000000000 0.000000000000000 0.000000000000000 0.000000000000000 0.000000000000000 0.000000000000000 0.000000000000000 0.000000000000000 0.000000000000000 0.000000000000000 0.000000000000000 0.000000000000000 0.000000000000000 0.000000000000000 0.000000000000000 0.000000000000000 0.000000000000000 0.000000000000000 0.000000000000000 0.000000000000000 0.000000000000000 0.000000000000000 0.000000000000000 0.000000000000000 0.000000000000000 0.000000000000000 0.000000000000000 0.000000000000000 0.000000000000000 0.000000000000000 0.000000000000000 0.000000000000000 0.000000000000000 0.000000000000000 0.000000000000000 0.000000000000000 0.000000000000000 0.000000000000000 0.000000000000000 0.000000000000000 0.000000000000000 0.000000000000000 0.000000000000000 0.000000000000000 0.000000000000000 0.000000000000000 0.000000000000000 0.000000000000000 0.000000000000000 0.000000000000000 0.000000000000000 0.000000000000000 0.000000000000000 0.000000000000000 0.000000000000000 0.000000000000000 0.000000000000000 0.000000000000000 0.000000000000000 0.000000000000000 0.000000000000000 0.000000000000000 0.000000000000000 0.000000000000000 0.000000000000000 0.000000000000000 0.000000000000000 0.000000000000000 0.000000000000000 0.000000000000000 0.000000000000000 0.000000000000000 0.000000000000000 0.000000000000000 0.000000000000000 0.000000000000000 0.000000000000000 0.000000000000000 0.000000000000000 
2.000000000000000 2.000000000000000 2.000000000000000 2.000000000000000 2.000000000000000 2.000000000000000 2.000000000000000 2.000000000000000 2.000000000000000 2.000000000000000 2.000000000000000 2.000000000000000 2.000000000000000 2.000000000000000 2.000000000000000 2.000000000000000 2.000000000000000 2.000000000000000 2.000000000000000 2.000000000000000 2.000000000000000 2.000000000000000 2.000000000000000 2.000000000000000 2.000000000000000 2.000000000000000 2.000000000000000 2.000000000000000 2.000000000000000 2.000000000000000 2.000000000000000 2.000000000000000 2.000000000000000 2.000000000000000 2.000000000000000 2.000000000000000 2.000000000000000 2.000000000000000 2.000000000000000 2.000000000000000 2.000000000000000 2.000000000000000 2.000000000000000 2.000000000000000 2.000000000000000 2.000000000000000 2.000000000000000 2.000000000000000 2.000000000000000 2.000000000000000 2.000000000000000 2.000000000000000 2.000000000000000 2.000000000000000 2.000000000000000 2.000000000000000 2.000000000000000 2.000000000000000 2.000000000000000 2.000000000000000 2.000000000000000 2.000000000000000 2.000000000000000 2.000000000000000 2.000000000000000 2.000000000000000 2.000000000000000 2.000000000000000 2.000000000000000 2.000000000000000 2.000000000000000 2.000000000000000 2.000000000000000 2.000000000000000 2.000000000000000 2.000000000000000 2.000000000000000 2.000000000000000 2.000000000000000 2.000000000000000 2.000000000000000 2.000000000000000 2.000000000000000 2.000000000000000 2.000000000000000 2.000000000000000 2.000000000000000 2.000000000000000 2.000000000000000 2.000000000000000 2.000000000000000 2.000000000000000 2.000000000000000 2.000000000000000 2.000000000000000 2.000000000000000 2.000000000000000 2.000000000000000 2.000000000000000 2.000000000000000 2.000000000000000 2.000000000000000 2.000000000000000 2.000000000000000 2.000000000000000 2.000000000000000 2.000000000000000 0.000000000000000 0.000000000000000 0.000000000000000 0.000000000000000 0.000000000000000 0.000000000000000 0.000000000000000 0.000000000000000 0.000000000000000 0.000000000000000 0.000000000000000 0.000000000000000 0.000000000000000 0.000000000000000 0.000000000000000 0.000000000000000 0.000000000000000 0.000000000000000 0.000000000000000 0.000000000000000 0.000000000000000 0.000000000000000 0.000000000000000 0.000000000000000 0.000000000000000 0.000000000000000 0.000000000000000 0.000000000000000 0.000000000000000 0.000000000000000 0.000000000000000 0.000000000000000 0.000000000000000 0.000000000000000 0.000000000000000 0.000000000000000 0.000000000000000 0.000000000000000 0.000000000000000 0.000000000000000 0.000000000000000 0.000000000000000 0.000000000000000 0.000000000000000 0.000000000000000 0.000000000000000 0.000000000000000 0.000000000000000 0.000000000000000 0.000000000000000 0.000000000000000 0.000000000000000 0.000000000000000 0.000000000000000 0.000000000000000 0.000000000000000 0.000000000000000 0.000000000000000 0.000000000000000 0.000000000000000 0.000000000000000 0.000000000000000 0.000000000000000 0.000000000000000 0.000000000000000 0.000000000000000 0.000000000000000 0.000000000000000 0.000000000000000 0.000000000000000 0.000000000000000 0.000000000000000 0.000000000000000 0.000000000000000 0.000000000000000 0.000000000000000 0.000000000000000 0.000000000000000 0.000000000000000 0.000000000000000 0.000000000000000 0.000000000000000 0.000000000000000 0.000000000000000 0.000000000000000 0.000000000000000 0.000000000000000 0.000000000000000 0.000000000000000 0.000000000000000 0.000000000000000 0.000000000000000 0.000000000000000 0.000000000000000 0.000000000000000 0.000000000000000 0.000000000000000 0.000000000000000 0.000000000000000 0.000000000000000 0.000000000000000 0.000000000000000 0.000000000000000 0.000000000000000 0.000000000000000 
2.000000000000000 2.000000000000000 2.000000000000000 2.000000000000000 2.000000000000000 2.000000000000000 2.000000000000000 2.000000000000000 2.000000000000000 2.000000000000000 2.000000000000000 2.000000000000000 2.000000000000000 2.000000000000000 2.000000000000000 2.000000000000000 2.000000000000000 2.000000000000000 2.000000000000000 2.000000000000000 2.000000000000000 2.000000000000000 2.000000000000000 2.000000000000000 2.000000000000000 2.000000000000000 2.000000000000000 2.000000000000000 2.000000000000000 2.000000000000000 2.000000000000000 2.000000000000000 2.000000000000000 2.000000000000000 2.000000000000000 2.000000000000000 2.000000000000000 2.000000000000000 2.000000000000000 2.000000000000000 2.000000000000000 2.000000000000000 2.000000000000000 2.000000000000000 2.000000000000000 2.000000000000000 2.000000000000000 2.000000000000000 2.000000000000000 2.000000000000000 2.000000000000000 2.000000000000000 2.000000000000000 2.000000000000000 2.000000000000000 2.000000000000000 2.000000000000000 2.000000000000000 2.000000000000000 2.000000000000000 2.000000000000000 2.000000000000000 2.000000000000000 2.000000000000000 2.000000000000000 2.000000000000000 2.000000000000000 2.000000000000000 2.000000000000000 2.000000000000000 2.000000000000000 2.000000000000000 2.000000000000000 2.000000000000000 2.000000000000000 2.000000000000000 2.000000000000000 2.000000000000000 2.000000000000000 2.000000000000000 2.000000000000000 2.000000000000000 2.000000000000000 2.000000000000000 2.000000000000000 2.000000000000000 2.000000000000000 2.000000000000000 2.000000000000000 2.000000000000000 2.000000000000000 2.000000000000000 2.000000000000000 2.000000000000000 2.000000000000000 2.000000000000000 2.000000000000000 2.000000000000000 2.000000000000000 2.000000000000000 2.000000000000000 2.000000000000000 2.000000000000000 2.000000000000000 2.000000000000000 2.000000000000000 2.000000000000000 0.000000000000000 0.000000000000000 0.000000000000000 0.000000000000000 0.000000000000000 0.000000000000000 0.000000000000000 0.000000000000000 0.000000000000000 0.000000000000000 0.000000000000000 0.000000000000000 0.000000000000000 0.000000000000000 0.000000000000000 0.000000000000000 0.000000000000000 0.000000000000000 0.000000000000000 0.000000000000000 0.000000000000000 0.000000000000000 0.000000000000000 0.000000000000000 0.000000000000000 0.000000000000000 0.000000000000000 0.000000000000000 0.000000000000000 0.000000000000000 0.000000000000000 0.000000000000000 0.000000000000000 0.000000000000000 0.000000000000000 0.000000000000000 0.000000000000000 0.000000000000000 0.000000000000000 0.000000000000000 0.000000000000000 0.000000000000000 0.000000000000000 0.000000000000000 0.000000000000000 0.000000000000000 0.000000000000000 0.000000000000000 0.000000000000000 0.000000000000000 0.000000000000000 0.000000000000000 0.000000000000000 0.000000000000000 0.000000000000000 0.000000000000000 0.000000000000000 0.000000000000000 0.000000000000000 0.000000000000000 0.000000000000000 0.000000000000000 0.000000000000000 0.000000000000000 0.000000000000000 0.000000000000000 0.000000000000000 0.000000000000000 0.000000000000000 0.000000000000000 0.000000000000000 0.000000000000000 0.000000000000000 0.000000000000000 0.000000000000000 0.000000000000000 0.000000000000000 0.000000000000000 0.000000000000000 0.000000000000000 0.000000000000000 0.000000000000000 0.000000000000000 0.000000000000000 0.000000000000000 0.000000000000000 0.000000000000000 0.000000000000000 0.000000000000000 0.000000000000000 0.000000000000000 0.000000000000000 0.000000000000000 0.000000000000000 0.000000000000000 0.000000000000000 0.000000000000000 0.000000000000000 0.000000000000000 0.000000000000000 0.000000000000000 0.000000000000000 0.000000000000000 0.000000000000000 0.000000000000000 
2.000000000000000 2.000000000000000 2.000000000000000 2.000000000000000 2.000000000000000 2.000000000000000 2.000000000000000 2.000000000000000 2.000000000000000 2.000000000000000 2.000000000000000 2.000000000000000 2.000000000000000 2.000000000000000 2.000000000000000 2.000000000000000 2.000000000000000 2.000000000000000 2.000000000000000 2.000000000000000 2.000000000000000 2.000000000000000 2.000000000000000 2.000000000000000 2.000000000000000 2.000000000000000 2.000000000000000 2.000000000000000 2.000000000000000 2.000000000000000 2.000000000000000 2.000000000000000 2.000000000000000 2.000000000000000 2.000000000000000 2.000000000000000 2.000000000000000 2.000000000000000 2.000000000000000 2.000000000000000 2.000000000000000 2.000000000000000 2.000000000000000 2.000000000000000 2.000000000000000 2.000000000000000 2.000000000000000 2.000000000000000 2.000000000000000 2.000000000000000 2.000000000000000 2.000000000000000 2.000000000000000 2.000000000000000 2.000000000000000 2.000000000000000 2.000000000000000 2.000000000000000 2.000000000000000 2.000000000000000 2.000000000000000 2.000000000000000 2.000000000000000 2.000000000000000 2.000000000000000 2.000000000000000 2.000000000000000 2.000000000000000 2.000000000000000 2.000000000000000 2.000000000000000 2.000000000000000 2.000000000000000 2.000000000000000 2.000000000000000 2.000000000000000 2.000000000000000 2.000000000000000 2.000000000000000 2.000000000000000 2.000000000000000 2.000000000000000 2.000000000000000 2.000000000000000 2.000000000000000 2.000000000000000 2.000000000000000 2.000000000000000 2.000000000000000 2.000000000000000 2.000000000000000 2.000000000000000 2.000000000000000 2.000000000000000 2.000000000000000 2.000000000000000 2.000000000000000 2.000000000000000 2.000000000000000 2.000000000000000 2.000000000000000 2.000000000000000 2.000000000000000 2.000000000000000 2.000000000000000 2.000000000000000 2.000000000000000 0.000000000000000 0.000000000000000 0.000000000000000 0.000000000000000 0.000000000000000 0.000000000000000 0.000000000000000 0.000000000000000 0.000000000000000 0.000000000000000 0.000000000000000 0.000000000000000 0.000000000000000 0.000000000000000 0.000000000000000 0.000000000000000 0.000000000000000 0.000000000000000 0.000000000000000 0.000000000000000 0.000000000000000 0.000000000000000 0.000000000000000 0.000000000000000 0.000000000000000 0.000000000000000 0.000000000000000 0.000000000000000 0.000000000000000 0.000000000000000 0.000000000000000 0.000000000000000 0.000000000000000 0.000000000000000 0.000000000000000 0.000000000000000 0.000000000000000 0.000000000000000 0.000000000000000 0.000000000000000 0.000000000000000 0.000000000000000 0.000000000000000 0.000000000000000 0.000000000000000 0.000000000000000 0.000000000000000 0.000000000000000 0.000000000000000 0.000000000000000 0.000000000000000 0.000000000000000 0.000000000000000 0.000000000000000 0.000000000000000 0.000000000000000 0.000000000000000 0.000000000000000 0.000000000000000 0.000000000000000 0.000000000000000 0.000000000000000 0.000000000000000 0.000000000000000 0.000000000000000 0.000000000000000 0.000000000000000 0.000000000000000 0.000000000000000 0.000000000000000 0.000000000000000 0.000000000000000 0.000000000000000 0.000000000000000 0.000000000000000 0.000000000000000 0.000000000000000 0.000000000000000 0.000000000000000 0.000000000000000 0.000000000000000 0.000000000000000 0.000000000000000 0.000000000000000 0.000000000000000 0.000000000000000 0.000000000000000 0.000000000000000 0.000000000000000 0.000000000000000 0.000000000000000 0.000000000000000 0.000000000000000 0.000000000000000 0.000000000000000 0.000000000000000 0.000000000000000 0.000000000000000 0.000000000000000 0.000000000000000 0.000000000000000 0.000000000000000 0.000000000000000 0.000000000000000 0.000000000000000 
2.000000000000000 2.000000000000000 2.000000000000000 2.000000000000000 2.000000000000000 2.000000000000000 2.000000000000000 2.000000000000000 2.000000000000000 2.000000000000000 2.000000000000000 2.000000000000000 2.000000000000000 2.000000000000000 2.000000000000000 2.000000000000000 2.000000000000000 2.000000000000000 2.000000000000000 2.000000000000000 2.000000000000000 2.000000000000000 2.000000000000000 2.000000000000000 2.000000000000000 2.000000000000000 2.000000000000000 2.000000000000000 2.000000000000000 2.000000000000000 2.000000000000000 2.000000000000000 2.000000000000000 2.000000000000000 2.000000000000000 2.000000000000000 2.000000000000000 2.000000000000000 2.000000000000000 2.000000000000000 2.000000000000000 2.000000000000000 2.000000000000000 2.000000000000000 2.000000000000000 2.000000000000000 2.000000000000000 2.000000000000000 2.000000000000000 2.000000000000000 2.000000000000000 2.000000000000000 2.000000000000000 2.000000000000000 2.000000000000000 2.000000000000000 2.000000000000000 2.000000000000000 2.000000000000000 2.000000000000000 2.000000000000000 2.000000000000000 2.000000000000000 2.000000000000000 2.000000000000000 2.000000000000000 2.000000000000000 2.000000000000000 2.000000000000000 2.000000000000000 2.000000000000000 2.000000000000000 2.000000000000000 2.000000000000000 2.000000000000000 2.000000000000000 2.000000000000000 2.000000000000000 2.000000000000000 2.000000000000000 2.000000000000000 2.000000000000000 2.000000000000000 2.000000000000000 2.000000000000000 2.000000000000000 2.000000000000000 2.000000000000000 2.000000000000000 2.000000000000000 2.000000000000000 2.000000000000000 2.000000000000000 2.000000000000000 2.000000000000000 2.000000000000000 2.000000000000000 2.000000000000000 2.000000000000000 2.000000000000000 2.000000000000000 2.000000000000000 2.000000000000000 2.000000000000000 2.000000000000000 2.000000000000000 2.000000000000000 0.000000000000000 0.000000000000000 0.000000000000000 0.000000000000000 0.000000000000000 0.000000000000000 0.000000000000000 0.000000000000000 0.000000000000000 0.000000000000000 0.000000000000000 0.000000000000000 0.000000000000000 0.000000000000000 0.000000000000000 0.000000000000000 0.000000000000000 0.000000000000000 0.000000000000000 0.000000000000000 0.000000000000000 0.000000000000000 0.000000000000000 0.000000000000000 0.000000000000000 0.000000000000000 0.000000000000000 0.000000000000000 0.000000000000000 0.000000000000000 0.000000000000000 0.000000000000000 0.000000000000000 0.000000000000000 0.000000000000000 0.000000000000000 0.000000000000000 0.000000000000000 0.000000000000000 0.000000000000000 0.000000000000000 0.000000000000000 0.000000000000000 0.000000000000000 0.000000000000000 0.000000000000000 0.000000000000000 0.000000000000000 0.000000000000000 0.000000000000000 0.000000000000000 0.000000000000000 0.000000000000000 0.000000000000000 0.000000000000000 0.000000000000000 0.000000000000000 0.000000000000000 0.000000000000000 0.000000000000000 0.000000000000000 0.000000000000000 0.000000000000000 0.000000000000000 0.000000000000000 0.000000000000000 0.000000000000000 0.000000000000000 0.000000000000000 0.000000000000000 0.000000000000000 0.000000000000000 0.000000000000000 0.000000000000000 0.000000000000000 0.000000000000000 0.000000000000000 0.000000000000000 0.000000000000000 0.000000000000000 0.000000000000000 0.000000000000000 0.000000000000000 0.000000000000000 0.000000000000000 0.000000000000000 0.000000000000000 0.000000000000000 0.000000000000000 0.000000000000000 0.000000000000000 0.000000000000000 0.000000000000000 0.000000000000000 0.000000000000000 0.000000000000000 0.000000000000000 0.000000000000000 0.000000000000000 0.000000000000000 0.000000000000000 0.000000000000000 0.000000000000000 0.000000000000000 0.000000000000000 
2.000000000000000 2.000000000000000 2.000000000000000 2.000000000000000 2.000000000000000 2.000000000000000 2.000000000000000 2.000000000000000 2.000000000000000 2.000000000000000 2.000000000000000 2.000000000000000 2.000000000000000 2.000000000000000 2.000000000000000 2.000000000000000 2.000000000000000 2.000000000000000 2.000000000000000 2.000000000000000 2.000000000000000 2.000000000000000 2.000000000000000 2.000000000000000 2.000000000000000 2.000000000000000 2.000000000000000 2.000000000000000 2.000000000000000 2.000000000000000 2.000000000000000 2.000000000000000 2.000000000000000 2.000000000000000 2.000000000000000 2.000000000000000 2.000000000000000 2.000000000000000 2.000000000000000 2.000000000000000 2.000000000000000 2.000000000000000 2.000000000000000 2.000000000000000 2.000000000000000 2.000000000000000 2.000000000000000 2.000000000000000 2.000000000000000 2.000000000000000 2.000000000000000 2.000000000000000 2.000000000000000 2.000000000000000 2.000000000000000 2.000000000000000 2.000000000000000 2.000000000000000 2.000000000000000 2.000000000000000 2.000000000000000 2.000000000000000 2.000000000000000 2.000000000000000 2.000000000000000 2.000000000000000 2.000000000000000 2.000000000000000 2.000000000000000 2.000000000000000 2.000000000000000 2.000000000000000 2.000000000000000 2.000000000000000 2.000000000000000 2.000000000000000 2.000000000000000 2.000000000000000 2.000000000000000 2.000000000000000 2.000000000000000 2.000000000000000 2.000000000000000 2.000000000000000 2.000000000000000 2.000000000000000 2.000000000000000 2.000000000000000 2.000000000000000 2.000000000000000 2.000000000000000 2.000000000000000 2.000000000000000 2.000000000000000 2.000000000000000 2.000000000000000 2.000000000000000 2.000000000000000 2.000000000000000 2.000000000000000 2.000000000000000 2.000000000000000 2.000000000000000 2.000000000000000 2.000000000000000 2.000000000000000 2.000000000000000 0.000000000000000 0.000000000000000 0.000000000000000 0.000000000000000 0.000000000000000 0.000000000000000 0.000000000000000 0.000000000000000 0.000000000000000 0.000000000000000 0.000000000000000 0.000000000000000 0.000000000000000 0.000000000000000 0.000000000000000 0.000000000000000 0.000000000000000 0.000000000000000 0.000000000000000 0.000000000000000 0.000000000000000 0.000000000000000 0.000000000000000 0.000000000000000 0.000000000000000 0.000000000000000 0.000000000000000 0.000000000000000 0.000000000000000 0.000000000000000 0.000000000000000 0.000000000000000 0.000000000000000 0.000000000000000 0.000000000000000 0.000000000000000 0.000000000000000 0.000000000000000 0.000000000000000 0.000000000000000 0.000000000000000 0.000000000000000 0.000000000000000 0.000000000000000 0.000000000000000 0.000000000000000 0.000000000000000 0.000000000000000 0.000000000000000 0.000000000000000 0.000000000000000 0.000000000000000 0.000000000000000 0.000000000000000 0.000000000000000 0.000000000000000 0.000000000000000 0.000000000000000 0.000000000000000 0.000000000000000 0.000000000000000 0.000000000000000 0.000000000000000 0.000000000000000 0.000000000000000 0.000000000000000 0.000000000000000 0.000000000000000 0.000000000000000 0.000000000000000 0.000000000000000 0.000000000000000 0.000000000000000 0.000000000000000 0.000000000000000 0.000000000000000 0.000000000000000 0.000000000000000 0.000000000000000 0.000000000000000 0.000000000000000 0.000000000000000 0.000000000000000 0.000000000000000 0.000000000000000 0.000000000000000 0.000000000000000 0.000000000000000 0.000000000000000 0.000000000000000 0.000000000000000 0.000000000000000 0.000000000000000 0.000000000000000 0.000000000000000 0.000000000000000 0.000000000000000 0.000000000000000 0.000000000000000 0.000000000000000 0.000000000000000 0.000000000000000 0.000000000000000 0.000000000000000 0.000000000000000 
2.000000000000000 2.000000000000000 2.000000000000000 2.000000000000000 2.000000000000000 2.000000000000000 2.000000000000000 2.000000000000000 2.000000000000000 2.000000000000000 2.000000000000000 2.000000000000000 2.000000000000000 2.000000000000000 2.000000000000000 2.000000000000000 2.000000000000000 2.000000000000000 2.000000000000000 2.000000000000000 2.000000000000000 2.000000000000000 2.000000000000000 2.000000000000000 2.000000000000000 2.000000000000000 2.000000000000000 2.000000000000000 2.000000000000000 2.000000000000000 2.000000000000000 2.000000000000000 2.000000000000000 2.000000000000000 2.000000000000000 2.000000000000000 2.000000000000000 2.000000000000000 2.000000000000000 2.000000000000000 2.000000000000000 2.000000000000000 2.000000000000000 2.000000000000000 2.000000000000000 2.000000000000000 2.000000000000000 2.000000000000000 2.000000000000000 2.000000000000000 2.000000000000000 2.000000000000000 2.000000000000000 2.000000000000000 2.000000000000000 2.000000000000000 2.000000000000000 2.000000000000000 2.000000000000000 2.000000000000000 2.000000000000000 2.000000000000000 2.000000000000000 2.000000000000000 2.000000000000000 2.000000000000000 2.000000000000000 2.000000000000000 2.000000000000000 2.000000000000000 2.000000000000000 2.000000000000000 2.000000000000000 2.000000000000000 2.000000000000000 2.000000000000000 2.000000000000000 2.000000000000000 2.000000000000000 2.000000000000000 2.000000000000000 2.000000000000000 2.000000000000000 2.000000000000000 2.000000000000000 2.000000000000000 2.000000000000000 2.000000000000000 2.000000000000000 2.000000000000000 2.000000000000000 2.000000000000000 2.000000000000000 2.000000000000000 2.000000000000000 2.000000000000000 2.000000000000000 2.000000000000000 2.000000000000000 2.000000000000000 2.000000000000000 2.000000000000000 2.000000000000000 2.000000000000000 2.000000000000000 2.000000000000000 2.000000000000000 0.000000000000000 0.000000000000000 0.000000000000000 0.000000000000000 0.000000000000000 0.000000000000000 0.000000000000000 0.000000000000000 0.000000000000000 0.000000000000000 0.000000000000000 0.000000000000000 0.000000000000000 0.000000000000000 0.000000000000000 0.000000000000000 0.000000000000000 0.000000000000000 0.000000000000000 0.000000000000000 0.000000000000000 0.000000000000000 0.000000000000000 0.000000000000000 0.000000000000000 0.000000000000000 0.000000000000000 0.000000000000000 0.000000000000000 0.000000000000000 0.000000000000000 0.000000000000000 0.000000000000000 0.000000000000000 0.000000000000000 0.000000000000000 0.000000000000000 0.000000000000000 0.000000000000000 0.000000000000000 0.000000000000000 0.000000000000000 0.000000000000000 0.000000000000000 0.000000000000000 0.000000000000000 0.000000000000000 0.000000000000000 0.000000000000000 0.000000000000000 0.000000000000000 0.000000000000000 0.000000000000000 0.000000000000000 0.000000000000000 0.000000000000000 0.000000000000000 0.000000000000000 0.000000000000000 0.000000000000000 0.000000000000000 0.000000000000000 0.000000000000000 0.000000000000000 0.000000000000000 0.000000000000000 0.000000000000000 0.000000000000000 0.000000000000000 0.000000000000000 0.000000000000000 0.000000000000000 0.000000000000000 0.000000000000000 0.000000000000000 0.000000000000000 0.000000000000000 0.000000000000000 0.000000000000000 0.000000000000000 0.000000000000000 0.000000000000000 0.000000000000000 0.000000000000000 0.000000000000000 0.000000000000000 0.000000000000000 0.000000000000000 0.000000000000000 0.000000000000000 0.000000000000000 0.000000000000000 0.000000000000000 0.000000000000000 0.000000000000000 0.000000000000000 0.000000000000000 0.000000000000000 0.000000000000000 0.000000000000000 0.000000000000000 0.000000000000000 0.000000000000000 0.000000000000000 0.000000000000000 
[...]
 103   3.533045e-01   6.845242e-01   6.845242e-01
 104   3.240142e-01   6.849412e-01   6.849412e-01
 105   3.091078e-01   6.851651e-01   6.851651e-01
 106   9.800854e-02   6.902298e-01   6.902298e-01
 107   5.578969e-02   6.925716e-01   6.925716e-01
 108   4.001231e-02   6.939338e-01   6.939338e-01
 109   3.362412e-03   7.039135e-01   7.039135e-01
 110   1.047360e-04   7.177963e-01   7.177963e-01
 111   8.798628e-05   7.184931e-01   7.184931e-01
 112   6.793223e-05   7.195274e-01   7.195274e-01
 113   3.647090e-05   7.220160e-01   7.220160e-01
 114   1.027236e-05   7.270844e-01   7.270844e-01
 115   7.720797e-06   7.282260e-01   7.282260e-01
 116   5.288340e-06   7.297398e-01   7.297398e-01
 117   3.949391e-06   7.309080e-01   7.309080e-01
 118   4.157830e-07   7.399133e-01   7.399133e-01
 119   8.970915e-08   7.460482e-01   7.460482e-01
 120   8.854251e-08   7.460995e-01   7.460995e-01
 121   7.692647e-11   7.742936e-01   7.742936e-01
 122   5.661194e-11   7.755204e-01   7.755204e-01
 123   1.260247e-11   7.815277e-01   7.815277e-01
 124   6.868284e-12   7.839574e-01   7.839574e-01
 125   3.467782e-12   7.866910e-01   7.866910e-01
 126   1.327050e-12   7.905340e-01   7.905340e-01
 127   5.638823e-13   7.939561e-01   7.939561e-01
 128   5.347944e-13   7.941686e-01   7.941686e-01
 129   1.056932e-13   8.006533e-01   8.006533e-01
 130   8.826273e-14   8.013738e-01   8.013738e-01
 131   8.193446e-14   8.016732e-01   8.016732e-01
 132   5.639933e-14   8.031664e-01   8.031664e-01
 133   4.518608e-14   8.040576e-01   8.040576e-01
 134   7.438494e-15   8.112761e-01   8.112761e-01
 135   5.551115e-15   8.124560e-01   8.124560e-01
 136   1.332268e-15   8.181282e-01   8.181282e-01
 137   8.881784e-16   8.198776e-01   8.198776e-01
 138   6.661338e-16   8.207147e-01   8.207147e-01
 139   2.220446e-16   8.248796e-01   8.248796e-01
 140   2.220446e-16   8.263632e-01   8.263632e-01
 141   0.000000e+00   8.327973e-01   8.327973e-01
 142   0.000000e+00   8.334662e-01   8.334662e-01
 143   0.000000e+00   8.428146e-01   8.428146e-01
 144   0.000000e+00   8.444194e-01   8.444194e-01
 145   0.000000e+00   8.461090e-01   8.461090e-01
 146   0.000000e+00   8.486811e-01   8.486811e-01
 147   0.000000e+00   8.496256e-01   8.496256e-01
 148   0.000000e+00   8.529701e-01   8.529701e-01
 149   0.000000e+00   8.540718e-01   8.540718e-01
 150   0.000000e+00   8.644235e-01   8.644234e-01
 151   0.000000e+00   8.678440e-01   8.678440e-01
 152   0.000000e+00   8.683686e-01   8.683686e-01
 153   0.000000e+00   8.892167e-01   8.892167e-01
 154   0.000000e+00   8.906855e-01   8.906855e-01
 155   0.000000e+00   8.913933e-01   8.913933e-01
 156   0.000000e+00   8.940111e-01   8.940110e-01
 157   0.000000e+00   8.967654e-01   8.967654e-01
 158   0.000000e+00   9.381048e-01   9.381048e-01
 159   0.000000e+00   9.420873e-01   9.420873e-01
 160   0.000000e+00   9.430595e-01   9.430595e-01
 161   0.000000e+00   9.967303e-01   9.967298e-01
 162   0.000000e+00   1.027943e+00   1.027943e+00
 163   0.000000e+00   1.055561e+00   1.055561e+00
 164   0.000000e+00   1.062100e+00   1.062100e+00
 165   0.000000e+00   1.067755e+00   1.067753e+00
 166   0.000000e+00   1.068087e+00   1.068086e+00
 167   0.000000e+00   1.071706e+00   1.071706e+00
 168   0.000000e+00   1.101360e+00   1.101358e+00
 169   0.000000e+00   1.109562e+00   1.109554e+00
 170   0.000000e+00   1.114822e+00   1.114822e+00
 171   0.000000e+00   1.114870e+00   1.114870e+00
 172   0.000000e+00   1.122424e+00   1.122422e+00
 173   0.000000e+00   1.124189e+00   1.124181e+00
 174   0.000000e+00   1.129371e+00   1.129361e+00
 175   0.000000e+00   1.135588e+00   1.135588e+00
 176   0.000000e+00   1.142713e+00   1.142616e+00
 177   0.000000e+00   1.144008e+00   1.143999e+00
 178   0.000000e+00   1.146395e+00   1.146395e+00
 179   0.000000e+00   1.147421e+00   1.147421e+00
 180   0.000000e+00   1.154181e+00   1.154144e+00
 181   0.000000e+00   1.154521e+00   1.154440e+00
 182   0.000000e+00   1.163544e+00   1.163534e+00
 183   0.000000e+00   1.170359e+00   1.170342e+00
 184   0.000000e+00   1.186146e+00   1.186017e+00
 185   0.000000e+00   1.200256e+00   1.198298e+00
 186   0.000000e+00   1.199415e+00   1.200347e+00
 187   0.000000e+00   1.229005e+00   1.228847e+00
 188   0.000000e+00   1.243070e+00   1.239872e+00
 189   0.000000e+00   1.252321e+00   1.248119e+00
 190   0.000000e+00   1.253134e+00   1.252863e+00
 191   0.000000e+00   1.260460e+00   1.258091e+00
 192   0.000000e+00   1.264286e+00   1.260208e+00
 193   0.000000e+00   1.267019e+00   1.266159e+00
 194   0.000000e+00   1.273804e+00   1.268170e+00
 195   0.000000e+00   1.289742e+00   1.279652e+00
 196   0.000000e+00   1.292466e+00   1.289765e+00
 197   0.000000e+00   1.297608e+00   1.295198e+00
 198   0.000000e+00   1.292642e+00   1.296947e+00
 199   0.000000e+00   1.291693e+00   1.297611e+00
 200   0.000000e+00   1.313668e+00   1.302511e+00
 201   0.000000e+00   1.306561e+00   1.316764e+00
 202   0.000000e+00   1.323280e+00   1.323300e+00
 203   0.000000e+00   1.326282e+00   1.323465e+00
 204   0.000000e+00   1.343190e+00   1.330047e+00
 205   0.000000e+00   1.341880e+00   1.340504e+00
 206   0.000000e+00   1.332149e+00   1.343204e+00
 207   0.000000e+00   1.355406e+00   1.356770e+00
 208   0.000000e+00   1.362181e+00   1.361214e+00
 209   0.000000e+00   1.339583e+00   1.363574e+00
 210   0.000000e+00   1.357513e+00   1.366693e+00
 211   0.000000e+00   1.420023e+00   1.420859e+00

state = 2   q_k = [ 0 0 0.5 ]   w = 0.03125   spin = 0
band     filling       diag(Hsub)      epsilon   
-------------------------------------------------
   0   2.000000e+00  -1.327185e+00  -1.327185e+00
   1   2.000000e+00  -1.324914e+00  -1.324914e+00
   2   2.000000e+00  -1.323217e+00  -1.323217e+00
   3   2.000000e+00  -1.322897e+00  -1.322897e+00
   4   2.000000e+00  -1.322816e+00  -1.322816e+00
   5   2.000000e+00  -1.321349e+00  -1.321349e+00
   6   2.000000e+00  -1.314515e+00  -1.314515e+00
   7   2.000000e+00  -1.314047e+00  -1.314047e+00
   8   2.000000e+00  -1.312992e+00  -1.312992e+00
   9   2.000000e+00  -1.312940e+00  -1.312940e+00
  10   2.000000e+00  -1.311025e+00  -1.311025e+00
  11   2.000000e+00  -1.308675e+00  -1.308675e+00
  12   2.000000e+00  -1.308354e+00  -1.308354e+00
  13   2.000000e+00  -1.308067e+00  -1.308067e+00
  14   2.000000e+00  -1.306797e+00  -1.306797e+00
  15   2.000000e+00  -1.305374e+00  -1.305374e+00
  16   2.000000e+00  -4.888144e-01  -4.888144e-01
  17   2.000000e+00  -4.627121e-01  -4.627121e-01
  18   2.000000e+00  -4.617629e-01  -4.617629e-01
  19   2.000000e+00  -4.617287e-01  -4.617287e-01
  20   2.000000e+00  -4.616230e-01  -4.616230e-01
  21   2.000000e+00  -4.594333e-01  -4.594333e-01
  22   2.000000e+00  -4.588042e-01  -4.588042e-01
  23   2.000000e+00  -4.586856e-01  -4.586856e-01
  24   2.000000e+00  -4.582811e-01  -4.582811e-01
  25   2.000000e+00  -4.580563e-01  -4.580563e-01
  26   2.000000e+00  -4.580023e-01  -4.580023e-01
  27   2.000000e+00  -4.575066e-01  -4.575066e-01
  28   2.000000e+00  -4.512602e-01  -4.512602e-01
  29   2.000000e+00  -4.506580e-01  -4.506580e-01
  30   2.000000e+00  -4.503123e-01  -4.503123e-01
  31   2.000000e+00  -4.487193e-01  -4.487193e-01
  32   2.000000e+00  -4.479475e-01  -4.479475e-01
  33   2.000000e+00  -4.461573e-01  -4.461573e-01
  34   2.000000e+00  -4.457093e-01  -4.457093e-01
  35   2.000000e+00  -4.393020e-01  -4.393020e-01
  36   2.000000e+00  -4.384896e-01  -4.384896e-01
  37   2.000000e+00  -4.380287e-01  -4.380287e-01
  38   2.000000e+00  -4.376852e-01  -4.376852e-01
  39   2.000000e+00  -4.348163e-01  -4.348163e-01
  40   2.000000e+00  -4.340353e-01  -4.340353e-01
  41   2.000000e+00  -4.339289e-01  -4.339289e-01
  42   2.000000e+00  -4.336243e-01  -4.336243e-01
  43   2.000000e+00  -4.333461e-01  -4.333461e-01
  44   2.000000e+00  -4.325388e-01  -4.325388e-01
  45   2.000000e+00  -4.314287e-01  -4.314287e-01
  46   2.000000e+00  -4.292248e-01  -4.292248e-01
  47   2.000000e+00  -4.288897e-01  -4.288897e-01
  48   2.000000e+00  -4.267096e-01  -4.267096e-01
  49   2.000000e+00  -4.255686e-01  -4.255686e-01
  50   2.000000e+00  -4.242655e-01  -4.242655e-01
  51   2.000000e+00  -4.236179e-01  -4.236179e-01
  52   2.000000e+00  -4.224936e-01  -4.224936e-01
  53   2.000000e+00  -4.197367e-01  -4.197367e-01
  54   2.000000e+00  -4.197179e-01  -4.197179e-01
  55   2.000000e+00  -4.193249e-01  -4.193249e-01
  56   2.000000e+00  -4.190927e-01  -4.190927e-01
  57   2.000000e+00  -4.190654e-01  -4.190654e-01
  58   2.000000e+00  -4.182201e-01  -4.182202e-01
  59   2.000000e+00  -4.182083e-01  -4.182082e-01
  60   2.000000e+00  -4.174812e-01  -4.174812e-01
  61   2.000000e+00  -4.173679e-01  -4.173679e-01
  62   2.000000e+00  -4.157857e-01  -4.157857e-01
  63   2.000000e+00  -4.152652e-01  -4.152652e-01
  64   2.000000e+00  -8.747318e-02  -8.747318e-02
  65   2.000000e+00   3.934826e-01   3.934826e-01
  66   2.000000e+00   3.974946e-01   3.974946e-01
  67   2.000000e+00   4.109056e-01   4.109056e-01
  68   2.000000e+00   5.071099e-01   5.071099e-01
  69   2.000000e+00   5.097095e-01   5.097095e-01
  70   2.000000e+00   5.530991e-01   5.530991e-01
  71   2.000000e+00   5.583421e-01   5.583421e-01
  72   2.000000e+00   5.621208e-01   5.621208e-01
  73   2.000000e+00   5.623870e-01   5.623870e-01
  74   2.000000e+00   5.623943e-01   5.623943e-01
  75   2.000000e+00   5.624532e-01   5.624532e-01
  76   2.000000e+00   5.628302e-01   5.628302e-01
  77   2.000000e+00   5.635880e-01   5.635880e-01
  78   2.000000e+00   5.702348e-01   5.702348e-01
  79   2.000000e+00   5.734863e-01   5.734863e-01
  80   2.000000e+00   5.761876e-01   5.761876e-01
  81   2.000000e+00   5.814196e-01   5.814196e-01
  82   2.000000e+00   5.818100e-01   5.818100e-01
  83   2.000000e+00   5.822803e-01   5.822803e-01
  84   2.000000e+00   5.942360e-01   5.942360e-01
  85   2.000000e+00   6.086628e-01   6.086628e-01
  86   2.000000e+00   6.100812e-01   6.100812e-01
  87   2.000000e+00   6.117514e-01   6.117514e-01
  88   1.999979e+00   6.325112e-01   6.325112e-01
  89   1.999920e+00   6.378505e-01   6.378505e-01
  90   1.999915e+00   6.381049e-01   6.381049e-01
  91   1.999819e+00   6.411211e-01   6.411211e-01
  92   1.999794e+00   6.416394e-01   6.416394e-01
  93   1.999762e+00   6.422243e-01   6.422243e-01
  94   1.999678e+00   6.434323e-01   6.434323e-01
  95   1.999437e+00   6.456669e-01   6.456669e-01
  96   1.999013e+00   6.479157e-01   6.479157e-01
  97   1.998926e+00   6.482533e-01   6.482533e-01
  98   1.990643e+00   6.569275e-01   6.569275e-01
  99   1.930458e+00   6.650722e-01   6.650722e-01
 100   1.912990e+00   6.660051e-01   6.660051e-01
 101   1.894411e+00   6.668183e-01   6.668183e-01
 102   1.849702e+00   6.683270e-01   6.683270e-01
 103   1.257253e+00   6.762621e-01   6.762621e-01
 104   1.228354e+00   6.765083e-01   6.765083e-01
 105   1.009275e+00   6.782939e-01   6.782939e-01
 106   6.080945e-01   6.816796e-01   6.816796e-01
 107   1.869548e-01   6.874541e-01   6.874541e-01
 108   1.313863e-01   6.889877e-01   6.889877e-01
 109   7.960870e-02   6.910997e-01   6.910997e-01
 110   4.227688e-02   6.937076e-01   6.937076e-01
 111   1.491010e-02   6.979319e-01   6.979319e-01
 112   8.900731e-04   7.092346e-01   7.092346e-01
 113   2.734195e-04   7.139579e-01   7.139579e-01
 114   1.059175e-04   7.177528e-01   7.177528e-01
 115   8.952187e-06   7.276358e-01   7.276358e-01
 116   1.406199e-06   7.350372e-01   7.350372e-01
 117   1.884143e-07   7.430795e-01   7.430795e-01
 118   4.721497e-08   7.486150e-01   7.486150e-01
 119   3.057410e-08   7.503522e-01   7.503522e-01
 120   1.952383e-08   7.521459e-01   7.521459e-01
 121   4.936351e-09   7.576470e-01   7.576470e-01
 122   9.391855e-10   7.642837e-01   7.642837e-01
 123   9.315737e-10   7.643174e-01   7.643174e-01
 124   7.805090e-12   7.834466e-01   7.834466e-01
 125   2.550404e-12   7.879214e-01   7.879214e-01
 126   1.361466e-12   7.904313e-01   7.904313e-01
 127   9.392487e-14   8.011254e-01   8.011254e-01
 128   4.252154e-14   8.042966e-01   8.042966e-01
 129   2.808864e-14   8.059563e-01   8.059563e-01
 130   2.042810e-14   8.072275e-01   8.072275e-01
 131   8.659740e-15   8.106850e-01   8.106850e-01
 132   6.106227e-15   8.120659e-01   8.120659e-01
 133   2.997602e-15   8.148833e-01   8.148833e-01
 134   2.331468e-15   8.159363e-01   8.159363e-01
 135   8.881784e-16   8.197994e-01   8.197994e-01
 136   6.661338e-16   8.211535e-01   8.211535e-01
 137   1.110223e-16   8.270922e-01   8.270922e-01
 138   0.000000e+00   8.323471e-01   8.323471e-01
 139   0.000000e+00   8.329269e-01   8.329269e-01
 140   0.000000e+00   8.349627e-01   8.349627e-01
 141   0.000000e+00   8.358934e-01   8.358934e-01
 142   0.000000e+00   8.435027e-01   8.435027e-01
 143   0.000000e+00   8.462180e-01   8.462180e-01
 144   0.000000e+00   8.491630e-01   8.491630e-01
 145   0.000000e+00   8.492103e-01   8.492103e-01
 146   0.000000e+00   8.500791e-01   8.500791e-01
 147   0.000000e+00   8.511189e-01   8.511189e-01
 148   0.000000e+00   8.523157e-01   8.523157e-01
 149   0.000000e+00   8.553952e-01   8.553952e-01
 150   0.000000e+00   8.561693e-01   8.561693e-01
 151   0.000000e+00   8.573922e-01   8.573922e-01
 152   0.000000e+00   8.595683e-01   8.595683e-01
 153   0.000000e+00   8.651028e-01   8.651028e-01
 154   0.000000e+00   8.663172e-01   8.663172e-01
 155   0.000000e+00   8.668699e-01   8.668699e-01
 156   0.000000e+00   8.748547e-01   8.748547e-01
 157   0.000000e+00   9.338439e-01   9.338439e-01
 158   0.000000e+00   9.500418e-01   9.500417e-01
 159   0.000000e+00   9.515091e-01   9.515091e-01
 160   0.000000e+00   9.890197e-01   9.890197e-01
 161   0.000000e+00   9.926945e-01   9.926945e-01
 162   0.000000e+00   9.996875e-01   9.996875e-01
 163   0.000000e+00   1.016549e+00   1.016549e+00
 164   0.000000e+00   1.061458e+00   1.061457e+00
 165   0.000000e+00   1.063751e+00   1.063751e+00
 166   0.000000e+00   1.074079e+00   1.074079e+00
 167   0.000000e+00   1.108910e+00   1.108909e+00
 168   0.000000e+00   1.132512e+00   1.132510e+00
 169   0.000000e+00   1.137880e+00   1.137877e+00
 170   0.000000e+00   1.138317e+00   1.138316e+00
 171   0.000000e+00   1.138989e+00   1.138987e+00
 172   0.000000e+00   1.141141e+00   1.141108e+00
 173   0.000000e+00   1.142785e+00   1.142782e+00
 174   0.000000e+00   1.143308e+00   1.143308e+00
 175   0.000000e+00   1.151184e+00   1.151183e+00
 176   0.000000e+00   1.154137e+00   1.154137e+00
 177   0.000000e+00   1.159066e+00   1.159065e+00
 178   0.000000e+00   1.161298e+00   1.161297e+00
 179   0.000000e+00   1.161701e+00   1.161699e+00
 180   0.000000e+00   1.170599e+00   1.170588e+00
 181   0.000000e+00   1.174132e+00   1.174122e+00
 182   0.000000e+00   1.174784e+00   1.174773e+00
 183   0.000000e+00   1.201451e+00   1.201438e+00
 184   0.000000e+00   1.203449e+00   1.203403e+00
 185   0.000000e+00   1.205485e+00   1.205371e+00
 186   0.000000e+00   1.209821e+00   1.209754e+00
 187   0.000000e+00   1.213354e+00   1.213337e+00
 188   0.000000e+00   1.213894e+00   1.213892e+00
 189   0.000000e+00   1.215397e+00   1.215362e+00
 190   0.000000e+00   1.216400e+00   1.215845e+00
 191   0.000000e+00   1.215861e+00   1.216407e+00
 192   0.000000e+00   1.219938e+00   1.219935e+00
 193   0.000000e+00   1.228987e+00   1.228892e+00
 194   0.000000e+00   1.240724e+00   1.240614e+00
 195   0.000000e+00   1.262137e+00   1.259664e+00
 196   0.000000e+00   1.277051e+00   1.268895e+00
 197   0.000000e+00   1.297814e+00   1.272042e+00
 198   0.000000e+00   1.276612e+00   1.295457e+00
 199   0.000000e+00   1.296627e+00   1.297973e+00
 200   0.000000e+00   1.314874e+00   1.314878e+00
 201   0.000000e+00   1.315914e+00   1.315324e+00
 202   0.000000e+00   1.328644e+00   1.326446e+00
 203   0.000000e+00   1.331167e+00   1.327661e+00
 204   0.000000e+00   1.331534e+00   1.328650e+00
 205   0.000000e+00   1.325164e+00   1.331179e+00
 206   0.000000e+00   1.324375e+00   1.331790e+00
 207   0.000000e+00   1.334897e+00   1.333346e+00
 208   0.000000e+00   1.343435e+00   1.336557e+00
 209   0.000000e+00   1.349116e+00   1.343530e+00
 210   0.000000e+00   1.333321e+00   1.346879e+00
 211   0.000000e+00   1.339054e+00   1.352058e+00

	FillingsUpdate:  mu: +0.678367389  nElectrons: 214.000000
	SubspaceRotationAdjust: set factor to 0.402
ElecMinimize: Iter:  18  F: -932.185896187130652  |grad|_K:  6.028e-09  alpha:  4.542e-01  linmin:  7.201e-07  t[s]:    631.73
ElecMinimize: Converged (|Delta F|<1.000000e-08 for 2 iters).
Setting wave functions to eigenvectors of Hamiltonian

# Ionic positions in cartesian coordinates:
ion Nb  -0.561242198732585   0.000148104413161   0.000168548385238 1
ion Nb   3.119064607609892   3.103168486158242   3.103023371432841 1
ion Nb  -0.014706159765743   0.000840947996851   6.237389473905822 1
ion Nb   3.119189896897019   3.103531952278586   9.372043167592084 1
ion Nb  -0.014832250217997   6.237362149206210   0.000836853129321 1
ion Nb   3.119064061070933   9.371769719770294   3.103327516399179 1
ion Nb   0.067622365398853   6.237164564697099   6.237252521695993 1
ion Nb   3.119187726525853   9.371103332473860   9.371327442492598 1
ion Nb   6.800719095345865   0.000149089726194   0.000041886052567 1
ion Nb   9.355300192817005   3.217327021539488   3.217393250407816 1
ion Nb   6.253043256016565   0.000843856978916   6.237357230931242 1
ion Nb   9.355148491859818   3.217669005698998   9.255377477224027 1
ion Nb   6.253172918876463   6.237364547404689   0.000855651378437 1
ion Nb   9.355302840142674   9.255477867229709   3.217664472966034 1
ion Nb   6.170146261461517   6.237174603954547   6.237098259887239 1
ion Nb   9.355149943234183   9.255075285358483   9.254928855865352 1
ion O   3.119765951459680   0.006878465114679   0.006963020254210 1

# Forces in Cartesian coordinates:
force Nb   0.000007224932490   0.000027239810168   0.000029246257676 1
force Nb   0.000002774424618   0.000028207203532   0.000029928023877 1
force Nb  -0.000030619065357   0.000010640197120  -0.000005581377685 1
force Nb   0.000002782096786   0.000014907616158  -0.000021555959867 1
force Nb  -0.000031982761844  -0.000008511371985   0.000015315884541 1
force Nb   0.000002619758501  -0.000028848568621   0.000020224154944 1
force Nb  -0.000064466652358   0.000001568677015   0.000006428475576 1
force Nb   0.000002683624783  -0.000005172249406   0.000005422054937 1
force Nb  -0.000083906303961   0.000027105944904   0.000031644208132 1
force Nb   0.000004754528709  -0.000007861775987  -0.000004078875445 1
force Nb   0.000026973048015   0.000010486529351  -0.000006368902353 1
force Nb   0.000003750749898  -0.000019071476358   0.000049786052083 1
force Nb   0.000028472466141  -0.000008615446832   0.000016548853962 1
force Nb   0.000004736255404   0.000050667896813  -0.000014021901608 1
force Nb   0.000099873884991   0.000001273709922   0.000006689795526 1
force Nb   0.000003736302210   0.000064197867385   0.000064239487823 1
force O  -0.000013968879687  -0.000194860197478  -0.000191984721308 1

# Energy components:
   Eewald =     -806.4992877057671876
       EH =      122.3801230669770774
     Eloc =     -515.0483913993743954
      Enl =      162.1511556441716948
      Exc =     -151.4636505214897397
 Exc_core =       27.4759334793031726
       KE =      228.8447478220036544
-------------------------------------
     Etot =     -932.1593696141756027
       TS =        0.0265265729550557
-------------------------------------
        F =     -932.1858961871306519

IonicMinimize: Iter:   0  F: -932.185896187130652  |grad|_K:  4.883e-05  t[s]:    635.80
IonicMinimize: Converged (|grad|_K<1.000000e-04).

#--- Lowdin population analysis ---
# oxidation-state Nb +0.067 +0.061 +0.020 +0.061 +0.020 +0.061 -0.020 +0.061 +0.067 -0.024 +0.020 -0.024 +0.020 -0.024 -0.020 -0.025
# oxidation-state O -0.211


Dumping 'Nb16O_oct.d_tot' ... done
Dumping 'Nb16O_oct.Ecomponents' ... done
End date and time: Tue Apr 16 10:52:41 2024  (Duration: 0-0:10:39.08)
Done!
