--------------------------------------------------------------------------
Initialization of PSM library failed.

  Error: PSM is in the finalized state
--------------------------------------------------------------------------

*************** JDFTx 1.7.0  ***************

Start date and time: Thu Oct 12 11:02:49 2023
Executable jdftx with command-line: -i /home/cam559/Valla_project/Nb/Nb16O_tet.in
Running on hosts (process indices):  node3205.physics.cornell.edu (0-31)
Divided in process groups (process indices):  0 (0)  1 (1)  2 (2)  3 (3)  4 (4)  5 (5)  6 (6)  7 (7)  8 (8)  9 (9)  10 (10)  11 (11)  12 (12)  13 (13)  14 (14)  15 (15)  16 (16)  17 (17)  18 (18)  19 (19)  20 (20)  21 (21)  22 (22)  23 (23)  24 (24)  25 (25)  26 (26)  27 (27)  28 (28)  29 (29)  30 (30)  31 (31)
Resource initialization completed at t[s]:      0.28
Run totals: 32 processes, 32 threads, 0 GPUs


Input parsed successfully to the following command list (including defaults):

basis kpoint-dependent
coords-type Cartesian
core-overlap-check vector
coulomb-interaction Periodic
davidson-band-ratio 1.1
dump End Ecomponents
dump-name Nb16O_tet.$VAR
elec-cutoff 20 100
elec-eigen-algo Davidson
elec-ex-corr gga-PBE
elec-smearing Fermi 0.004
electronic-minimize  \
	dirUpdateScheme      FletcherReeves \
	linminMethod         DirUpdateRecommended \
	nIterations          100 \
	history              15 \
	knormThreshold       0 \
	energyDiffThreshold  1e-08 \
	nEnergyDiff          2 \
	alphaTstart          1 \
	alphaTmin            1e-10 \
	updateTestStepSize   yes \
	alphaTreduceFactor   0.1 \
	alphaTincreaseFactor 3 \
	nAlphaAdjustMax      3 \
	wolfeEnergy          0.0001 \
	wolfeGradient        0.9 \
	fdTest               no
exchange-regularization WignerSeitzTruncated
fluid None
fluid-ex-corr lda-TF lda-PZ
fluid-gummel-loop 10 1.000000e-05
fluid-minimize  \
	dirUpdateScheme      PolakRibiere \
	linminMethod         DirUpdateRecommended \
	nIterations          100 \
	history              15 \
	knormThreshold       0 \
	energyDiffThreshold  0 \
	nEnergyDiff          2 \
	alphaTstart          1 \
	alphaTmin            1e-10 \
	updateTestStepSize   yes \
	alphaTreduceFactor   0.1 \
	alphaTincreaseFactor 3 \
	nAlphaAdjustMax      3 \
	wolfeEnergy          0.0001 \
	wolfeGradient        0.9 \
	fdTest               no
fluid-solvent H2O 55.338 ScalarEOS \
	epsBulk 78.4 \
	pMol 0.92466 \
	epsInf 1.77 \
	Pvap 1.06736e-10 \
	sigmaBulk 4.62e-05 \
	Rvdw 2.61727 \
	Res 1.42 \
	tauNuc 343133 \
	poleEl 15 7 1
forces-output-coords Positions
initial-state Nb16O_tet.$VAR
ion Nb   0.000000000000000   0.000000000000000   0.000000000000000 1
ion Nb   3.118048000000000   3.118048000000000   3.118048000000000 1
ion Nb   0.000000000000000   0.000000000000000   6.236096000000000 1
ion Nb   3.118048000000000   3.118048000000000   9.354144000000000 1
ion Nb   0.000000000000000   6.236096000000000   0.000000000000000 1
ion Nb   3.118048000000000   9.354144000000000   3.118048000000000 1
ion Nb   0.000000000000000   6.236096000000000   6.236096000000000 1
ion Nb   3.118048000000000   9.354144000000000   9.354144000000000 1
ion Nb   6.236096000000000   0.000000000000000   0.000000000000000 1
ion Nb   9.354144000000000   3.118048000000000   3.118048000000000 1
ion Nb   6.236096000000000   0.000000000000000   6.236096000000000 1
ion Nb   9.354144000000000   3.118048000000000   9.354144000000000 1
ion Nb   6.236096000000000   6.236096000000000   0.000000000000000 1
ion Nb   9.354144000000000   9.354144000000000   3.118048000000000 1
ion Nb   6.236096000000000   6.236096000000000   6.236096000000000 1
ion Nb   9.354144000000000   9.354144000000000   9.354144000000000 1
ion O   1.577921000000000   3.136945000000000   0.018897000000000 1
ion-species GBRV/$ID_pbe.uspp
ion-width 0
ionic-minimize  \
	dirUpdateScheme      L-BFGS \
	linminMethod         DirUpdateRecommended \
	nIterations          0 \
	history              15 \
	knormThreshold       0.0001 \
	energyDiffThreshold  1e-06 \
	nEnergyDiff          2 \
	alphaTstart          1 \
	alphaTmin            1e-10 \
	updateTestStepSize   yes \
	alphaTreduceFactor   0.1 \
	alphaTincreaseFactor 3 \
	nAlphaAdjustMax      3 \
	wolfeEnergy          0.0001 \
	wolfeGradient        0.9 \
	fdTest               no
kpoint   0.000000000000   0.000000000000   0.000000000000  1.00000000000000
kpoint-folding 6 6 6 
latt-move-scale 1 1 1
latt-scale 1 1 1 
lattice  \
	  12.472192000000000    0.000000000000000    0.000000000000000  \
	   0.000000000000000   12.472192000000000    0.000000000000000  \
	   0.000000000000000    0.000000000000000   12.472192000000000 
lattice-minimize  \
	dirUpdateScheme      L-BFGS \
	linminMethod         DirUpdateRecommended \
	nIterations          30 \
	history              15 \
	knormThreshold       0 \
	energyDiffThreshold  1e-06 \
	nEnergyDiff          2 \
	alphaTstart          1 \
	alphaTmin            1e-10 \
	updateTestStepSize   yes \
	alphaTreduceFactor   0.1 \
	alphaTincreaseFactor 3 \
	nAlphaAdjustMax      3 \
	wolfeEnergy          0.0001 \
	wolfeGradient        0.9 \
	fdTest               no
lcao-params -1 1e-06 0.004
pcm-variant GLSSA13
spintype no-spin
subspace-rotation-factor 1 yes
symmetries automatic
symmetry-threshold 0.0001



---------- Setting up symmetries ----------

Found 48 point-group symmetries of the bravais lattice
Found 1 space-group symmetries with basis
Applied RMS atom displacement 0 bohrs to make symmetries exact.

---------- Initializing the Grid ----------
R = 
[      12.4722            0            0  ]
[            0      12.4722            0  ]
[            0            0      12.4722  ]
unit cell volume = 1940.12
G =
[   0.503776          0          0  ]
[          0   0.503776          0  ]
[          0          0   0.503776  ]
Minimum fftbox size, Smin = [  60  60  60  ]
Chosen fftbox size, S = [  60  60  60  ]

---------- Initializing tighter grid for wavefunction operations ----------
R = 
[      12.4722            0            0  ]
[            0      12.4722            0  ]
[            0            0      12.4722  ]
unit cell volume = 1940.12
G =
[   0.503776          0          0  ]
[          0   0.503776          0  ]
[          0          0   0.503776  ]
Minimum fftbox size, Smin = [  52  52  52  ]
Chosen fftbox size, S = [  54  54  54  ]

---------- Exchange Correlation functional ----------
Initalized PBE GGA exchange.
Initalized PBE GGA correlation.

---------- Setting up pseudopotentials ----------
Width of ionic core gaussian charges (only for fluid interactions / plotting) set to 0

Reading pseudopotential file '/home/cam559/JDFTx/build/pseudopotentials/GBRV/nb_pbe.uspp':
  Title: Nb.  Created by USPP 7.3.6 on 14-9-2013
  Reference state energy: -58.592548.  13 valence electrons in orbitals:
    |400>  occupation: 2  eigenvalue: -2.145853
    |410>  occupation: 6  eigenvalue: -1.268635
    |420>  occupation: 4  eigenvalue: -0.111734
    |500>  occupation: 1  eigenvalue: -0.146332
    |510>  occupation: 0  eigenvalue: -0.040820
  lMax: 2  lLocal: 3  QijEcut: 5
  6 projectors sampled on a log grid with 627 points:
    l: 0  eig: -2.145854  rCut: 1.8
    l: 0  eig: -0.146334  rCut: 1.8
    l: 1  eig: -1.268634  rCut: 2
    l: 1  eig: 0.150000  rCut: 2
    l: 2  eig: -0.040820  rCut: 2.2
    l: 2  eig: 0.150000  rCut: 2.2
  Partial core density with radius 1.2
  Transforming core density to a uniform radial grid of dG=0.02 with 1314 points.
  Transforming local potential to a uniform radial grid of dG=0.02 with 1314 points.
  Transforming nonlocal projectors to a uniform radial grid of dG=0.02 with 432 points.
  Transforming density augmentations to a uniform radial grid of dG=0.02 with 1314 points.
  Transforming atomic orbitals to a uniform radial grid of dG=0.02 with 432 points.
  Core radius for overlap checks: 2.20 bohrs.

Reading pseudopotential file '/home/cam559/JDFTx/build/pseudopotentials/GBRV/o_pbe.uspp':
  Title: O.  Created by USPP 7.3.6 on 3-2-2014
  Reference state energy: -15.894388.  6 valence electrons in orbitals:
    |200>  occupation: 2  eigenvalue: -0.878823
    |210>  occupation: 4  eigenvalue: -0.332131
  lMax: 2  lLocal: 2  QijEcut: 6
  5 projectors sampled on a log grid with 511 points:
    l: 0  eig: -0.878823  rCut: 1.25
    l: 0  eig: 0.000000  rCut: 1.25
    l: 1  eig: -0.332132  rCut: 1.25
    l: 1  eig: 0.000000  rCut: 1.25
    l: 2  eig: 1.000000  rCut: 1.25
  Partial core density with radius 0.7
  Transforming core density to a uniform radial grid of dG=0.02 with 1314 points.
  Transforming local potential to a uniform radial grid of dG=0.02 with 1314 points.
  Transforming nonlocal projectors to a uniform radial grid of dG=0.02 with 432 points.
  Transforming density augmentations to a uniform radial grid of dG=0.02 with 1314 points.
  Transforming atomic orbitals to a uniform radial grid of dG=0.02 with 432 points.
  Core radius for overlap checks: 1.25 bohrs.

Initialized 2 species with 17 total atoms.

Folded 1 k-points by 6x6x6 to 216 k-points.

---------- Setting up k-points, bands, fillings ----------
Adding inversion symmetry to k-mesh for non-inversion-symmetric unit cell.
Reduced to 112 k-points under symmetry. 
Computing the number of bands and number of electrons
Calculating initial fillings.
nElectrons: 214.000000   nBands: 212   nStates: 112

----- Setting up reduced wavefunction bases (one per k-point) -----
average nbasis = 8289.292 , ideal nbasis = 8288.336

---------- Setting up ewald sum ----------
Optimum gaussian width for ewald sums = 3.102973 bohr.
Real space sum over 729 unit cells with max indices [  4  4  4  ]
Reciprocal space sum over 4913 terms with max indices [  8  8  8  ]

---------- Allocating electronic variables ----------
Initializing wave functions:  linear combination of atomic orbitals
Nb pseudo-atom occupations:   s ( 2 2 )  p ( 6 0 )  d ( 3 )
O pseudo-atom occupations:   s ( 2 )  p ( 4 )
	FillingsUpdate:  mu: +0.686482007  nElectrons: 214.000000
LCAOMinimize: Iter:   0  F: -931.8587381854392788  |grad|_K:  3.593e-04  alpha:  1.000e+00
	FillingsUpdate:  mu: +0.682612860  nElectrons: 214.000000
LCAOMinimize: Iter:   1  F: -931.9052161140195949  |grad|_K:  2.400e-04  alpha:  1.377e-01  linmin: -1.396e-02  cgtest:  7.041e-03  t[s]:    382.37
	FillingsUpdate:  mu: +0.682519119  nElectrons: 214.000000
LCAOMinimize: Iter:   2  F: -931.9293296218130536  |grad|_K:  7.212e-05  alpha:  1.624e-01  linmin:  3.912e-02  cgtest: -9.118e-02  t[s]:    495.32
	FillingsUpdate:  mu: +0.682779707  nElectrons: 214.000000
LCAOMinimize: Iter:   3  F: -931.9314151516426818  |grad|_K:  5.545e-05  alpha:  1.694e-01  linmin: -2.360e-04  cgtest:  1.135e-01  t[s]:    607.75
	FillingsUpdate:  mu: +0.682156175  nElectrons: 214.000000
LCAOMinimize: Iter:   4  F: -931.9331280653331078  |grad|_K:  2.894e-05  alpha:  2.190e-01  linmin: -7.119e-04  cgtest: -6.950e-02  t[s]:    719.83
	FillingsUpdate:  mu: +0.682139002  nElectrons: 214.000000
LCAOMinimize: Iter:   5  F: -931.9334022719388031  |grad|_K:  1.004e-05  alpha:  1.284e-01  linmin: -2.710e-04  cgtest: -4.356e-03  t[s]:    832.16
LCAOMinimize: 	Predicted alpha/alphaT>3.000000, increasing alphaT to 3.852340e-01.
	FillingsUpdate:  mu: +0.681980106  nElectrons: 214.000000
LCAOMinimize: Iter:   6  F: -931.9335052311159870  |grad|_K:  5.762e-06  alpha:  4.021e-01  linmin: -3.454e-04  cgtest:  1.023e-03  t[s]:    973.97
	FillingsUpdate:  mu: +0.681976878  nElectrons: 214.000000
LCAOMinimize: Iter:   7  F: -931.9335127917200907  |grad|_K:  1.899e-06  alpha:  8.960e-02  linmin:  3.326e-04  cgtest: -5.875e-03  t[s]:   1086.18
LCAOMinimize: 	Predicted alpha/alphaT>3.000000, increasing alphaT to 2.688114e-01.
	FillingsUpdate:  mu: +0.681980502  nElectrons: 214.000000
LCAOMinimize: Iter:   8  F: -931.9335165156343237  |grad|_K:  1.685e-06  alpha:  4.066e-01  linmin: -5.137e-05  cgtest:  1.116e-03  t[s]:   1228.34
	FillingsUpdate:  mu: +0.681966093  nElectrons: 214.000000
LCAOMinimize: Iter:   9  F: -931.9335173441284041  |grad|_K:  4.394e-07  alpha:  1.148e-01  linmin:  1.728e-05  cgtest: -1.120e-03  t[s]:   1340.70
	FillingsUpdate:  mu: +0.681967824  nElectrons: 214.000000
LCAOMinimize: Iter:  10  F: -931.9335174316967141  |grad|_K:  3.069e-07  alpha:  1.785e-01  linmin: -7.612e-05  cgtest:  4.389e-04  t[s]:   1452.54
LCAOMinimize: Converged (|Delta F|<1.000000e-06 for 2 iters).


---- Citations for features of the code used in this run ----

   Software package:
      R. Sundararaman, K. Letchworth-Weaver, K.A. Schwarz, D. Gunceler, Y. Ozhabes and T.A. Arias, 'JDFTx: software for joint density-functional theory', SoftwareX 6, 278 (2017)

   gga-PBE exchange-correlation functional:
      J.P. Perdew, K. Burke and M. Ernzerhof, Phys. Rev. Lett. 77, 3865 (1996)

   Pseudopotentials:
      KF Garrity, JW Bennett, KM Rabe and D Vanderbilt, Comput. Mater. Sci. 81, 446 (2014)

   Total energy minimization with Auxiliary Hamiltonian:
      C. Freysoldt, S. Boeck, and J. Neugebauer, Phys. Rev. B 79, 241103(R) (2009)

This list may not be complete. Please suggest additional citations or
report any other bugs at https://github.com/shankar1729/jdftx/issues

Initialization completed successfully at t[s]:   1531.39


--------- Lattice Minimization ---------

-------- Electronic minimization -----------
	FillingsUpdate:  mu: +0.681967824  nElectrons: 214.000000
ElecMinimize: Iter:   0  F: -931.933517431697624  |grad|_K:  3.168e-05  alpha:  1.000e+00
	FillingsUpdate:  mu: +0.681873598  nElectrons: 214.000000
	SubspaceRotationAdjust: set factor to 1
ElecMinimize: Iter:   1  F: -932.056260912394237  |grad|_K:  1.671e-05  alpha:  6.134e-01  linmin:  1.241e-03  t[s]:   2193.02
	FillingsUpdate:  mu: +0.679157143  nElectrons: 214.000000
	SubspaceRotationAdjust: set factor to 0.792
ElecMinimize: Iter:   2  F: -932.082015512973953  |grad|_K:  1.065e-05  alpha:  4.648e-01  linmin:  9.449e-05  t[s]:   2664.13
	FillingsUpdate:  mu: +0.678309636  nElectrons: 214.000000
	SubspaceRotationAdjust: set factor to 0.488
ElecMinimize: Iter:   3  F: -932.085118268841370  |grad|_K:  7.363e-06  alpha:  1.363e-01  linmin: -8.241e-05  t[s]:   3134.20
	FillingsUpdate:  mu: +0.678485390  nElectrons: 214.000000
	SubspaceRotationAdjust: set factor to 0.523
ElecMinimize: Iter:   4  F: -932.089124162372855  |grad|_K:  3.759e-06  alpha:  3.702e-01  linmin:  1.461e-04  t[s]:   3609.62
	FillingsUpdate:  mu: +0.678785384  nElectrons: 214.000000
	SubspaceRotationAdjust: set factor to 0.385
ElecMinimize: Iter:   5  F: -932.089824290511956  |grad|_K:  2.368e-06  alpha:  2.525e-01  linmin:  1.189e-05  t[s]:   4088.11
	FillingsUpdate:  mu: +0.678657384  nElectrons: 214.000000
	SubspaceRotationAdjust: set factor to 0.464
ElecMinimize: Iter:   6  F: -932.090191796482259  |grad|_K:  1.263e-06  alpha:  3.298e-01  linmin:  3.069e-05  t[s]:   4576.59
	FillingsUpdate:  mu: +0.678626820  nElectrons: 214.000000
	SubspaceRotationAdjust: set factor to 0.467
ElecMinimize: Iter:   7  F: -932.090300804112417  |grad|_K:  8.397e-07  alpha:  3.449e-01  linmin:  1.013e-05  t[s]:   5055.81
	FillingsUpdate:  mu: +0.678726612  nElectrons: 214.000000
	SubspaceRotationAdjust: set factor to 0.387
ElecMinimize: Iter:   8  F: -932.090349463243911  |grad|_K:  5.726e-07  alpha:  3.470e-01  linmin:  2.903e-06  t[s]:   5532.28
	FillingsUpdate:  mu: +0.678726592  nElectrons: 214.000000
	SubspaceRotationAdjust: set factor to 0.5
ElecMinimize: Iter:   9  F: -932.090372238320015  |grad|_K:  3.174e-07  alpha:  3.489e-01  linmin:  9.446e-07  t[s]:   6005.41
	FillingsUpdate:  mu: +0.678709289  nElectrons: 214.000000
	SubspaceRotationAdjust: set factor to 0.463
ElecMinimize: Iter:  10  F: -932.090380201167477  |grad|_K:  2.277e-07  alpha:  3.966e-01  linmin: -9.575e-07  t[s]:   6483.08
	FillingsUpdate:  mu: +0.678720909  nElectrons: 214.000000
	SubspaceRotationAdjust: set factor to 0.351
ElecMinimize: Iter:  11  F: -932.090383188599503  |grad|_K:  1.385e-07  alpha:  2.889e-01  linmin: -8.890e-07  t[s]:   6960.37
	FillingsUpdate:  mu: +0.678718047  nElectrons: 214.000000
	SubspaceRotationAdjust: set factor to 0.484
ElecMinimize: Iter:  12  F: -932.090384744077483  |grad|_K:  7.186e-08  alpha:  4.062e-01  linmin: -1.789e-06  t[s]:   7443.71
	FillingsUpdate:  mu: +0.678716462  nElectrons: 214.000000
	SubspaceRotationAdjust: set factor to 0.448
ElecMinimize: Iter:  13  F: -932.090385187681022  |grad|_K:  5.077e-08  alpha:  4.294e-01  linmin: -1.372e-06  t[s]:   7923.39
	FillingsUpdate:  mu: +0.678719503  nElectrons: 214.000000
	SubspaceRotationAdjust: set factor to 0.309
ElecMinimize: Iter:  14  F: -932.090385342590707  |grad|_K:  2.892e-08  alpha:  3.006e-01  linmin: -3.724e-07  t[s]:   8398.99
	FillingsUpdate:  mu: +0.678718103  nElectrons: 214.000000
	SubspaceRotationAdjust: set factor to 0.341
ElecMinimize: Iter:  15  F: -932.090385403767414  |grad|_K:  1.562e-08  alpha:  3.667e-01  linmin: -8.775e-08  t[s]:   8868.08
	FillingsUpdate:  mu: +0.678717261  nElectrons: 214.000000
	SubspaceRotationAdjust: set factor to 0.381
ElecMinimize: Iter:  16  F: -932.090385424139413  |grad|_K:  9.469e-09  alpha:  4.183e-01  linmin: -1.015e-07  t[s]:   9338.78
	FillingsUpdate:  mu: +0.678717849  nElectrons: 214.000000
	SubspaceRotationAdjust: set factor to 0.38
ElecMinimize: Iter:  17  F: -932.090385431684012  |grad|_K:  5.648e-09  alpha:  4.225e-01  linmin: -5.631e-07  t[s]:   9805.55
	FillingsUpdate:  mu: +0.678717692  nElectrons: 214.000000
	SubspaceRotationAdjust: set factor to 0.385
ElecMinimize: Iter:  18  F: -932.090385434339282  |grad|_K:  3.951e-09  alpha:  4.061e-01  linmin: -1.242e-07  t[s]:  10270.62
ElecMinimize: Converged (|Delta F|<1.000000e-08 for 2 iters).
Setting wave functions to eigenvectors of Hamiltonian
# Lattice vectors:
R = 
[      12.4722            0            0  ]
[            0      12.4722            0  ]
[            0            0      12.4722  ]
unit cell volume = 1940.12

# Strain tensor in Cartesian coordinates:
[            0            0            0  ]
[            0            0            0  ]
[            0            0            0  ]

# Stress tensor in Cartesian coordinates [Eh/a0^3]:
[ -0.000368241   8.4697e-06  -8.6899e-06  ]
[   8.4697e-06 -0.000449695  5.69875e-08  ]
[  -8.6899e-06  5.69875e-08 -0.000464217  ]

# Ionic positions in cartesian coordinates:
ion Nb   0.000000000000000   0.000000000000000   0.000000000000000 1
ion Nb   3.118048000000000   3.118048000000000   3.118048000000000 1
ion Nb   0.000000000000000   0.000000000000000   6.236096000000000 1
ion Nb   3.118048000000000   3.118048000000000   9.354144000000000 1
ion Nb   0.000000000000000   6.236096000000000   0.000000000000000 1
ion Nb   3.118048000000000   9.354144000000000   3.118048000000000 1
ion Nb   0.000000000000000   6.236096000000000   6.236096000000000 1
ion Nb   3.118048000000000   9.354144000000000   9.354144000000000 1
ion Nb   6.236096000000000   0.000000000000000   0.000000000000000 1
ion Nb   9.354144000000000   3.118048000000000   3.118048000000000 1
ion Nb   6.236096000000000   0.000000000000000   6.236096000000000 1
ion Nb   9.354144000000000   3.118048000000000   9.354144000000000 1
ion Nb   6.236096000000000   6.236096000000000   0.000000000000000 1
ion Nb   9.354144000000000   9.354144000000000   3.118048000000000 1
ion Nb   6.236096000000000   6.236096000000000   6.236096000000000 1
ion Nb   9.354144000000000   9.354144000000000   9.354144000000000 1
ion O   1.577921000000000   3.136945000000000   0.018897000000000 1

# Forces in Cartesian coordinates:
force Nb  -0.053043923101889  -0.088584082679272  -0.000999233996022 1
force Nb   0.058727684118046  -0.001098001850051   0.100993164345107 1
force Nb  -0.002193848364260  -0.001183585674307   0.000189123305418 1
force Nb   0.053941194122234  -0.001021203974502  -0.093447002933081 1
force Nb  -0.057712211859170   0.095778874268686  -0.001080464194404 1
force Nb   0.002207615790247   0.000192714268084   0.001354372905669 1
force Nb  -0.002235790525691   0.001273880406639   0.000194277894173 1
force Nb   0.002149261074891   0.000188292410840  -0.001250042826611 1
force Nb   0.016348714009461  -0.017304876661194   0.000006731634269 1
force Nb  -0.016199425370397  -0.000002321369389   0.016916015778703 1
force Nb   0.010673438180374  -0.009640220325439   0.000138176473038 1
force Nb  -0.016000571517180   0.000006387054523  -0.016854557613155 1
force Nb   0.016520731457658   0.017348305701298  -0.000002555421048 1
force Nb  -0.010367296017416   0.000145206683475   0.009232962386826 1
force Nb   0.010489763410608   0.009514073119653   0.000142114306982 1
force Nb  -0.010542806985498   0.000140511576804  -0.009353722864427 1
force O  -0.002770218712682  -0.005749558067215  -0.006166290269308 1

# Energy components:
   Eewald =     -801.9406394169485566
       EH =      126.5157652271836923
     Eloc =     -524.1310126599407795
      Enl =      162.2921468362766291
      Exc =     -151.5973035928651598
 Exc_core =       27.4759168599596002
       KE =      229.3224076497562578
-------------------------------------
     Etot =     -932.0627190965781210
       TS =        0.0276663377612159
-------------------------------------
        F =     -932.0903854343392823

LatticeMinimize: Iter:   0  F: -932.090385434339282  |grad|_K:  2.549e-01  t[s]:  10422.33

#--- Lowdin population analysis ---
# oxidation-state Nb +0.030 +0.035 +0.010 +0.031 +0.034 +0.010 +0.010 +0.010 +0.002 +0.002 +0.000 +0.003 +0.002 +0.001 +0.000 +0.001
# oxidation-state O -0.063


-------- Electronic minimization -----------
	FillingsUpdate:  mu: +0.672836274  nElectrons: 214.000000
ElecMinimize: Iter:   0  F: -931.536204594337619  |grad|_K:  8.051e-05  alpha:  1.000e+00
	FillingsUpdate:  mu: +0.672809728  nElectrons: 214.000000
	SubspaceRotationAdjust: set factor to 0.247
ElecMinimize: Iter:   1  F: -931.924713841611151  |grad|_K:  4.191e-05  alpha:  3.127e-01  linmin:  3.463e-03  t[s]:  11358.51
	FillingsUpdate:  mu: +0.668614523  nElectrons: 214.000000
	SubspaceRotationAdjust: set factor to 0.251
ElecMinimize: Iter:   2  F: -932.053363398415058  |grad|_K:  1.867e-05  alpha:  3.808e-01  linmin: -8.461e-06  t[s]:  11818.72
	FillingsUpdate:  mu: +0.667937970  nElectrons: 214.000000
	SubspaceRotationAdjust: set factor to 0.35
ElecMinimize: Iter:   3  F: -932.089618840592834  |grad|_K:  1.456e-05  alpha:  5.226e-01  linmin:  2.037e-04  t[s]:  12280.81
	FillingsUpdate:  mu: +0.668412143  nElectrons: 214.000000
	SubspaceRotationAdjust: set factor to 0.417
ElecMinimize: Iter:   4  F: -932.116600927270952  |grad|_K:  1.117e-05  alpha:  6.433e-01  linmin:  8.601e-05  t[s]:  12745.07
	FillingsUpdate:  mu: +0.668382797  nElectrons: 214.000000
	SubspaceRotationAdjust: set factor to 0.349
ElecMinimize: Iter:   5  F: -932.127729209654944  |grad|_K:  8.277e-06  alpha:  4.487e-01  linmin:  3.394e-06  t[s]:  13213.18
	FillingsUpdate:  mu: +0.668237515  nElectrons: 214.000000
	SubspaceRotationAdjust: set factor to 0.253
ElecMinimize: Iter:   6  F: -932.132569692266884  |grad|_K:  4.368e-06  alpha:  3.542e-01  linmin:  1.879e-05  t[s]:  13681.35
	FillingsUpdate:  mu: +0.668286767  nElectrons: 214.000000
	SubspaceRotationAdjust: set factor to 0.284
ElecMinimize: Iter:   7  F: -932.134176295906741  |grad|_K:  2.023e-06  alpha:  4.227e-01  linmin:  3.701e-05  t[s]:  14153.48
	FillingsUpdate:  mu: +0.668211461  nElectrons: 214.000000
	SubspaceRotationAdjust: set factor to 0.278
ElecMinimize: Iter:   8  F: -932.134553572047707  |grad|_K:  1.182e-06  alpha:  4.630e-01  linmin:  1.857e-06  t[s]:  14631.08
	FillingsUpdate:  mu: +0.668230212  nElectrons: 214.000000
	SubspaceRotationAdjust: set factor to 0.299
ElecMinimize: Iter:   9  F: -932.134684204907785  |grad|_K:  7.545e-07  alpha:  4.693e-01  linmin:  5.003e-06  t[s]:  15107.03
	FillingsUpdate:  mu: +0.668272104  nElectrons: 214.000000
	SubspaceRotationAdjust: set factor to 0.287
ElecMinimize: Iter:  10  F: -932.134758449256765  |grad|_K:  6.367e-07  alpha:  6.545e-01  linmin:  1.047e-05  t[s]:  15576.74
	FillingsUpdate:  mu: +0.668226353  nElectrons: 214.000000
	SubspaceRotationAdjust: set factor to 0.268
ElecMinimize: Iter:  11  F: -932.134798745919170  |grad|_K:  3.906e-07  alpha:  4.991e-01  linmin:  2.523e-06  t[s]:  16043.81
	FillingsUpdate:  mu: +0.668237140  nElectrons: 214.000000
	SubspaceRotationAdjust: set factor to 0.303
ElecMinimize: Iter:  12  F: -932.134814619917620  |grad|_K:  2.365e-07  alpha:  5.219e-01  linmin: -5.377e-07  t[s]:  16510.20
	FillingsUpdate:  mu: +0.668248919  nElectrons: 214.000000
	SubspaceRotationAdjust: set factor to 0.281
ElecMinimize: Iter:  13  F: -932.134819753621741  |grad|_K:  1.478e-07  alpha:  4.602e-01  linmin: -9.094e-07  t[s]:  16973.95
	FillingsUpdate:  mu: +0.668237310  nElectrons: 214.000000
	SubspaceRotationAdjust: set factor to 0.298
ElecMinimize: Iter:  14  F: -932.134821961593843  |grad|_K:  8.801e-08  alpha:  5.071e-01  linmin: -8.272e-07  t[s]:  17436.62
	FillingsUpdate:  mu: +0.668240276  nElectrons: 214.000000
	SubspaceRotationAdjust: set factor to 0.379
ElecMinimize: Iter:  15  F: -932.134822803701240  |grad|_K:  5.780e-08  alpha:  5.452e-01  linmin: -4.999e-07  t[s]:  17899.43
	FillingsUpdate:  mu: +0.668242358  nElectrons: 214.000000
	SubspaceRotationAdjust: set factor to 0.377
ElecMinimize: Iter:  16  F: -932.134823097751791  |grad|_K:  3.574e-08  alpha:  4.414e-01  linmin: -1.124e-07  t[s]:  18367.99
	FillingsUpdate:  mu: +0.668239347  nElectrons: 214.000000
	SubspaceRotationAdjust: set factor to 0.311
ElecMinimize: Iter:  17  F: -932.134823211440107  |grad|_K:  2.294e-08  alpha:  4.463e-01  linmin:  2.899e-07  t[s]:  18839.19
	FillingsUpdate:  mu: +0.668240459  nElectrons: 214.000000
	SubspaceRotationAdjust: set factor to 0.322
ElecMinimize: Iter:  18  F: -932.134823254286061  |grad|_K:  1.186e-08  alpha:  4.081e-01  linmin: -3.241e-07  t[s]:  19311.66
	FillingsUpdate:  mu: +0.668240691  nElectrons: 214.000000
	SubspaceRotationAdjust: set factor to 0.432
ElecMinimize: Iter:  19  F: -932.134823269228946  |grad|_K:  6.351e-09  alpha:  5.308e-01  linmin: -3.959e-06  t[s]:  19786.14
	FillingsUpdate:  mu: +0.668240224  nElectrons: 214.000000
	SubspaceRotationAdjust: set factor to 0.443
ElecMinimize: Iter:  20  F: -932.134823272856920  |grad|_K:  4.500e-09  alpha:  4.563e-01  linmin:  3.800e-06  t[s]:  20257.24
	FillingsUpdate:  mu: +0.668240411  nElectrons: 214.000000
	SubspaceRotationAdjust: set factor to 0.344
ElecMinimize: Iter:  21  F: -932.134823274566315  |grad|_K:  2.903e-09  alpha:  4.315e-01  linmin:  9.292e-06  t[s]:  20726.22
ElecMinimize: Converged (|Delta F|<1.000000e-08 for 2 iters).
Setting wave functions to eigenvectors of Hamiltonian
# Lattice vectors:
R = 
[      12.5212   -0.0011277   0.00115702  ]
[   -0.0011277      12.5321 -7.58759e-06  ]
[   0.00115702 -7.58759e-06       12.534  ]
unit cell volume = 1966.79

# Strain tensor in Cartesian coordinates:
[    0.0039311  -9.0417e-05  9.27677e-05  ]
[  -9.0417e-05   0.00480065 -6.08361e-07  ]
[  9.27677e-05 -6.08361e-07   0.00495567  ]

# Stress tensor in Cartesian coordinates [Eh/a0^3]:
[ -0.000220541  3.26519e-06 -3.19528e-06  ]
[  3.26519e-06 -0.000287463 -6.38336e-08  ]
[ -3.19528e-06 -6.38336e-08 -0.000294972  ]

# Ionic positions in cartesian coordinates:
ion Nb  -0.045573280364662  -0.076182019174233  -0.000864341273252 1
ion Nb   3.180785672936098   3.131783686418143   3.220663002467682 1
ion Nb  -0.001306162302429  -0.001021778150099   6.267161896591747 1
ion Nb   3.177235723022437   3.131846413586262   9.320410447964774 1
ion Nb  -0.050162846820417   6.348411267090894  -0.000938473787421 1
ion Nb   3.131646328630262   9.398931488250954   3.134948098944098 1
ion Nb  -0.001906241724185   6.267125053182676   6.267162532024783 1
ion Nb   3.132174486305835   9.398923897350462   9.399707898215192 1
ion Nb   6.274660858632704  -0.015448232013036   0.000584944405930 1
ion Nb   9.377005067654610   3.132168009593128   3.148914648028166 1
ion Nb   6.270362040663464  -0.008859671479249   6.267697607712541 1
ion Nb   9.377751767998282   3.132171707589883   9.386866173171240 1
ion Nb   6.274242141108703   6.280388204030683   0.000573157747507 1
ion Nb   9.381452124279980   9.398327749978264   3.142302560379254 1
ion Nb   6.269638878663637   6.273647119269066   6.267697176577406 1
ion Nb   9.381878341009120   9.398319941461208   9.393314829930773 1
ion O   1.581461996754673   3.146916831539290   0.013830162993110 1

# Forces in Cartesian coordinates:
force Nb  -0.031006792659260  -0.054614743396824  -0.000333023526830 1
force Nb   0.032319373439187  -0.000353792979246   0.059100547956553 1
force Nb  -0.000996831897127   0.000373983974350   0.000133321486105 1
force Nb   0.031177979397690  -0.000353208476691  -0.057167545825747 1
force Nb  -0.032215715433620   0.056626226574671  -0.000344627708845 1
force Nb   0.000965631197769   0.000136315395359  -0.000301485176319 1
force Nb  -0.001018005810917  -0.000339149913064   0.000134727370812 1
force Nb   0.000938495450036   0.000140750014845   0.000343561198760 1
force Nb   0.013184655899920  -0.013726196447864   0.000052894969824 1
force Nb  -0.013002946241780   0.000043268741525   0.013518319936788 1
force Nb   0.010658207522050  -0.007917279962655   0.000174520969324 1
force Nb  -0.013055607419822   0.000045126427829  -0.013550276770589 1
force Nb   0.013112360877807   0.013695223073224   0.000054807693381 1
force Nb  -0.010374370446611   0.000172483844533   0.007528597375073 1
force Nb   0.010484236206369   0.007737519407591   0.000173539015651 1
force Nb  -0.010540449749861   0.000174661328624  -0.007704901655291 1
force O  -0.000650878466160  -0.001812793196393  -0.001778522760683 1

# Energy components:
   Eewald =     -800.3501088723330668
       EH =      125.9916787757750001
     Eloc =     -524.7918229322557409
      Enl =      162.1731835171697753
      Exc =     -151.4172096799189262
 Exc_core =       27.4759338280766201
       KE =      228.8117390742451107
-------------------------------------
     Etot =     -932.1066062892413129
       TS =        0.0282169853250336
-------------------------------------
        F =     -932.1348232745663154

LatticeMinimize: Iter:   1  F: -932.134823274566315  |grad|_K:  1.566e-01  alpha:  8.559e-01  linmin: -1.881e-01  t[s]:  20873.26

#--- Lowdin population analysis ---
# oxidation-state Nb +0.048 +0.051 +0.008 +0.049 +0.050 +0.009 +0.008 +0.009 +0.007 +0.007 -0.009 +0.007 +0.007 -0.007 -0.008 -0.008
# oxidation-state O -0.118


-------- Electronic minimization -----------
	FillingsUpdate:  mu: +0.662817078  nElectrons: 214.000000
ElecMinimize: Iter:   0  F: -931.408168607882089  |grad|_K:  8.902e-05  alpha:  1.000e+00
	FillingsUpdate:  mu: +0.659116379  nElectrons: 214.000000
	SubspaceRotationAdjust: set factor to 0.235
ElecMinimize: Iter:   1  F: -931.895088216238037  |grad|_K:  4.353e-05  alpha:  3.247e-01  linmin:  4.070e-03  t[s]:  21814.99
	FillingsUpdate:  mu: +0.656269539  nElectrons: 214.000000
	SubspaceRotationAdjust: set factor to 0.275
ElecMinimize: Iter:   2  F: -932.055681591037910  |grad|_K:  2.016e-05  alpha:  4.427e-01  linmin: -6.363e-05  t[s]:  22276.81
	FillingsUpdate:  mu: +0.655435576  nElectrons: 214.000000
	SubspaceRotationAdjust: set factor to 0.355
ElecMinimize: Iter:   3  F: -932.105808708733321  |grad|_K:  1.700e-05  alpha:  6.190e-01  linmin:  1.789e-04  t[s]:  22739.01
	FillingsUpdate:  mu: +0.655785395  nElectrons: 214.000000
	SubspaceRotationAdjust: set factor to 0.432
ElecMinimize: Iter:   4  F: -932.141856745062228  |grad|_K:  1.210e-05  alpha:  6.300e-01  linmin:  5.950e-05  t[s]:  23201.89
	FillingsUpdate:  mu: +0.655726902  nElectrons: 214.000000
	SubspaceRotationAdjust: set factor to 0.428
ElecMinimize: Iter:   5  F: -932.156232404331263  |grad|_K:  8.066e-06  alpha:  4.945e-01  linmin: -1.983e-05  t[s]:  23664.99
	FillingsUpdate:  mu: +0.655647778  nElectrons: 214.000000
	SubspaceRotationAdjust: set factor to 0.295
ElecMinimize: Iter:   6  F: -932.160656524693195  |grad|_K:  5.086e-06  alpha:  3.402e-01  linmin:  6.739e-06  t[s]:  24129.42
	FillingsUpdate:  mu: +0.655625032  nElectrons: 214.000000
	SubspaceRotationAdjust: set factor to 0.241
ElecMinimize: Iter:   7  F: -932.162359037424949  |grad|_K:  2.217e-06  alpha:  3.301e-01  linmin:  4.682e-05  t[s]:  24594.06
	FillingsUpdate:  mu: +0.655544495  nElectrons: 214.000000
	SubspaceRotationAdjust: set factor to 0.27
ElecMinimize: Iter:   8  F: -932.162835010101730  |grad|_K:  1.272e-06  alpha:  4.865e-01  linmin:  3.562e-06  t[s]:  25059.67
	FillingsUpdate:  mu: +0.655582722  nElectrons: 214.000000
	SubspaceRotationAdjust: set factor to 0.344
ElecMinimize: Iter:   9  F: -932.162984955281672  |grad|_K:  7.928e-07  alpha:  4.648e-01  linmin:  6.863e-06  t[s]:  25529.05
	FillingsUpdate:  mu: +0.655612547  nElectrons: 214.000000
	SubspaceRotationAdjust: set factor to 0.273
ElecMinimize: Iter:  10  F: -932.163067539824624  |grad|_K:  7.040e-07  alpha:  6.594e-01  linmin:  8.921e-06  t[s]:  26002.87
	FillingsUpdate:  mu: +0.655561913  nElectrons: 214.000000
	SubspaceRotationAdjust: set factor to 0.229
ElecMinimize: Iter:  11  F: -932.163109448400405  |grad|_K:  4.365e-07  alpha:  4.243e-01  linmin:  5.919e-07  t[s]:  26480.19
	FillingsUpdate:  mu: +0.655573582  nElectrons: 214.000000
	SubspaceRotationAdjust: set factor to 0.32
ElecMinimize: Iter:  12  F: -932.163129537706368  |grad|_K:  2.612e-07  alpha:  5.289e-01  linmin:  4.276e-07  t[s]:  26953.03
	FillingsUpdate:  mu: +0.655585828  nElectrons: 214.000000
	SubspaceRotationAdjust: set factor to 0.312
ElecMinimize: Iter:  13  F: -932.163135696717063  |grad|_K:  1.643e-07  alpha:  4.527e-01  linmin: -2.161e-07  t[s]:  27428.89
	FillingsUpdate:  mu: +0.655577589  nElectrons: 214.000000
	SubspaceRotationAdjust: set factor to 0.378
ElecMinimize: Iter:  14  F: -932.163138403072821  |grad|_K:  1.026e-07  alpha:  5.029e-01  linmin: -4.043e-07  t[s]:  27904.44
	FillingsUpdate:  mu: +0.655579767  nElectrons: 214.000000
	SubspaceRotationAdjust: set factor to 0.46
ElecMinimize: Iter:  15  F: -932.163139549626180  |grad|_K:  7.037e-08  alpha:  5.466e-01  linmin: -4.686e-07  t[s]:  28375.36
	FillingsUpdate:  mu: +0.655582738  nElectrons: 214.000000
	SubspaceRotationAdjust: set factor to 0.417
ElecMinimize: Iter:  16  F: -932.163139946643582  |grad|_K:  4.521e-08  alpha:  4.021e-01  linmin: -2.981e-08  t[s]:  28849.95
	FillingsUpdate:  mu: +0.655579999  nElectrons: 214.000000
	SubspaceRotationAdjust: set factor to 0.305
ElecMinimize: Iter:  17  F: -932.163140084794350  |grad|_K:  2.788e-08  alpha:  3.391e-01  linmin:  5.274e-07  t[s]:  29330.23
	FillingsUpdate:  mu: +0.655580766  nElectrons: 214.000000
	SubspaceRotationAdjust: set factor to 0.311
ElecMinimize: Iter:  18  F: -932.163140146119645  |grad|_K:  1.365e-08  alpha:  3.959e-01  linmin:  1.166e-06  t[s]:  29808.95
	FillingsUpdate:  mu: +0.655581291  nElectrons: 214.000000
	SubspaceRotationAdjust: set factor to 0.367
ElecMinimize: Iter:  19  F: -932.163140164965284  |grad|_K:  8.140e-09  alpha:  5.050e-01  linmin: -4.119e-06  t[s]:  30285.91
	FillingsUpdate:  mu: +0.655580837  nElectrons: 214.000000
	SubspaceRotationAdjust: set factor to 0.371
ElecMinimize: Iter:  20  F: -932.163140170378369  |grad|_K:  4.866e-09  alpha:  4.076e-01  linmin: -4.153e-07  t[s]:  30761.78
	FillingsUpdate:  mu: +0.655580873  nElectrons: 214.000000
	SubspaceRotationAdjust: set factor to 0.423
ElecMinimize: Iter:  21  F: -932.163140172657108  |grad|_K:  2.982e-09  alpha:  4.712e-01  linmin: -2.493e-05  t[s]:  31234.14
ElecMinimize: Converged (|Delta F|<1.000000e-08 for 2 iters).
Setting wave functions to eigenvectors of Hamiltonian
# Lattice vectors:
R = 
[      12.5753  -0.00125753   0.00119436  ]
[   -0.0012595      12.6094   4.4658e-05  ]
[    0.0011966  4.46577e-05      12.6127  ]
unit cell volume = 1999.95

# Strain tensor in Cartesian coordinates:
[   0.00826468 -0.000100827  9.57621e-05  ]
[ -0.000100985     0.010998   3.5806e-06  ]
[  9.59412e-05  3.58058e-06    0.0112661  ]

# Stress tensor in Cartesian coordinates [Eh/a0^3]:
[ -7.70107e-05  3.04103e-06 -3.30424e-06  ]
[  3.04103e-06 -0.000131944 -5.40663e-08  ]
[ -3.30424e-06 -5.40663e-08 -0.000137369  ]

# Ionic positions in cartesian coordinates:
ion Nb  -0.091130370623943  -0.163699425679597  -0.000746349051390 1
ion Nb   3.236835312097867   3.151267197055303   3.327700605466426 1
ion Nb  -0.002046855523245   0.002169177180186   6.306759948172691 1
ion Nb   3.235693983767069   3.151246607612832   9.288871242772874 1
ion Nb  -0.093832043473264   6.472139788498028  -0.000721932692994 1
ion Nb   3.145695936447001   9.457135773709281   3.151534992450521 1
ion Nb  -0.002734712877312   6.302628743536078   6.306784812426872 1
ion Nb   3.146220032675076   9.457178114455647   9.461925603978480 1
ion Nb   6.329973827225566  -0.044638651378548   0.000796162308574 1
ion Nb   9.389738214523222   3.151573843051734   3.197490434958997 1
ion Nb   6.323923615339267  -0.026191453778727   6.307550665602536 1
ion Nb   9.390011186333346   3.151598101212591   9.416852500034986 1
ion Nb   6.328958601534555   6.347896849384329   0.000831726408784 1
ion Nb   9.396065889421935   9.456677097333506   3.178385337612076 1
ion Nb   6.322715823098791   6.329008025835648   6.307567045767820 1
ion Nb   9.396110698076644   9.456710521000929   9.435540535630532 1
ion O   1.589693464079615   3.167465857958550   0.015824701945517 1

# Forces in Cartesian coordinates:
force Nb  -0.012424811850814  -0.024460428432723  -0.000295073131348 1
force Nb   0.013690713478277  -0.000278853119487   0.028391185088801 1
force Nb  -0.000172045110828   0.001180037544423   0.000108106578405 1
force Nb   0.012328251689340  -0.000277977172813  -0.025934420765891 1
force Nb  -0.013667770726021   0.026615157293667  -0.000326859788587 1
force Nb   0.000118422432990   0.000104180272378  -0.001074230761625 1
force Nb  -0.000184382127099  -0.001081050045589   0.000109435220339 1
force Nb   0.000102575859917   0.000120091590347   0.001192732962465 1
force Nb   0.008334278953355  -0.008480803637725   0.000006480261426 1
force Nb  -0.008280515734823   0.000013847624420   0.008365148668649 1
force Nb   0.007689175882803  -0.004720828182269   0.000085969239833 1
force Nb  -0.008355225663865   0.000005517564931  -0.008393571253510 1
force Nb   0.008249485135977   0.008446166062631   0.000014823798696 1
force Nb  -0.007485302673816   0.000091642957613   0.004475973758078 1
force Nb   0.007559834332385   0.004647332405544   0.000092912293251 1
force Nb  -0.007613060092289   0.000086078379918  -0.004544251808582 1
force O   0.000092305066298  -0.002013290425634  -0.002249444927764 1

# Energy components:
   Eewald =     -797.4811794357370900
       EH =      126.2272515742354102
     Eloc =     -527.4786115343899837
      Enl =      162.0611087885635015
      Exc =     -151.2259002538467598
 Exc_core =       27.4759486982801491
       KE =      228.2867232385484897
-------------------------------------
     Etot =     -932.1346589243461267
       TS =        0.0284812483110237
-------------------------------------
        F =     -932.1631401726571085

LatticeMinimize: Iter:   2  F: -932.163140172657108  |grad|_K:  7.377e-02  alpha:  8.114e-01  linmin: -2.018e-01  t[s]:  31380.93

#--- Lowdin population analysis ---
# oxidation-state Nb +0.066 +0.069 +0.007 +0.066 +0.068 +0.008 +0.007 +0.008 +0.013 +0.012 -0.019 +0.012 +0.013 -0.018 -0.019 -0.019
# oxidation-state O -0.171


-------- Electronic minimization -----------
	FillingsUpdate:  mu: +0.652247331  nElectrons: 214.000000
ElecMinimize: Iter:   0  F: -931.668892073705933  |grad|_K:  7.702e-05  alpha:  1.000e+00
	FillingsUpdate:  mu: +0.649915399  nElectrons: 214.000000
	SubspaceRotationAdjust: set factor to 0.26
ElecMinimize: Iter:   1  F: -931.987807441668451  |grad|_K:  4.085e-05  alpha:  2.859e-01  linmin:  4.644e-03  t[s]:  32313.63
	FillingsUpdate:  mu: +0.647923215  nElectrons: 214.000000
	SubspaceRotationAdjust: set factor to 0.263
ElecMinimize: Iter:   2  F: -932.104211983308574  |grad|_K:  1.843e-05  alpha:  3.662e-01  linmin:  3.583e-05  t[s]:  32773.77
	FillingsUpdate:  mu: +0.647391911  nElectrons: 214.000000
	SubspaceRotationAdjust: set factor to 0.339
ElecMinimize: Iter:   3  F: -932.135820061380286  |grad|_K:  1.298e-05  alpha:  4.673e-01  linmin:  1.331e-04  t[s]:  33240.06
	FillingsUpdate:  mu: +0.647543103  nElectrons: 214.000000
	SubspaceRotationAdjust: set factor to 0.394
ElecMinimize: Iter:   4  F: -932.158165064761988  |grad|_K:  1.004e-05  alpha:  6.680e-01  linmin:  5.315e-05  t[s]:  33716.24
	FillingsUpdate:  mu: +0.647473280  nElectrons: 214.000000
	SubspaceRotationAdjust: set factor to 0.321
ElecMinimize: Iter:   5  F: -932.166957526979104  |grad|_K:  7.076e-06  alpha:  4.382e-01  linmin:  1.997e-06  t[s]:  34192.47
	FillingsUpdate:  mu: +0.647337034  nElectrons: 214.000000
	SubspaceRotationAdjust: set factor to 0.253
ElecMinimize: Iter:   6  F: -932.170873237629280  |grad|_K:  3.843e-06  alpha:  3.922e-01  linmin:  2.475e-05  t[s]:  34676.78
	FillingsUpdate:  mu: +0.647406327  nElectrons: 214.000000
	SubspaceRotationAdjust: set factor to 0.246
ElecMinimize: Iter:   7  F: -932.172105925173923  |grad|_K:  1.877e-06  alpha:  4.189e-01  linmin:  2.207e-05  t[s]:  35158.25
	FillingsUpdate:  mu: +0.647326897  nElectrons: 214.000000
	SubspaceRotationAdjust: set factor to 0.262
ElecMinimize: Iter:   8  F: -932.172439324455809  |grad|_K:  1.037e-06  alpha:  4.749e-01  linmin:  2.053e-05  t[s]:  35637.59
	FillingsUpdate:  mu: +0.647323150  nElectrons: 214.000000
	SubspaceRotationAdjust: set factor to 0.282
ElecMinimize: Iter:   9  F: -932.172546767221888  |grad|_K:  7.093e-07  alpha:  5.013e-01  linmin:  3.054e-06  t[s]:  36115.76
	FillingsUpdate:  mu: +0.647355821  nElectrons: 214.000000
	SubspaceRotationAdjust: set factor to 0.246
ElecMinimize: Iter:  10  F: -932.172609329440093  |grad|_K:  5.944e-07  alpha:  6.239e-01  linmin:  1.177e-05  t[s]:  36597.29
	FillingsUpdate:  mu: +0.647320491  nElectrons: 214.000000
	SubspaceRotationAdjust: set factor to 0.239
ElecMinimize: Iter:  11  F: -932.172648842697527  |grad|_K:  3.646e-07  alpha:  5.612e-01  linmin:  3.640e-06  t[s]:  37075.56
	FillingsUpdate:  mu: +0.647319652  nElectrons: 214.000000
	SubspaceRotationAdjust: set factor to 0.276
ElecMinimize: Iter:  12  F: -932.172661479928479  |grad|_K:  2.243e-07  alpha:  4.770e-01  linmin:  7.095e-08  t[s]:  37551.40
	FillingsUpdate:  mu: +0.647331138  nElectrons: 214.000000
	SubspaceRotationAdjust: set factor to 0.29
ElecMinimize: Iter:  13  F: -932.172666309014289  |grad|_K:  1.308e-07  alpha:  4.814e-01  linmin:  4.100e-07  t[s]:  38022.37
	FillingsUpdate:  mu: +0.647326184  nElectrons: 214.000000
	SubspaceRotationAdjust: set factor to 0.327
ElecMinimize: Iter:  14  F: -932.172668273542854  |grad|_K:  9.587e-08  alpha:  5.760e-01  linmin:  3.929e-08  t[s]:  38492.45
	FillingsUpdate:  mu: +0.647325914  nElectrons: 214.000000
	SubspaceRotationAdjust: set factor to 0.382
ElecMinimize: Iter:  15  F: -932.172669189237581  |grad|_K:  6.491e-08  alpha:  4.998e-01  linmin:  1.263e-07  t[s]:  38960.31
	FillingsUpdate:  mu: +0.647330314  nElectrons: 214.000000
	SubspaceRotationAdjust: set factor to 0.344
ElecMinimize: Iter:  16  F: -932.172669580379193  |grad|_K:  4.206e-08  alpha:  4.656e-01  linmin: -3.909e-07  t[s]:  39425.84
	FillingsUpdate:  mu: +0.647328412  nElectrons: 214.000000
	SubspaceRotationAdjust: set factor to 0.278
ElecMinimize: Iter:  17  F: -932.172669719467649  |grad|_K:  2.371e-08  alpha:  3.941e-01  linmin: -2.663e-06  t[s]:  39889.80
	FillingsUpdate:  mu: +0.647328683  nElectrons: 214.000000
	SubspaceRotationAdjust: set factor to 0.325
ElecMinimize: Iter:  18  F: -932.172669773343159  |grad|_K:  1.262e-08  alpha:  4.808e-01  linmin: -8.862e-07  t[s]:  40354.16
	FillingsUpdate:  mu: +0.647329271  nElectrons: 214.000000
	SubspaceRotationAdjust: set factor to 0.306
ElecMinimize: Iter:  19  F: -932.172669787943050  |grad|_K:  7.466e-09  alpha:  4.597e-01  linmin: -3.784e-06  t[s]:  40823.67
	FillingsUpdate:  mu: +0.647328907  nElectrons: 214.000000
	SubspaceRotationAdjust: set factor to 0.256
ElecMinimize: Iter:  20  F: -932.172669792524744  |grad|_K:  4.179e-09  alpha:  4.177e-01  linmin:  1.101e-05  t[s]:  41298.97
	FillingsUpdate:  mu: +0.647328931  nElectrons: 214.000000
	SubspaceRotationAdjust: set factor to 0.318
ElecMinimize: Iter:  21  F: -932.172669794432181  |grad|_K:  2.453e-09  alpha:  5.360e-01  linmin:  1.879e-05  t[s]:  41769.80
ElecMinimize: Converged (|Delta F|<1.000000e-08 for 2 iters).
Setting wave functions to eigenvectors of Hamiltonian
# Lattice vectors:
R = 
[      12.5965  -0.00257385   0.00267588  ]
[  -0.00257596      12.6675  0.000104391  ]
[   0.00267747  0.000104361      12.6735  ]
unit cell volume = 2022.28

# Strain tensor in Cartesian coordinates:
[   0.00996921 -0.000206367  0.000214548  ]
[ -0.000206536    0.0156629  8.36989e-06  ]
[  0.000214675   8.3675e-06    0.0161425  ]

# Stress tensor in Cartesian coordinates [Eh/a0^3]:
[ -1.24771e-06  6.27782e-07 -4.83204e-07  ]
[  6.27782e-07 -4.35063e-05 -8.06222e-08  ]
[ -4.83204e-07 -8.06222e-08 -4.74811e-05  ]

# Ionic positions in cartesian coordinates:
ion Nb  -0.114904252211617  -0.224276081404457  -0.001355008066561 1
ion Nb   3.266918531227688   3.165076051207624   3.412769023093774 1
ion Nb  -0.000410130375108   0.009591665795526   6.337578912161982 1
ion Nb   3.264226521211581   3.165003716839647   9.270566135241172 1
ion Nb  -0.120132070537955   6.565938143017149  -0.001374775346653 1
ion Nb   3.149206717229829   9.500853324300484   3.160137578734267 1
ion Nb  -0.001783205897153   6.324771114416759   6.337635385462728 1
ion Nb   3.150441441723610   9.501012200133740   9.515457014412675 1
ion Nb   6.372582479601025  -0.077527654540562   0.001597771532643 1
ion Nb   9.373995231790968   3.165255288744809   3.245757898688954 1
ion Nb   6.368623753836303  -0.044943412396882   6.339092674365526 1
ion Nb   9.374370035372820   3.165259279487191   9.431392611141934 1
ion Nb   6.370238639738217   6.408304779212481   0.001716578670687 1
ion Nb   9.378943087665920   9.499758610345586   3.211828226402599 1
ion Nb   6.366196423679411   6.375233151519823   6.339168526299484 1
ion Nb   9.379170586646637   9.499800742511470   9.464871640052719 1
ion O   1.595116111275821   3.177070567097973   0.010561405270134 1

# Forces in Cartesian coordinates:
force Nb  -0.003682235713065  -0.008059741720081   0.000013523728562 1
force Nb   0.003503601817284   0.000024442884038   0.009307666269281 1
force Nb  -0.000073964959647   0.000893275502480   0.000052644821538 1
force Nb   0.003587758829175  -0.000000650757007  -0.009235941246319 1
force Nb  -0.003699924114646   0.008195276414810   0.000029108564564 1
force Nb  -0.000022120431124   0.000040347331133  -0.000900353975888 1
force Nb  -0.000099674150120  -0.000823168892855   0.000048989624491 1
force Nb  -0.000045184671371   0.000066912593382   0.000983818046368 1
force Nb   0.003838351156064  -0.003749401491716   0.000051260463571 1
force Nb  -0.003863866037990   0.000050364242585   0.003718134532032 1
force Nb   0.003135018914269  -0.001653007046766   0.000044793260936 1
force Nb  -0.003986610298735   0.000040963417817  -0.003677716236609 1
force Nb   0.003733339009518   0.003778862680749   0.000056842517896 1
force Nb  -0.003045207728301   0.000036775868567   0.001457436751398 1
force Nb   0.003090482351208   0.001616158461374   0.000054981498242 1
force Nb  -0.003093611036642   0.000037100921176  -0.001512432123942 1
force O   0.000689325043311  -0.000536632627537  -0.000464021341539 1

# Energy components:
   Eewald =     -795.2237924634912360
       EH =      126.7394446525276095
     Eloc =     -530.0021936973289485
      Enl =      161.9983503333561146
      Exc =     -151.1108956126940370
 Exc_core =       27.4759611297193480
       KE =      227.9787530077712177
-------------------------------------
     Etot =     -932.1443726501402125
       TS =        0.0282971442919645
-------------------------------------
        F =     -932.1726697944321813

LatticeMinimize: Iter:   3  F: -932.172669794432181  |grad|_K:  2.516e-02  alpha:  1.000e+00  linmin: -2.078e-01  t[s]:  41916.55

#--- Lowdin population analysis ---
# oxidation-state Nb +0.079 +0.081 +0.007 +0.080 +0.080 +0.008 +0.007 +0.008 +0.016 +0.016 -0.028 +0.016 +0.017 -0.027 -0.028 -0.027
# oxidation-state O -0.205


-------- Electronic minimization -----------
	FillingsUpdate:  mu: +0.645311212  nElectrons: 214.000000
ElecMinimize: Iter:   0  F: -932.051182131994779  |grad|_K:  3.486e-05  alpha:  1.000e+00
	FillingsUpdate:  mu: +0.645172064  nElectrons: 214.000000
	SubspaceRotationAdjust: set factor to 0.241
ElecMinimize: Iter:   1  F: -932.130932693193472  |grad|_K:  1.623e-05  alpha:  3.348e-01  linmin:  1.306e-03  t[s]:  42855.46
	FillingsUpdate:  mu: +0.645087019  nElectrons: 214.000000
	SubspaceRotationAdjust: set factor to 0.288
ElecMinimize: Iter:   2  F: -932.156323991419868  |grad|_K:  7.977e-06  alpha:  4.895e-01  linmin: -1.192e-06  t[s]:  43319.32
	FillingsUpdate:  mu: +0.644896894  nElectrons: 214.000000
	SubspaceRotationAdjust: set factor to 0.349
ElecMinimize: Iter:   3  F: -932.165470718881011  |grad|_K:  6.923e-06  alpha:  7.216e-01  linmin:  6.588e-05  t[s]:  43788.38
	FillingsUpdate:  mu: +0.645049090  nElectrons: 214.000000
	SubspaceRotationAdjust: set factor to 0.372
ElecMinimize: Iter:   4  F: -932.171088179771004  |grad|_K:  4.603e-06  alpha:  5.895e-01  linmin: -7.281e-06  t[s]:  44256.65
	FillingsUpdate:  mu: +0.644928753  nElectrons: 214.000000
	SubspaceRotationAdjust: set factor to 0.368
ElecMinimize: Iter:   5  F: -932.173255884368359  |grad|_K:  2.694e-06  alpha:  5.130e-01  linmin:  9.354e-06  t[s]:  44723.79
	FillingsUpdate:  mu: +0.644965674  nElectrons: 214.000000
	SubspaceRotationAdjust: set factor to 0.308
ElecMinimize: Iter:   6  F: -932.173936736095357  |grad|_K:  1.407e-06  alpha:  4.705e-01  linmin:  3.560e-06  t[s]:  45192.61
	FillingsUpdate:  mu: +0.644883818  nElectrons: 214.000000
	SubspaceRotationAdjust: set factor to 0.229
ElecMinimize: Iter:   7  F: -932.174088533969211  |grad|_K:  8.040e-07  alpha:  3.847e-01  linmin:  3.750e-07  t[s]:  45663.94
	FillingsUpdate:  mu: +0.644904096  nElectrons: 214.000000
	SubspaceRotationAdjust: set factor to 0.317
ElecMinimize: Iter:   8  F: -932.174151527129993  |grad|_K:  4.102e-07  alpha:  4.889e-01  linmin:  5.796e-06  t[s]:  46133.83
	FillingsUpdate:  mu: +0.644910219  nElectrons: 214.000000
	SubspaceRotationAdjust: set factor to 0.355
ElecMinimize: Iter:   9  F: -932.174172110345012  |grad|_K:  3.239e-07  alpha:  6.138e-01  linmin:  2.521e-06  t[s]:  46605.32
	FillingsUpdate:  mu: +0.644893822  nElectrons: 214.000000
	SubspaceRotationAdjust: set factor to 0.373
ElecMinimize: Iter:  10  F: -932.174183991552354  |grad|_K:  2.175e-07  alpha:  5.682e-01  linmin:  1.270e-06  t[s]:  47080.79
	FillingsUpdate:  mu: +0.644900894  nElectrons: 214.000000
	SubspaceRotationAdjust: set factor to 0.38
ElecMinimize: Iter:  11  F: -932.174188730411970  |grad|_K:  1.391e-07  alpha:  5.024e-01  linmin:  3.646e-07  t[s]:  47559.51
	FillingsUpdate:  mu: +0.644897667  nElectrons: 214.000000
	SubspaceRotationAdjust: set factor to 0.304
ElecMinimize: Iter:  12  F: -932.174190275623573  |grad|_K:  9.269e-08  alpha:  4.009e-01  linmin: -2.929e-07  t[s]:  48039.44
	FillingsUpdate:  mu: +0.644898157  nElectrons: 214.000000
	SubspaceRotationAdjust: set factor to 0.249
ElecMinimize: Iter:  13  F: -932.174190966340575  |grad|_K:  5.160e-08  alpha:  4.033e-01  linmin:  4.219e-07  t[s]:  48522.10
	FillingsUpdate:  mu: +0.644899291  nElectrons: 214.000000
	SubspaceRotationAdjust: set factor to 0.332
ElecMinimize: Iter:  14  F: -932.174191246122518  |grad|_K:  3.080e-08  alpha:  5.268e-01  linmin: -1.147e-06  t[s]:  49002.51
	FillingsUpdate:  mu: +0.644899042  nElectrons: 214.000000
	SubspaceRotationAdjust: set factor to 0.374
ElecMinimize: Iter:  15  F: -932.174191338682704  |grad|_K:  1.929e-08  alpha:  4.895e-01  linmin: -2.934e-06  t[s]:  49482.36
	FillingsUpdate:  mu: +0.644899468  nElectrons: 214.000000
	SubspaceRotationAdjust: set factor to 0.354
ElecMinimize: Iter:  16  F: -932.174191371857319  |grad|_K:  1.277e-08  alpha:  4.464e-01  linmin:  8.665e-06  t[s]:  49957.72
	FillingsUpdate:  mu: +0.644899636  nElectrons: 214.000000
	SubspaceRotationAdjust: set factor to 0.311
ElecMinimize: Iter:  17  F: -932.174191385882636  |grad|_K:  7.199e-09  alpha:  4.298e-01  linmin: -2.212e-05  t[s]:  50434.89
	FillingsUpdate:  mu: +0.644899651  nElectrons: 214.000000
	SubspaceRotationAdjust: set factor to 0.325
ElecMinimize: Iter:  18  F: -932.174191390510828  |grad|_K:  4.092e-09  alpha:  4.429e-01  linmin: -4.920e-05  t[s]:  50912.76
	FillingsUpdate:  mu: +0.644899680  nElectrons: 214.000000
	SubspaceRotationAdjust: set factor to 0.428
ElecMinimize: Iter:  19  F: -932.174191392041507  |grad|_K:  2.295e-09  alpha:  4.445e-01  linmin:  5.989e-05  t[s]:  51396.89
ElecMinimize: Converged (|Delta F|<1.000000e-08 for 2 iters).
Setting wave functions to eigenvectors of Hamiltonian
# Lattice vectors:
R = 
[      12.5844  -0.00284207   0.00281152  ]
[  -0.00285037      12.6934  0.000186576  ]
[   0.00282095  0.000186563      12.7025  ]
unit cell volume = 2029.08

# Strain tensor in Cartesian coordinates:
[   0.00899829 -0.000227873  0.000225423  ]
[ -0.000228538    0.0177321  1.49594e-05  ]
[  0.000226179  1.49583e-05    0.0184657  ]

# Stress tensor in Cartesian coordinates [Eh/a0^3]:
[  1.35199e-05  3.56459e-07 -3.71675e-07  ]
[  3.56459e-07 -1.68243e-05 -6.02512e-08  ]
[ -3.71675e-07 -6.02512e-08 -2.03998e-05  ]

# Ionic positions in cartesian coordinates:
ion Nb  -0.122879207143413  -0.250719463013231  -0.001036554737580 1
ion Nb   3.269134336696836   3.171928884619870   3.450410132372692 1
ion Nb  -0.000051127755388   0.015590416090029   6.352332473652384 1
ion Nb   3.268328262525529   3.171723043372646   9.260398207428182 1
ion Nb  -0.127008327497394   6.604129008121228  -0.000904942902611 1
ion Nb   3.145186617584823   9.520379603620414   3.161462409413380 1
ion Nb  -0.001688766244369   6.332174024782935   6.352408338177971 1
ion Nb   3.146377506181920   9.520734271848857   9.543748165696453 1
ion Nb   6.386154462899501  -0.096815771696506   0.001952648293739 1
ion Nb   9.345132635507806   3.171830020283305   3.272215414202163 1
ion Nb   6.380128914421478  -0.053374992040715   6.353899316832036 1
ion Nb   9.344777708896704   3.171815861846606   9.434321582774507 1
ion Nb   6.382977813326054   6.440367270376765   0.002152041583283 1
ion Nb   9.352716465411165   9.519155030150532   3.226518543947615 1
ion Nb   6.377319015042016   6.396184884837735   6.354073391805275 1
ion Nb   9.352741997897086   9.519239945643067   9.479159947187958 1
ion O   1.598399783842209   3.181986859730688   0.009581573810736 1

# Forces in Cartesian coordinates:
force Nb  -0.000609558340793  -0.001534176870663   0.000005532003380 1
force Nb   0.000436748566730   0.000025354382418   0.002667427204912 1
force Nb  -0.000154608631518   0.000362027197966   0.000016446617013 1
force Nb   0.000365559657766   0.000008872868954  -0.002427567847954 1
force Nb  -0.000657131497439   0.001690787254057   0.000017777871600 1
force Nb  -0.000022372526770   0.000005177328711  -0.000413565213856 1
force Nb  -0.000171634770989  -0.000290276288114   0.000015126302589 1
force Nb  -0.000035903662228   0.000024138956346   0.000504108513386 1
force Nb   0.001352591718198  -0.001204625844243   0.000030135085726 1
force Nb  -0.001512151822015   0.000029217208248   0.001179913491751 1
force Nb   0.000399433217838  -0.000343812137098  -0.000017711269013 1
force Nb  -0.001563374546306   0.000020619408474  -0.001115879086957 1
force Nb   0.001300848287547   0.001256747251606   0.000025484246017 1
force Nb  -0.000386644674274  -0.000017739803615   0.000249929592456 1
force Nb   0.000410953735084   0.000411749646363  -0.000004790463811 1
force Nb  -0.000369827025542  -0.000018217836964  -0.000188283062754 1
force O   0.001168479316895  -0.000451231055536  -0.000512635801663 1

# Energy components:
   Eewald =     -794.4743536135573549
       EH =      126.9713888226937968
     Eloc =     -530.9163738555949976
      Enl =      161.9810627988657075
      Exc =     -151.0791554561105272
 Exc_core =       27.4759675534110492
       KE =      227.8953129521422625
-------------------------------------
     Etot =     -932.1461507981501882
       TS =        0.0280405938913176
-------------------------------------
        F =     -932.1741913920415072

LatticeMinimize: Iter:   4  F: -932.174191392041507  |grad|_K:  7.756e-03  alpha:  1.000e+00  linmin: -1.292e-01  t[s]:  51544.17

#--- Lowdin population analysis ---
# oxidation-state Nb +0.085 +0.086 +0.008 +0.085 +0.086 +0.008 +0.008 +0.008 +0.018 +0.017 -0.033 +0.017 +0.018 -0.031 -0.032 -0.031
# oxidation-state O -0.218


-------- Electronic minimization -----------
	FillingsUpdate:  mu: +0.643952579  nElectrons: 214.000000
ElecMinimize: Iter:   0  F: -932.174202746737365  |grad|_K:  1.043e-06  alpha:  1.000e+00
	FillingsUpdate:  mu: +0.644023097  nElectrons: 214.000000
	SubspaceRotationAdjust: set factor to 0.239
ElecMinimize: Iter:   1  F: -932.174293875535000  |grad|_K:  9.016e-07  alpha:  4.211e-01  linmin:  1.028e-04  t[s]:  52515.27
	FillingsUpdate:  mu: +0.644039999  nElectrons: 214.000000
	SubspaceRotationAdjust: set factor to 0.247
ElecMinimize: Iter:   2  F: -932.174363192527949  |grad|_K:  5.078e-07  alpha:  4.283e-01  linmin:  1.337e-05  t[s]:  52965.46
	FillingsUpdate:  mu: +0.644005726  nElectrons: 214.000000
	SubspaceRotationAdjust: set factor to 0.321
ElecMinimize: Iter:   3  F: -932.174399219455950  |grad|_K:  3.928e-07  alpha:  7.011e-01  linmin: -5.660e-06  t[s]:  53416.53
	FillingsUpdate:  mu: +0.644021303  nElectrons: 214.000000
	SubspaceRotationAdjust: set factor to 0.341
ElecMinimize: Iter:   4  F: -932.174416536906165  |grad|_K:  2.309e-07  alpha:  5.629e-01  linmin: -4.362e-07  t[s]:  53871.07
	FillingsUpdate:  mu: +0.644020020  nElectrons: 214.000000
	SubspaceRotationAdjust: set factor to 0.367
ElecMinimize: Iter:   5  F: -932.174421539521177  |grad|_K:  1.358e-07  alpha:  4.706e-01  linmin:  5.800e-07  t[s]:  54331.50
	FillingsUpdate:  mu: +0.644013743  nElectrons: 214.000000
	SubspaceRotationAdjust: set factor to 0.325
ElecMinimize: Iter:   6  F: -932.174423351304085  |grad|_K:  8.711e-08  alpha:  4.927e-01  linmin:  1.039e-06  t[s]:  54799.68
	FillingsUpdate:  mu: +0.644015146  nElectrons: 214.000000
	SubspaceRotationAdjust: set factor to 0.238
ElecMinimize: Iter:   7  F: -932.174423924466282  |grad|_K:  5.179e-08  alpha:  3.789e-01  linmin: -1.057e-06  t[s]:  55276.72
	FillingsUpdate:  mu: +0.644014907  nElectrons: 214.000000
	SubspaceRotationAdjust: set factor to 0.256
ElecMinimize: Iter:   8  F: -932.174424185969087  |grad|_K:  2.517e-08  alpha:  4.891e-01  linmin:  8.841e-06  t[s]:  55754.63
	FillingsUpdate:  mu: +0.644014546  nElectrons: 214.000000
	SubspaceRotationAdjust: set factor to 0.296
ElecMinimize: Iter:   9  F: -932.174424244464376  |grad|_K:  1.378e-08  alpha:  4.627e-01  linmin: -1.537e-05  t[s]:  56230.17
	FillingsUpdate:  mu: +0.644014546  nElectrons: 214.000000
	SubspaceRotationAdjust: set factor to 0.317
ElecMinimize: Iter:  10  F: -932.174424260984324  |grad|_K:  7.921e-09  alpha:  4.364e-01  linmin: -3.011e-05  t[s]:  56710.81
	FillingsUpdate:  mu: +0.644014493  nElectrons: 214.000000
	SubspaceRotationAdjust: set factor to 0.347
ElecMinimize: Iter:  11  F: -932.174424267546215  |grad|_K:  5.017e-09  alpha:  5.214e-01  linmin:  3.713e-05  t[s]:  57186.51
	FillingsUpdate:  mu: +0.644014611  nElectrons: 214.000000
	SubspaceRotationAdjust: set factor to 0.379
ElecMinimize: Iter:  12  F: -932.174424270127247  |grad|_K:  3.274e-09  alpha:  4.981e-01  linmin: -6.097e-05  t[s]:  57658.75
ElecMinimize: Converged (|Delta F|<1.000000e-08 for 2 iters).
Setting wave functions to eigenvectors of Hamiltonian
# Lattice vectors:
R = 
[      12.5668  -0.00313943   0.00312036  ]
[  -0.00315243      12.7082  0.000254118  ]
[   0.00313492  0.000254107      12.7211  ]
unit cell volume = 2031.57

# Strain tensor in Cartesian coordinates:
[   0.00758774 -0.000251714  0.000250185  ]
[ -0.000252757    0.0189221  2.03748e-05  ]
[  0.000251353  2.03739e-05    0.0199533  ]

# Stress tensor in Cartesian coordinates [Eh/a0^3]:
[  1.42676e-05 -1.82318e-07  2.87705e-07  ]
[ -1.82318e-07 -5.88869e-06 -5.27883e-08  ]
[  2.87705e-07 -5.27883e-08 -1.00043e-05  ]

# Ionic positions in cartesian coordinates:
ion Nb  -0.123711844932679  -0.256787456271487  -0.000943328155776 1
ion Nb   3.264010612793769   3.175838058393436   3.467773475864973 1
ion Nb  -0.000670290426033   0.018344659253618   6.361705663311930 1
ion Nb   3.263303558927484   3.175545774263950   9.262713204672080 1
ion Nb  -0.127917552254455   6.618098858850979  -0.000689363798631 1
ion Nb   3.140318587139272   9.531496188015247   3.163170235325361 1
ion Nb  -0.002563596141099   6.337391161972915   6.361805800124562 1
ion Nb   3.141580648889168   9.532010812212381   9.561413231122453 1
ion Nb   6.385936634081573  -0.104768476066011   0.002301085334109 1
ion Nb   9.322395482230855   3.175540003510729   3.284792442152165 1
ion Nb   6.374455740590784  -0.055725639953563   6.363222248363063 1
ion Nb   9.321817567238009   3.175501191890123   9.441170278576514 1
ion Nb   6.382234426636504   6.455774886470673   0.002509012036100 1
ion Nb   9.336536854123732   9.529985522474528   3.233062128169409 1
ion Nb   6.371561588621644   6.406154826628849   6.363513756624898 1
ion Nb   9.336813655617645   9.530100944720949   9.492089028353201 1
ion O   1.603858922368426   3.183163089129548   0.006779371461760 1

# Forces in Cartesian coordinates:
force Nb   0.000074430351181   0.000264479827476   0.000060992280343 1
force Nb  -0.000564465357090   0.000061400791637   0.000525001874662 1
force Nb  -0.000229021354969   0.000012628646003   0.000007617067042 1
force Nb  -0.000384480773188   0.000049391743857  -0.000825698228825 1
force Nb   0.000224761804705  -0.000513226489016   0.000067968011688 1
force Nb  -0.000020751602768   0.000000160537090  -0.000090294601044 1
force Nb  -0.000233281760501   0.000018219839043   0.000008617418507 1
force Nb  -0.000023070082952   0.000010528732301   0.000135265868911 1
force Nb   0.000454231868435  -0.000211617965872   0.000036132487214 1
force Nb  -0.000719562455341   0.000027633885442   0.000202157755642 1
force Nb  -0.000358614634568  -0.000166616062745  -0.000011015524252 1
force Nb  -0.000732934203578   0.000022527592349  -0.000133298750018 1
force Nb   0.000434113233246   0.000266835646425   0.000030800766892 1
force Nb   0.000334894602357  -0.000012072615033   0.000046201837705 1
force Nb  -0.000333440960829   0.000235978418833  -0.000000586475700 1
force Nb   0.000364833164625  -0.000012352701841   0.000019292225882 1
force O   0.001634789573883  -0.000078514141871  -0.000041517208785 1

# Energy components:
   Eewald =     -794.1651796529480407
       EH =      127.0889778833558381
     Eloc =     -531.3206918471555582
      Enl =      161.9756669243732574
      Exc =     -151.0683557550151761
 Exc_core =       27.4759694661865410
       KE =      227.8671192806237968
-------------------------------------
     Etot =     -932.1464937005792990
       TS =        0.0279305695479064
-------------------------------------
        F =     -932.1744242701272469

LatticeMinimize: Iter:   5  F: -932.174424270127247  |grad|_K:  3.978e-03  alpha:  1.000e+00  linmin: -1.087e-01  t[s]:  57805.97

#--- Lowdin population analysis ---
# oxidation-state Nb +0.087 +0.087 +0.008 +0.087 +0.087 +0.008 +0.008 +0.008 +0.018 +0.017 -0.034 +0.017 +0.019 -0.032 -0.033 -0.032
# oxidation-state O -0.222


-------- Electronic minimization -----------
	FillingsUpdate:  mu: +0.643705948  nElectrons: 214.000000
ElecMinimize: Iter:   0  F: -932.174427009804049  |grad|_K:  6.110e-07  alpha:  1.000e+00
	FillingsUpdate:  mu: +0.643733359  nElectrons: 214.000000
	SubspaceRotationAdjust: set factor to 0.223
ElecMinimize: Iter:   1  F: -932.174474976568149  |grad|_K:  6.216e-07  alpha:  6.450e-01  linmin:  5.969e-06  t[s]:  58792.26
	FillingsUpdate:  mu: +0.643736947  nElectrons: 214.000000
	SubspaceRotationAdjust: set factor to 0.19
ElecMinimize: Iter:   2  F: -932.174507614578374  |grad|_K:  3.739e-07  alpha:  4.235e-01  linmin: -9.952e-08  t[s]:  59250.42
	FillingsUpdate:  mu: +0.643720097  nElectrons: 214.000000
	SubspaceRotationAdjust: set factor to 0.257
ElecMinimize: Iter:   3  F: -932.174527334252616  |grad|_K:  2.668e-07  alpha:  7.074e-01  linmin:  1.590e-06  t[s]:  59711.12
	FillingsUpdate:  mu: +0.643725737  nElectrons: 214.000000
	SubspaceRotationAdjust: set factor to 0.274
ElecMinimize: Iter:   4  F: -932.174534373013444  |grad|_K:  1.416e-07  alpha:  4.959e-01  linmin: -2.177e-07  t[s]:  60170.87
	FillingsUpdate:  mu: +0.643728081  nElectrons: 214.000000
	SubspaceRotationAdjust: set factor to 0.316
ElecMinimize: Iter:   5  F: -932.174536215649255  |grad|_K:  8.003e-08  alpha:  4.612e-01  linmin:  1.071e-06  t[s]:  60631.33
	FillingsUpdate:  mu: +0.643723666  nElectrons: 214.000000
	SubspaceRotationAdjust: set factor to 0.367
ElecMinimize: Iter:   6  F: -932.174536958236558  |grad|_K:  4.901e-08  alpha:  5.817e-01  linmin:  2.881e-06  t[s]:  61090.20
	FillingsUpdate:  mu: +0.643724977  nElectrons: 214.000000
	SubspaceRotationAdjust: set factor to 0.418
ElecMinimize: Iter:   7  F: -932.174537206216314  |grad|_K:  3.376e-08  alpha:  5.180e-01  linmin: -3.977e-07  t[s]:  61555.91
	FillingsUpdate:  mu: +0.643724587  nElectrons: 214.000000
	SubspaceRotationAdjust: set factor to 0.447
ElecMinimize: Iter:   8  F: -932.174537316215947  |grad|_K:  1.898e-08  alpha:  4.841e-01  linmin:  8.544e-06  t[s]:  62025.81
	FillingsUpdate:  mu: +0.643724325  nElectrons: 214.000000
	SubspaceRotationAdjust: set factor to 0.392
ElecMinimize: Iter:   9  F: -932.174537349756406  |grad|_K:  1.244e-08  alpha:  4.675e-01  linmin:  7.047e-06  t[s]:  62500.35
	FillingsUpdate:  mu: +0.643724266  nElectrons: 214.000000
	SubspaceRotationAdjust: set factor to 0.273
ElecMinimize: Iter:  10  F: -932.174537359707642  |grad|_K:  7.405e-09  alpha:  3.250e-01  linmin: -2.209e-05  t[s]:  62967.89
	FillingsUpdate:  mu: +0.643724469  nElectrons: 214.000000
	SubspaceRotationAdjust: set factor to 0.279
ElecMinimize: Iter:  11  F: -932.174537364336629  |grad|_K:  3.809e-09  alpha:  4.197e-01  linmin:  6.710e-05  t[s]:  63435.92
ElecMinimize: Converged (|Delta F|<1.000000e-08 for 2 iters).
Setting wave functions to eigenvectors of Hamiltonian
# Lattice vectors:
R = 
[      12.5485  -0.00295478    0.0028086  ]
[  -0.00297663      12.7174  0.000325018  ]
[   0.00283501  0.000325074      12.7356  ]
unit cell volume = 2032.39

# Strain tensor in Cartesian coordinates:
[   0.00611509 -0.000236909  0.000225189  ]
[ -0.000238661    0.0196577  2.60594e-05  ]
[  0.000227306  2.60639e-05    0.0211173  ]

# Stress tensor in Cartesian coordinates [Eh/a0^3]:
[  1.11119e-05 -8.30781e-08  8.89544e-08  ]
[ -8.30781e-08 -2.23844e-07  -4.0758e-08  ]
[  8.89544e-08  -4.0758e-08 -5.72728e-06  ]

# Ionic positions in cartesian coordinates:
ion Nb  -0.123425907431947  -0.256420356004342  -0.000509108959881 1
ion Nb   3.255462798698476   3.178675327279111   3.477517543993904 1
ion Nb  -0.002513008086691   0.018832912982374   6.369019448905178 1
ion Nb   3.255915970353270   3.178315467584750   9.265263754237509 1
ion Nb  -0.126438971344666   6.620601663611357  -0.000157762486824 1
ion Nb   3.135633908642412   9.538460062034298   3.165721085986446 1
ion Nb  -0.004356139575711   6.341855620447449   6.369161046753189 1
ion Nb   3.136713719194896   9.539099012546611   9.573689260122611 1
ion Nb   6.381116053874367  -0.107378191980105   0.002415101471732 1
ion Nb   9.302284058152425   3.178215907809196   3.290870037597095 1
ion Nb   6.363093520446530  -0.057239432685708   6.370229736996899 1
ion Nb   9.301416916342815   3.178168341384954   9.449702689499613 1
ion Nb   6.377323130445521   6.463602725800554   0.002619588147071 1
ion Nb   9.324756197510887   9.536935975872099   3.237226953751017 1
ion Nb   6.360476782458192   6.413061919995201   6.370641236991326 1
ion Nb   9.325100043110140   9.537083920444495   9.502569073735653 1
ion O   1.614158798129548   3.184651771810554   0.006145949342914 1

# Forces in Cartesian coordinates:
force Nb   0.000259859842033   0.001032643840508   0.000025556925880 1
force Nb  -0.000723489635655   0.000028855726496   0.000357692901996 1
force Nb  -0.000271752997658  -0.000077302777609  -0.000000052644156 1
force Nb  -0.000724669648239   0.000022349248490  -0.000380617933353 1
force Nb   0.000283500644295  -0.001102108817895   0.000028758540083 1
force Nb  -0.000057099840079  -0.000002381176634  -0.000015496161245 1
force Nb  -0.000265864170518   0.000096701431986   0.000002982412585 1
force Nb  -0.000048913609833   0.000002031406749   0.000049580663054 1
force Nb   0.000015155223516   0.000134667230816   0.000007255114186 1
force Nb  -0.000419154136184   0.000003953105233  -0.000195124038164 1
force Nb  -0.000489145256819  -0.000114116463129  -0.000011845609582 1
force Nb  -0.000392912269800   0.000001771664148   0.000250021412164 1
force Nb   0.000029317679298  -0.000094915437002   0.000005118272903 1
force Nb   0.000418042119889  -0.000011538303410  -0.000077620008417 1
force Nb  -0.000468183776106   0.000198211106560  -0.000005533442702 1
force Nb   0.000442108869371  -0.000010793257802   0.000172696669041 1
force O   0.002281044881594  -0.000134021338290  -0.000174895525561 1

# Energy components:
   Eewald =     -794.0628114184446531
       EH =      127.1287967855869567
     Eloc =     -531.4555869529222036
      Enl =      161.9740070012574051
      Exc =     -151.0648751084888772
 Exc_core =       27.4759704600972867
       KE =      227.8578415955275602
-------------------------------------
     Etot =     -932.1466576373866246
       TS =        0.0278797269499654
-------------------------------------
        F =     -932.1745373643366293

LatticeMinimize: Iter:   6  F: -932.174537364336629  |grad|_K:  3.834e-03  alpha:  1.000e+00  linmin: -1.752e-01  t[s]:  63582.97

#--- Lowdin population analysis ---
# oxidation-state Nb +0.087 +0.088 +0.007 +0.088 +0.088 +0.008 +0.007 +0.008 +0.019 +0.017 -0.034 +0.017 +0.019 -0.032 -0.034 -0.033
# oxidation-state O -0.224


-------- Electronic minimization -----------
	FillingsUpdate:  mu: +0.643261422  nElectrons: 214.000000
ElecMinimize: Iter:   0  F: -932.114998417976835  |grad|_K:  2.136e-05  alpha:  1.000e+00
	FillingsUpdate:  mu: +0.643316742  nElectrons: 214.000000
	SubspaceRotationAdjust: set factor to 0.315
ElecMinimize: Iter:   1  F: -932.155121601405654  |grad|_K:  1.128e-05  alpha:  4.421e-01  linmin:  1.778e-04  t[s]:  64512.06
	FillingsUpdate:  mu: +0.643322513  nElectrons: 214.000000
	SubspaceRotationAdjust: set factor to 0.297
ElecMinimize: Iter:   2  F: -932.166031349251057  |grad|_K:  5.469e-06  alpha:  4.309e-01  linmin:  7.409e-06  t[s]:  64973.36
	FillingsUpdate:  mu: +0.643252196  nElectrons: 214.000000
	SubspaceRotationAdjust: set factor to 0.383
ElecMinimize: Iter:   3  F: -932.171541147278845  |grad|_K:  4.393e-06  alpha:  9.247e-01  linmin:  3.096e-05  t[s]:  65436.46
	FillingsUpdate:  mu: +0.643351926  nElectrons: 214.000000
	SubspaceRotationAdjust: set factor to 0.351
ElecMinimize: Iter:   4  F: -932.173721580189863  |grad|_K:  3.145e-06  alpha:  5.679e-01  linmin:  2.397e-06  t[s]:  65899.25
	FillingsUpdate:  mu: +0.643291509  nElectrons: 214.000000
	SubspaceRotationAdjust: set factor to 0.231
ElecMinimize: Iter:   5  F: -932.174483900209566  |grad|_K:  1.744e-06  alpha:  3.865e-01  linmin:  7.044e-07  t[s]:  66362.12
	FillingsUpdate:  mu: +0.643276212  nElectrons: 214.000000
	SubspaceRotationAdjust: set factor to 0.165
ElecMinimize: Iter:   6  F: -932.174750677151451  |grad|_K:  8.824e-07  alpha:  4.400e-01  linmin:  1.035e-05  t[s]:  66824.13
	FillingsUpdate:  mu: +0.643273309  nElectrons: 214.000000
	SubspaceRotationAdjust: set factor to 0.238
ElecMinimize: Iter:   7  F: -932.174825561099965  |grad|_K:  4.790e-07  alpha:  4.826e-01  linmin: -8.835e-07  t[s]:  67284.09
	FillingsUpdate:  mu: +0.643273234  nElectrons: 214.000000
	SubspaceRotationAdjust: set factor to 0.287
ElecMinimize: Iter:   8  F: -932.174845736864086  |grad|_K:  2.736e-07  alpha:  4.411e-01  linmin:  3.090e-07  t[s]:  67744.30
	FillingsUpdate:  mu: +0.643271358  nElectrons: 214.000000
	SubspaceRotationAdjust: set factor to 0.363
ElecMinimize: Iter:   9  F: -932.174856916020644  |grad|_K:  2.607e-07  alpha:  7.490e-01  linmin:  5.750e-07  t[s]:  68203.37
	FillingsUpdate:  mu: +0.643268343  nElectrons: 214.000000
	SubspaceRotationAdjust: set factor to 0.411
ElecMinimize: Iter:  10  F: -932.174864846507376  |grad|_K:  1.907e-07  alpha:  5.852e-01  linmin:  6.927e-07  t[s]:  68665.76
	FillingsUpdate:  mu: +0.643268217  nElectrons: 214.000000
	SubspaceRotationAdjust: set factor to 0.397
ElecMinimize: Iter:  11  F: -932.174868573984782  |grad|_K:  1.217e-07  alpha:  5.140e-01  linmin:  1.973e-07  t[s]:  69131.41
	FillingsUpdate:  mu: +0.643269101  nElectrons: 214.000000
	SubspaceRotationAdjust: set factor to 0.345
ElecMinimize: Iter:  12  F: -932.174869875019226  |grad|_K:  7.848e-08  alpha:  4.408e-01  linmin:  1.260e-08  t[s]:  69604.45
	FillingsUpdate:  mu: +0.643268698  nElectrons: 214.000000
	SubspaceRotationAdjust: set factor to 0.27
ElecMinimize: Iter:  13  F: -932.174870306481807  |grad|_K:  4.404e-08  alpha:  3.514e-01  linmin:  2.081e-06  t[s]:  70078.49
	FillingsUpdate:  mu: +0.643269001  nElectrons: 214.000000
	SubspaceRotationAdjust: set factor to 0.328
ElecMinimize: Iter:  14  F: -932.174870489639375  |grad|_K:  2.567e-08  alpha:  4.737e-01  linmin: -2.669e-06  t[s]:  70554.26
	FillingsUpdate:  mu: +0.643269173  nElectrons: 214.000000
	SubspaceRotationAdjust: set factor to 0.426
ElecMinimize: Iter:  15  F: -932.174870551352797  |grad|_K:  1.704e-08  alpha:  4.699e-01  linmin: -1.826e-06  t[s]:  71026.61
	FillingsUpdate:  mu: +0.643269341  nElectrons: 214.000000
	SubspaceRotationAdjust: set factor to 0.419
ElecMinimize: Iter:  16  F: -932.174870578127184  |grad|_K:  1.226e-08  alpha:  4.616e-01  linmin:  1.036e-05  t[s]:  71497.64
	FillingsUpdate:  mu: +0.643269513  nElectrons: 214.000000
	SubspaceRotationAdjust: set factor to 0.374
ElecMinimize: Iter:  17  F: -932.174870589782472  |grad|_K:  8.554e-09  alpha:  3.899e-01  linmin: -3.712e-05  t[s]:  71971.57
	FillingsUpdate:  mu: +0.643269484  nElectrons: 214.000000
	SubspaceRotationAdjust: set factor to 0.394
ElecMinimize: Iter:  18  F: -932.174870595634729  |grad|_K:  5.579e-09  alpha:  4.014e-01  linmin:  6.634e-05  t[s]:  72448.30
	FillingsUpdate:  mu: +0.643269539  nElectrons: 214.000000
	SubspaceRotationAdjust: set factor to 0.445
ElecMinimize: Iter:  19  F: -932.174870598533744  |grad|_K:  3.437e-09  alpha:  4.818e-01  linmin:  9.104e-06  t[s]:  72927.67
ElecMinimize: Converged (|Delta F|<1.000000e-08 for 2 iters).
Setting wave functions to eigenvectors of Hamiltonian
# Lattice vectors:
R = 
[      12.4963  -0.00272679   0.00244809  ]
[  -0.00276821      12.7365  0.000536179  ]
[   0.00250056  0.000536546      12.7774  ]
unit cell volume = 2033.62

# Strain tensor in Cartesian coordinates:
[   0.00192968  -0.00021863  0.000196284  ]
[ -0.000221951    0.0211879  4.29899e-05  ]
[   0.00020049  4.30194e-05    0.0244699  ]

# Stress tensor in Cartesian coordinates [Eh/a0^3]:
[  6.63873e-08 -4.91907e-07  6.50691e-07  ]
[ -4.91907e-07  1.34288e-05 -9.38443e-09  ]
[  6.50691e-07 -9.38443e-09  1.97191e-06  ]

# Ionic positions in cartesian coordinates:
ion Nb  -0.121799717760854  -0.246057903770553   0.000286549341527 1
ion Nb   3.229213447042535   3.184576252094282   3.511903095601531 1
ion Nb  -0.009253104458084   0.019138794022282   6.389993330542911 1
ion Nb   3.230442882052080   3.184062295553789   9.270922909568585 1
ion Nb  -0.123477860050714   6.617577217651449   0.000891718683722 1
ion Nb   3.121623226776713   9.552920199984523   3.173696661416354 1
ion Nb  -0.010958576024242   6.352156244575195   6.390296187856253 1
ion Nb   3.122608899504157   9.553873677546315   9.608741951550261 1
ion Nb   6.363806268387298  -0.111841629436111   0.002651116874436 1
ion Nb   9.245340110369714   3.183587419295726   3.304638063908064 1
ion Nb   6.328723008179624  -0.062249678800236   6.390609839890519 1
ion Nb   9.244496849808732   3.183542746867946   9.478849675801788 1
ion Nb   6.360076338496154   6.479116338595381   0.002883972701768 1
ion Nb   9.292784847106114   9.551198249127324   3.248305357144220 1
ion Nb   6.326759930669604   6.430224127997882   6.391348688260987 1
ion Nb   9.293586209243042   9.551460310237454   9.535258153418786 1
ion O   1.662195095504246   3.185092516468451   0.001068082597589 1

# Forces in Cartesian coordinates:
force Nb   0.000267788219750   0.002571324668508   0.000056893038900 1
force Nb  -0.001388950967930   0.000019709773471   0.000031564535841 1
force Nb  -0.000487982347576  -0.000467104748879  -0.000006218489920 1
force Nb  -0.001229531002995   0.000028219978704  -0.000463207463982 1
force Nb   0.000364819894639  -0.002848945188785   0.000049491667679 1
force Nb  -0.000266207013180  -0.000010644499484   0.000247629279759 1
force Nb  -0.000471518762081   0.000418545745751  -0.000000780583820 1
force Nb  -0.000243822762058  -0.000020010794537  -0.000301567194430 1
force Nb  -0.001088061645428   0.000850441339001  -0.000001630871867 1
force Nb   0.000231971642722  -0.000010315563607  -0.000971802448428 1
force Nb  -0.000509423540630  -0.000120712692909   0.000022226558122 1
force Nb   0.000298531477545  -0.000005501528573   0.000978403637871 1
force Nb  -0.001007652734459  -0.000837995101721   0.000001339548836 1
force Nb   0.000369188584681   0.000009146767840  -0.000327862988509 1
force Nb  -0.000496387973743   0.000151163557472   0.000020364061610 1
force Nb   0.000378383834125   0.000010362569720   0.000367914428749 1
force O   0.005104579475738   0.000220947162497   0.000345614865635 1

# Energy components:
   Eewald =     -793.9104940869100346
       EH =      127.1873969976973342
     Eloc =     -531.6547018611232716
      Enl =      161.9713558667974667
      Exc =     -151.0594455217873247
 Exc_core =       27.4759720177003715
       KE =      227.8428146723977079
-------------------------------------
     Etot =     -932.1471019152277222
       TS =        0.0277686833060295
-------------------------------------
        F =     -932.1748705985337438

LatticeMinimize: Iter:   7  F: -932.174870598533744  |grad|_K:  7.591e-03  alpha:  1.000e+00  linmin: -1.394e-01  t[s]:  73074.41

#--- Lowdin population analysis ---
# oxidation-state Nb +0.088 +0.089 +0.006 +0.089 +0.088 +0.009 +0.006 +0.009 +0.021 +0.016 -0.035 +0.016 +0.022 -0.032 -0.035 -0.032
# oxidation-state O -0.227


-------- Electronic minimization -----------
	FillingsUpdate:  mu: +0.642902966  nElectrons: 214.000000
ElecMinimize: Iter:   0  F: -931.983493130388638  |grad|_K:  4.041e-05  alpha:  1.000e+00
	FillingsUpdate:  mu: +0.643637535  nElectrons: 214.000000
	SubspaceRotationAdjust: set factor to 0.361
ElecMinimize: Iter:   1  F: -932.113912536139992  |grad|_K:  2.553e-05  alpha:  4.045e-01  linmin:  4.968e-04  t[s]:  73999.83
	FillingsUpdate:  mu: +0.642862112  nElectrons: 214.000000
	SubspaceRotationAdjust: set factor to 0.238
ElecMinimize: Iter:   2  F: -932.151898131042344  |grad|_K:  1.260e-05  alpha:  2.941e-01  linmin:  2.008e-05  t[s]:  74452.50
	FillingsUpdate:  mu: +0.642635046  nElectrons: 214.000000
	SubspaceRotationAdjust: set factor to 0.344
ElecMinimize: Iter:   3  F: -932.163929772260076  |grad|_K:  7.417e-06  alpha:  3.802e-01  linmin:  1.892e-05  t[s]:  74905.28
	FillingsUpdate:  mu: +0.642639195  nElectrons: 214.000000
	SubspaceRotationAdjust: set factor to 0.318
[...]
ion Nb  -0.176725207918770   6.280741000815323   6.551478957915141 1
ion Nb   3.010741309058250   9.297903739452497   9.806271958292124 1
ion Nb   6.095306008814662   0.020329045060434  -0.001512595524392 1
ion Nb   9.215591203399478   3.100641757681971   3.290505345636946 1
ion Nb   6.195214508039209  -0.081331174825699   6.548541802803996 1
ion Nb   9.213730991130952   3.100593160446226   9.804533170032013 1
ion Nb   6.095710556889953   6.180990089905546  -0.001491082659709 1
ion Nb   9.217329717983864   9.298060215578653   3.199942982535347 1
ion Nb   6.195564877296286   6.281064725519040   6.548860982678106 1
ion Nb   9.215389301733532   9.298307698560434   9.895134892444450 1
ion O   3.012181710077328   3.101759549500335   0.000081702138969 1

# Forces in Cartesian coordinates:
force Nb   0.000009582277652   0.000029221290857  -0.000021722435088 1
force Nb   0.000079851604588   0.000008251067072  -0.000042569411267 1
force Nb   0.000046796075134   0.000054631083270   0.000011172412592 1
force Nb   0.000042405100950   0.000004854332649   0.000077274621411 1
force Nb   0.000000165459996  -0.000051666017316  -0.000021345121278 1
force Nb  -0.000002464430288   0.000010310752974  -0.000037253102025 1
force Nb   0.000050188914961  -0.000012293100207   0.000016104467507 1
force Nb  -0.000051743963103   0.000010423969137   0.000043605913459 1
force Nb  -0.000000584211679   0.000004501838141  -0.000019886590474 1
force Nb   0.000043537517107   0.000000246007670  -0.000003734179851 1
force Nb  -0.000032029992101   0.000049962384996   0.000032932807286 1
force Nb   0.000023580273182  -0.000003586192094   0.000005381454631 1
force Nb   0.000007110768671  -0.000041674482380  -0.000018927274260 1
force Nb  -0.000010206644537   0.000003656436359  -0.000052225121395 1
force Nb  -0.000024913553640  -0.000010914698949   0.000037189898139 1
force Nb  -0.000032966137854   0.000002978713287   0.000064150529344 1
force O   0.000041199084125  -0.000075774199842  -0.000034733448894 1

# Energy components:
   Eewald =     -796.4435041563207278
       EH =      126.0447196761473805
     Eloc =     -527.9746365704069149
      Enl =      161.9738612043969681
      Exc =     -151.0846357604906984
 Exc_core =       27.4759581664951327
       KE =      227.8308426775866451
-------------------------------------
     Etot =     -932.1773947625924848
       TS =        0.0279949707094518
-------------------------------------
        F =     -932.2053897333018995

LatticeMinimize: Iter:  22  F: -932.205389733301899  |grad|_K:  1.330e-03  alpha:  1.000e+00  linmin:  4.773e-02  t[s]: 214639.83

#--- Lowdin population analysis ---
# oxidation-state Nb +0.058 +0.075 -0.024 +0.075 +0.058 +0.020 -0.024 +0.020 +0.058 +0.020 -0.024 +0.020 +0.058 -0.013 -0.024 -0.013
# oxidation-state O -0.237


-------- Electronic minimization -----------
	FillingsUpdate:  mu: +0.649606005  nElectrons: 214.000000
ElecMinimize: Iter:   0  F: -932.205392361762961  |grad|_K:  9.274e-08  alpha:  1.000e+00
	FillingsUpdate:  mu: +0.649587031  nElectrons: 214.000000
	SubspaceRotationAdjust: set factor to 0.221
ElecMinimize: Iter:   1  F: -932.205393173150242  |grad|_K:  6.481e-08  alpha:  4.732e-01  linmin:  4.861e-07  t[s]: 215619.70
	FillingsUpdate:  mu: +0.649586961  nElectrons: 214.000000
	SubspaceRotationAdjust: set factor to 0.224
ElecMinimize: Iter:   2  F: -932.205393786679792  |grad|_K:  5.598e-08  alpha:  7.327e-01  linmin: -3.402e-07  t[s]: 216073.14
	FillingsUpdate:  mu: +0.649593121  nElectrons: 214.000000
	SubspaceRotationAdjust: set factor to 0.24
ElecMinimize: Iter:   3  F: -932.205394208711027  |grad|_K:  4.223e-08  alpha:  6.754e-01  linmin:  2.161e-07  t[s]: 216531.09
	FillingsUpdate:  mu: +0.649589567  nElectrons: 214.000000
	SubspaceRotationAdjust: set factor to 0.293
ElecMinimize: Iter:   4  F: -932.205394410732083  |grad|_K:  2.025e-08  alpha:  5.682e-01  linmin: -1.126e-06  t[s]: 216996.42
	FillingsUpdate:  mu: +0.649591116  nElectrons: 214.000000
	SubspaceRotationAdjust: set factor to 0.231
ElecMinimize: Iter:   5  F: -932.205394451801453  |grad|_K:  1.286e-08  alpha:  5.014e-01  linmin: -1.520e-05  t[s]: 217470.23
	FillingsUpdate:  mu: +0.649591776  nElectrons: 214.000000
	SubspaceRotationAdjust: set factor to 0.192
ElecMinimize: Iter:   6  F: -932.205394464990832  |grad|_K:  5.451e-09  alpha:  4.003e-01  linmin: -1.928e-05  t[s]: 217943.70
	FillingsUpdate:  mu: +0.649591395  nElectrons: 214.000000
	SubspaceRotationAdjust: set factor to 0.238
ElecMinimize: Iter:   7  F: -932.205394468469763  |grad|_K:  3.430e-09  alpha:  5.916e-01  linmin:  1.869e-04  t[s]: 218424.55
	FillingsUpdate:  mu: +0.649591540  nElectrons: 214.000000
	SubspaceRotationAdjust: set factor to 0.301
ElecMinimize: Iter:   8  F: -932.205394469591397  |grad|_K:  1.977e-09  alpha:  5.115e-01  linmin: -3.929e-05  t[s]: 218905.67
ElecMinimize: Converged (|Delta F|<1.000000e-08 for 2 iters).
Setting wave functions to eigenvectors of Hamiltonian
# Lattice vectors:
R = 
[       12.404   0.00100148   -0.0044864  ]
[  0.000697858       12.394  0.000190617  ]
[  -0.00461207  0.000221834      13.0972  ]
unit cell volume = 2013.49

# Strain tensor in Cartesian coordinates:
[  -0.00546977  8.02973e-05 -0.000359712  ]
[  5.59531e-05   -0.0062684  1.52833e-05  ]
[ -0.000369788  1.77863e-05    0.0501104  ]

# Stress tensor in Cartesian coordinates [Eh/a0^3]:
[  9.70782e-07  1.48573e-07 -6.04342e-07  ]
[  1.48573e-07 -2.40223e-06 -3.37533e-08  ]
[ -6.04342e-07 -3.37533e-08 -9.93385e-07  ]

# Ionic positions in cartesian coordinates:
ion Nb  -0.069152725860284   0.019863918852434   0.001368450884136 1
ion Nb   3.009586366034960   3.099829517546879   3.809688468869004 1
ion Nb  -0.176539270569115  -0.081325230857375   6.549607385710017 1
ion Nb   3.007290046751069   3.099437116366973   9.287756681708645 1
ion Nb  -0.068812101247164   6.179912869385078   0.001418611325756 1
ion Nb   3.010999876672821   9.296580404713634   3.293263765609336 1
ion Nb  -0.176258942309015   6.280102289230083   6.549974692631936 1
ion Nb   3.009224943534775   9.297049836517477   9.804345172084586 1
ion Nb   6.092342607551399   0.020256915826852  -0.001307667080725 1
ion Nb   9.211387254235474   3.100234791059818   3.290249717425780 1
ion Nb   6.192267261603496  -0.081151340920212   6.547444768955240 1
ion Nb   9.209736577014715   3.100181443945023   9.802574555519847 1
ion Nb   6.092681532842639   6.180087618551081  -0.001262504392982 1
ion Nb   9.212766091573970   9.297061116225310   3.199341058554375 1
ion Nb   6.192573385766164   6.280387438539615   6.547809685597285 1
ion Nb   9.211023052379355   9.297323489860631   9.893623709411854 1
ion O   3.011342000474333   3.100936602179078   0.000146588411819 1

# Forces in Cartesian coordinates:
force Nb  -0.000001138179322   0.000001296367006   0.000003323764549 1
force Nb   0.000051979474211   0.000009299350253   0.000015366138315 1
force Nb   0.000015547755563   0.000011334650616  -0.000012915309416 1
force Nb   0.000016565013490   0.000006318459268  -0.000014314909378 1
force Nb   0.000001801055842  -0.000025063133542   0.000003926339179 1
force Nb  -0.000007120772324   0.000003916918610  -0.000000929457364 1
force Nb   0.000022852736646   0.000023502534515  -0.000008811257100 1
force Nb  -0.000045248717609   0.000003973521825   0.000005954820128 1
force Nb   0.000015667423996  -0.000008717499863   0.000009728821027 1
force Nb   0.000049414684919  -0.000003867298675   0.000007960802869 1
force Nb   0.000008353711507   0.000011393914007   0.000003245567195 1
force Nb   0.000038682628242  -0.000006507256247  -0.000006389244151 1
force Nb   0.000016777362028  -0.000021053332987   0.000011058570280 1
force Nb   0.000003155729336   0.000004397304446   0.000007421759769 1
force Nb   0.000011767448267   0.000023910510943   0.000006850562284 1
force Nb  -0.000018329694062   0.000003550683826   0.000002198203872 1
force O   0.000005048110789  -0.000054800816013  -0.000002338298154 1

# Energy components:
   Eewald =     -796.6600528294803780
       EH =      125.9649586748961099
     Eloc =     -527.6941924244758866
      Enl =      161.9772367559237409
      Exc =     -151.0923686992116473
 Exc_core =       27.4759579271314891
       KE =      227.8510345129806183
-------------------------------------
     Etot =     -932.1774260822359111
       TS =        0.0279683873555119
-------------------------------------
        F =     -932.2053944695913970

LatticeMinimize: Iter:  23  F: -932.205394469591397  |grad|_K:  4.865e-04  alpha:  1.000e+00  linmin: -2.396e-02  t[s]: 219052.89

#--- Lowdin population analysis ---
# oxidation-state Nb +0.058 +0.075 -0.024 +0.075 +0.058 +0.020 -0.024 +0.020 +0.058 +0.020 -0.024 +0.020 +0.058 -0.013 -0.024 -0.013
# oxidation-state O -0.236


-------- Electronic minimization -----------
	FillingsUpdate:  mu: +0.649489213  nElectrons: 214.000000
ElecMinimize: Iter:   0  F: -932.205395048481705  |grad|_K:  3.231e-08  alpha:  1.000e+00
	FillingsUpdate:  mu: +0.649494382  nElectrons: 214.000000
	SubspaceRotationAdjust: set factor to 0.21
ElecMinimize: Iter:   1  F: -932.205395196900099  |grad|_K:  3.254e-08  alpha:  7.133e-01  linmin: -5.832e-06  t[s]: 220040.07
	FillingsUpdate:  mu: +0.649492862  nElectrons: 214.000000
	SubspaceRotationAdjust: set factor to 0.182
ElecMinimize: Iter:   2  F: -932.205395323667744  |grad|_K:  2.458e-08  alpha:  6.008e-01  linmin:  2.621e-06  t[s]: 220503.08
	FillingsUpdate:  mu: +0.649490106  nElectrons: 214.000000
	SubspaceRotationAdjust: set factor to 0.22
ElecMinimize: Iter:   3  F: -932.205395408406389  |grad|_K:  1.631e-08  alpha:  7.037e-01  linmin:  9.363e-06  t[s]: 220973.12
	FillingsUpdate:  mu: +0.649492054  nElectrons: 214.000000
	SubspaceRotationAdjust: set factor to 0.222
ElecMinimize: Iter:   4  F: -932.205395433399076  |grad|_K:  7.190e-09  alpha:  4.713e-01  linmin: -1.652e-05  t[s]: 221449.46
	FillingsUpdate:  mu: +0.649491829  nElectrons: 214.000000
	SubspaceRotationAdjust: set factor to 0.21
ElecMinimize: Iter:   5  F: -932.205395438579785  |grad|_K:  4.035e-09  alpha:  5.009e-01  linmin: -2.143e-04  t[s]: 221926.93
	FillingsUpdate:  mu: +0.649491488  nElectrons: 214.000000
	SubspaceRotationAdjust: set factor to 0.263
ElecMinimize: Iter:   6  F: -932.205395440109783  |grad|_K:  2.011e-09  alpha:  4.684e-01  linmin:  9.049e-05  t[s]: 222403.51
ElecMinimize: Converged (|Delta F|<1.000000e-08 for 2 iters).
Setting wave functions to eigenvectors of Hamiltonian
# Lattice vectors:
R = 
[       12.403  0.000881969  -0.00397718  ]
[  0.000578416      12.3959  0.000219223  ]
[  -0.00413039  0.000248887      13.0979  ]
unit cell volume = 2013.76

# Strain tensor in Cartesian coordinates:
[  -0.00554865  7.07148e-05 -0.000318884  ]
[  4.63765e-05  -0.00611515  1.75769e-05  ]
[ -0.000331168  1.99553e-05    0.0501703  ]

# Stress tensor in Cartesian coordinates [Eh/a0^3]:
[  1.36342e-06  1.31643e-07 -5.52845e-07  ]
[  1.31643e-07 -1.15103e-06 -3.08081e-08  ]
[ -5.52845e-07 -3.08081e-08  6.52413e-09  ]

# Ionic positions in cartesian coordinates:
ion Nb  -0.069222214210411   0.019924274284845   0.001371810661654 1
ion Nb   3.009706771966283   3.100345233857372   3.810049005812069 1
ion Nb  -0.176238022362420  -0.081239826650993   6.549902460276916 1
ion Nb   3.007429992359462   3.099948499345700   9.288357841781233 1
ion Nb  -0.068933030502715   6.180718476816195   0.001438987679831 1
ion Nb   3.010697139059729   9.298015289655208   3.293549336372555 1
ion Nb  -0.175986135820373   6.281192602737031   6.550304874487308 1
ion Nb   3.008978048932724   9.298499035979995   9.805089934966329 1
ion Nb   6.091924489873897   0.020163185312701  -0.001035685253258 1
ion Nb   9.210928351798863   3.100619905376637   3.290858414434795 1
ion Nb   6.192000333705653  -0.081166581664211   6.548071776587933 1
ion Nb   9.209472435822207   3.100566826822992   9.803430882065760 1
ion Nb   6.092205572685581   6.180881941501261  -0.000970309046350 1
ion Nb   9.212050145736814   9.298436166275007   3.199933942551702 1
ion Nb   6.192263132719424   6.281451846508417   6.548469703752562 1
ion Nb   9.210453121537977   9.298708753668601   9.894568749379333 1
ion O   3.011009480665386   3.101091512425234   0.000260999104822 1

# Forces in Cartesian coordinates:
force Nb  -0.000007711749272  -0.000002220132783  -0.000002593789134 1
force Nb   0.000056114024503   0.000011699620969   0.000007269799734 1
force Nb   0.000012830006451   0.000014619308668  -0.000007202052282 1
force Nb   0.000017989289307   0.000008563093552  -0.000002836702470 1
force Nb  -0.000000026657463  -0.000022985612913  -0.000001760500163 1
force Nb  -0.000004488840920  -0.000001140448181  -0.000002187509463 1
force Nb   0.000022261658895   0.000018169913459  -0.000003445796985 1
force Nb  -0.000039842469762  -0.000000842949129   0.000006904184893 1
force Nb   0.000023154894466  -0.000004800003927   0.000007692353616 1
force Nb   0.000041800770569  -0.000003443423964  -0.000003968139478 1
force Nb   0.000013491446219   0.000015352026759   0.000006144308919 1
force Nb   0.000035886779539  -0.000005663128462   0.000005739630246 1
force Nb   0.000022920867847  -0.000022203490134   0.000009296557273 1
force Nb  -0.000001146824130   0.000002137491396   0.000003450805771 1
force Nb   0.000015940657412   0.000020329670111   0.000009363325975 1
force Nb  -0.000022894179039   0.000001135409054   0.000005104199469 1
force O   0.000007141331715  -0.000048719026710  -0.000006813685198 1

# Energy components:
   Eewald =     -796.6251660898011551
       EH =      125.9778623766747927
     Eloc =     -527.7393300904717535
      Enl =      161.9766027235596084
      Exc =     -151.0911118281724725
 Exc_core =       27.4759580026041945
       KE =      227.8477615880621840
-------------------------------------
     Etot =     -932.1774233175447080
       TS =        0.0279721225651258
-------------------------------------
        F =     -932.2053954401097826

LatticeMinimize: Iter:  24  F: -932.205395440109783  |grad|_K:  3.376e-04  alpha:  1.000e+00  linmin: -2.695e-01  t[s]: 222551.07

#--- Lowdin population analysis ---
# oxidation-state Nb +0.058 +0.075 -0.024 +0.075 +0.058 +0.020 -0.024 +0.020 +0.058 +0.020 -0.024 +0.020 +0.058 -0.013 -0.024 -0.013
# oxidation-state O -0.236


-------- Electronic minimization -----------
	FillingsUpdate:  mu: +0.649517322  nElectrons: 214.000000
ElecMinimize: Iter:   0  F: -932.205395620414492  |grad|_K:  3.389e-08  alpha:  1.000e+00
	FillingsUpdate:  mu: +0.649516268  nElectrons: 214.000000
	SubspaceRotationAdjust: set factor to 0.268
ElecMinimize: Iter:   1  F: -932.205395847890486  |grad|_K:  3.249e-08  alpha:  9.937e-01  linmin:  1.378e-05  t[s]: 223536.63
	FillingsUpdate:  mu: +0.649517274  nElectrons: 214.000000
	SubspaceRotationAdjust: set factor to 0.272
ElecMinimize: Iter:   2  F: -932.205396002470366  |grad|_K:  3.022e-08  alpha:  7.349e-01  linmin:  5.749e-06  t[s]: 224000.95
	FillingsUpdate:  mu: +0.649517053  nElectrons: 214.000000
	SubspaceRotationAdjust: set factor to 0.294
ElecMinimize: Iter:   3  F: -932.205396115551139  |grad|_K:  1.567e-08  alpha:  6.212e-01  linmin: -3.315e-06  t[s]: 224472.65
	FillingsUpdate:  mu: +0.649516857  nElectrons: 214.000000
	SubspaceRotationAdjust: set factor to 0.288
ElecMinimize: Iter:   4  F: -932.205396138964829  |grad|_K:  7.621e-09  alpha:  4.778e-01  linmin: -1.922e-05  t[s]: 224946.38
	FillingsUpdate:  mu: +0.649516916  nElectrons: 214.000000
	SubspaceRotationAdjust: set factor to 0.28
ElecMinimize: Iter:   5  F: -932.205396143921917  |grad|_K:  4.183e-09  alpha:  4.284e-01  linmin: -1.308e-04  t[s]: 225419.92
	FillingsUpdate:  mu: +0.649516990  nElectrons: 214.000000
	SubspaceRotationAdjust: set factor to 0.331
ElecMinimize: Iter:   6  F: -932.205396145583563  |grad|_K:  2.066e-09  alpha:  4.766e-01  linmin:  4.717e-04  t[s]: 225891.70
ElecMinimize: Converged (|Delta F|<1.000000e-08 for 2 iters).
Setting wave functions to eigenvectors of Hamiltonian
# Lattice vectors:
R = 
[      12.4012  0.000720683  -0.00326862  ]
[   0.00041721      12.3974  0.000258995  ]
[  -0.00345997  0.000286501      13.0979  ]
unit cell volume = 2013.69

# Strain tensor in Cartesian coordinates:
[  -0.00569499  5.77832e-05 -0.000262072  ]
[  3.34512e-05  -0.00599956  2.07658e-05  ]
[ -0.000277414  2.29712e-05    0.0501677  ]

# Stress tensor in Cartesian coordinates [Eh/a0^3]:
[  5.69241e-07  1.03647e-07 -4.46009e-07  ]
[  1.03647e-07 -9.63722e-07 -2.46012e-08  ]
[ -4.46009e-07 -2.46012e-08 -2.38388e-07  ]

# Ionic positions in cartesian coordinates:
ion Nb  -0.069360845631867   0.019939270131555   0.001335799643520 1
ion Nb   3.009796383441631   3.100781732896842   3.810197192302781 1
ion Nb  -0.175837234056957  -0.081088433449209   6.549809131206151 1
ion Nb   3.007517697144240   3.100376449753736   9.288477202013913 1
ion Nb  -0.069098860870857   6.181266321282266   0.001428657983876 1
ion Nb   3.010182290198831   9.299067244241456   3.293680629305042 1
ion Nb  -0.175600308439220   6.282076759244453   6.550259901700585 1
ion Nb   3.008541701775155   9.299573053722291   9.805317614041195 1
ion Nb   6.091160507837980   0.020051195355331  -0.000662984778147 1
ion Nb   9.209919990510734   3.100856109140444   3.291345038170610 1
ion Nb   6.191446157876923  -0.081129512114962   6.548427037404863 1
ion Nb   9.208765966989059   3.100805178430984   9.803911385984600 1
ion Nb   6.091354844705416   6.181369654923266  -0.000566829158824 1
ion Nb   9.210664867603551   9.299429403658811   3.200472785483878 1
ion Nb   6.191646057239098   6.282300881615146   6.548869711256197 1
ion Nb   9.209260043688856   9.299714602526267   9.895090512512489 1
ion O   3.010442130994657   3.101031333629815   0.000404153771172 1

# Forces in Cartesian coordinates:
force Nb   0.000004970937762  -0.000005319644778  -0.000003588362678 1
force Nb   0.000045209631828   0.000009573098953  -0.000000432812320 1
force Nb   0.000012098457760   0.000012467323776  -0.000003968261502 1
force Nb   0.000019907897495   0.000007120248302   0.000006479445426 1
force Nb   0.000008855452539  -0.000016950399189  -0.000002848844214 1
force Nb   0.000002759161375  -0.000000938618744  -0.000002265790541 1
force Nb   0.000015968409909   0.000010148122577  -0.000001322157960 1
force Nb  -0.000020957700107  -0.000000757718991   0.000006735539337 1
force Nb   0.000009796149858  -0.000001564126384   0.000003444790956 1
force Nb   0.000032684516989   0.000000439853860   0.000001084710910 1
force Nb   0.000013895987937   0.000010781130570   0.000008988448807 1
force Nb   0.000025084760605  -0.000001187421390   0.000001703887830 1
force Nb   0.000014560939599  -0.000018104952086   0.000004588011394 1
force Nb  -0.000002085060512  -0.000002298788991   0.000006179483526 1
force Nb   0.000021312402124   0.000017868626578   0.000011429570387 1
force Nb  -0.000019247489300  -0.000002843861701   0.000000308546616 1
force O   0.000010312060901  -0.000033828469558  -0.000004817030104 1

# Energy components:
   Eewald =     -796.6344073125233081
       EH =      125.9743097364732876
     Eloc =     -527.7273199552535061
      Enl =      161.9769075817013118
      Exc =     -151.0914421210589182
 Exc_core =       27.4759580246185777
       KE =      227.8485689873528486
-------------------------------------
     Etot =     -932.1774250586897779
       TS =        0.0279710868937408
-------------------------------------
        F =     -932.2053961455835633

LatticeMinimize: Iter:  25  F: -932.205396145583563  |grad|_K:  2.289e-04  alpha:  1.000e+00  linmin: -2.264e-01  t[s]: 226039.61
LatticeMinimize: Converged (|Delta F|<1.000000e-06 for 2 iters).

#--- Lowdin population analysis ---
# oxidation-state Nb +0.058 +0.075 -0.024 +0.075 +0.058 +0.020 -0.024 +0.020 +0.058 +0.020 -0.024 +0.020 +0.058 -0.013 -0.024 -0.013
# oxidation-state O -0.236


Dumping 'Nb16O_tet.Ecomponents' ... done
End date and time: Sun Oct 15 01:53:52 2023  (Duration: 2-14:51:03.56)
Done!
