--------------------------------------------------------------------------
[[53446,1],1]: A high-performance Open MPI point-to-point messaging module
was unable to find any relevant network interfaces:

Module: OpenFabrics (openib)
  Host: node3218

Another transport will be used instead, although this may result in
lower performance.
--------------------------------------------------------------------------

*************** JDFTx 1.7.0 (git hash 3664913) ***************

Start date and time: Sun Jun 30 23:05:53 2024
Executable jdftx with command-line: -i Re_tet.in
Running on hosts (process indices):  node3218.physics.cornell.edu (0-15)
Divided in process groups (process indices):  0 (0)  1 (1)  2 (2)  3 (3)  4 (4)  5 (5)  6 (6)  7 (7)  8 (8)  9 (9)  10 (10)  11 (11)  12 (12)  13 (13)  14 (14)  15 (15)
Resource initialization completed at t[s]:      0.00
Run totals: 16 processes, 32 threads, 0 GPUs


Input parsed successfully to the following command list (including defaults):

basis kpoint-dependent
coords-type Lattice
core-overlap-check vector
coulomb-interaction Periodic
davidson-band-ratio 1.1
dump End Ecomponents
dump-name /data/rc652/Re/tet/Re_tet.$VAR
elec-cutoff 20 100
elec-eigen-algo Davidson
elec-ex-corr gga-PBEsol
elec-smearing Fermi 0.01
electronic-minimize  \
	dirUpdateScheme      FletcherReeves \
	linminMethod         DirUpdateRecommended \
	nIterations          100 \
	history              15 \
	knormThreshold       0 \
	maxThreshold         no \
	energyDiffThreshold  1e-08 \
	nEnergyDiff          2 \
	alphaTstart          1 \
	alphaTmin            1e-10 \
	updateTestStepSize   yes \
	alphaTreduceFactor   0.1 \
	alphaTincreaseFactor 3 \
	nAlphaAdjustMax      3 \
	wolfeEnergy          0.0001 \
	wolfeGradient        0.9 \
	fdTest               no
electronic-scf  \
	nIterations	50 \
	energyDiffThreshold	1e-08 \
	residualThreshold	1e-07 \
	mixFraction	0.5 \
	qMetric	0.8 \
	history	10 \
	nEigSteps	2 \
	eigDiffThreshold	1e-08 \
	mixedVariable	Density \
	qKerker	0.8 \
	qKappa	-1 \
	verbose	no \
	mixFractionMag	1.5
exchange-regularization WignerSeitzTruncated
fluid None
fluid-ex-corr lda-TF lda-PZ
fluid-gummel-loop 10 1.000000e-05
fluid-minimize  \
	dirUpdateScheme      PolakRibiere \
	linminMethod         DirUpdateRecommended \
	nIterations          100 \
	history              15 \
	knormThreshold       0 \
	maxThreshold         no \
	energyDiffThreshold  0 \
	nEnergyDiff          2 \
	alphaTstart          1 \
	alphaTmin            1e-10 \
	updateTestStepSize   yes \
	alphaTreduceFactor   0.1 \
	alphaTincreaseFactor 3 \
	nAlphaAdjustMax      3 \
	wolfeEnergy          0.0001 \
	wolfeGradient        0.9 \
	fdTest               no
fluid-solvent H2O 55.338 ScalarEOS \
	epsBulk 78.4 \
	pMol 0.92466 \
	epsInf 1.77 \
	Pvap 1.06736e-10 \
	sigmaBulk 4.62e-05 \
	Rvdw 2.61727 \
	Res 1.42 \
	tauNuc 343133 \
	poleEl 15 7 1
forces-output-coords Positions
ion Re   0.102660000000000   0.227920000000000   0.122020000000000 1
ion Re   0.220040000000000   0.112330000000000   0.380040000000000 1
ion Re   0.108770000000000   0.249600000000000   0.639530000000000 1
ion Re   0.224890000000000   0.090010000000000   0.876720000000000 1
ion Re   0.114230000000000   0.552300000000000   0.129330000000000 1
ion Re   0.232810000000000   0.443810000000000   0.350440000000000 1
ion Re   0.116690000000000   0.542640000000000   0.628800000000000 1
ion Re   0.214650000000000   0.445100000000000   0.882260000000000 1
ion Re   0.102640000000000   0.888630000000000   0.126590000000000 1
ion Re   0.222380000000000   0.786100000000000   0.379340000000000 1
ion Re   0.114510000000000   0.888850000000000   0.640130000000000 1
ion Re   0.231200000000000   0.778150000000000   0.861230000000000 1
ion Re   0.439910000000000   0.221430000000000   0.121830000000000 1
ion Re   0.556650000000000   0.098040000000000   0.380000000000000 1
ion Re   0.450770000000000   0.229720000000000   0.641480000000000 1
ion Re   0.549960000000000   0.119710000000000   0.866980000000000 1
ion Re   0.455100000000000   0.542490000000000   0.130390000000000 1
ion Re   0.560400000000000   0.439780000000000   0.375250000000000 1
ion Re   0.443950000000000   0.541790000000000   0.633510000000000 1
ion Re   0.558700000000000   0.446990000000000   0.877310000000000 1
ion Re   0.429680000000000   0.883470000000000   0.119070000000000 1
ion Re   0.568840000000000   0.781310000000000   0.376400000000000 1
ion Re   0.456130000000000   0.893540000000000   0.629170000000000 1
ion Re   0.560020000000000   0.762710000000000   0.870760000000000 1
ion Re   0.797530000000000   0.245570000000000   0.133490000000000 1
ion Re   0.878740000000000   0.093800000000000   0.383770000000000 1
ion Re   0.767360000000000   0.218990000000000   0.626930000000000 1
ion Re   0.872980000000000   0.110860000000000   0.879570000000000 1
ion Re   0.772010000000000   0.524650000000000   0.123730000000000 1
ion Re   0.889750000000000   0.457120000000000   0.378900000000000 1
ion Re   0.778950000000000   0.561430000000000   0.637900000000000 1
ion Re   0.889480000000000   0.441690000000000   0.880220000000000 1
ion Re   0.774630000000000   0.890740000000000   0.130910000000000 1
ion Re   0.876200000000000   0.778210000000000   0.373440000000000 1
ion Re   0.771640000000000   0.880580000000000   0.629330000000000 1
ion Re   0.904390000000000   0.779730000000000   0.880580000000000 1
ion O   0.150000000000000   0.900000000000000   0.450000000000000 1
ion-species GBRV/$ID_pbesol.uspp
ion-width 0
ionic-minimize  \
	dirUpdateScheme      L-BFGS \
	linminMethod         DirUpdateRecommended \
	nIterations          30 \
	history              15 \
	knormThreshold       0.0001 \
	maxThreshold         no \
	energyDiffThreshold  1e-06 \
	nEnergyDiff          2 \
	alphaTstart          1 \
	alphaTmin            1e-10 \
	updateTestStepSize   yes \
	alphaTreduceFactor   0.1 \
	alphaTincreaseFactor 3 \
	nAlphaAdjustMax      3 \
	wolfeEnergy          0.0001 \
	wolfeGradient        0.9 \
	fdTest               no
kpoint   0.500000000000   0.500000000000   0.500000000000  1.00000000000000
kpoint-folding 3 3 3 
latt-move-scale 1 1 1
latt-scale 1 1 1 
lattice  \
	   7.812361069365392    7.812361069365392   -0.000000000000000  \
	 -13.531406957368567   13.531406957368567    0.000000000000000  \
	  -0.000000000000000   -0.000000000000000   16.748733220302107 
lattice-minimize  \
	dirUpdateScheme      L-BFGS \
	linminMethod         DirUpdateRecommended \
	nIterations          0 \
	history              15 \
	knormThreshold       0 \
	maxThreshold         no \
	energyDiffThreshold  1e-06 \
	nEnergyDiff          2 \
	alphaTstart          1 \
	alphaTmin            1e-10 \
	updateTestStepSize   yes \
	alphaTreduceFactor   0.1 \
	alphaTincreaseFactor 3 \
	nAlphaAdjustMax      3 \
	wolfeEnergy          0.0001 \
	wolfeGradient        0.9 \
	fdTest               no
lcao-params -1 1e-06 0.01
pcm-variant GLSSA13
perturb-minimize  \
	nIterations            0 \
	algorithm              MINRES \
	residualTol            0.0001 \
	residualDiffThreshold  0.0001 \
	CGBypass               no \
	recomputeResidual      no
spintype no-spin
subspace-rotation-factor 1 yes
symmetries automatic
symmetry-threshold 0.0001



---------- Setting up symmetries ----------

Found 24 point-group symmetries of the bravais lattice
Found 1 space-group symmetries with basis
Applied RMS atom displacement 0 bohrs to make symmetries exact.

---------- Initializing the Grid ----------
R = 
[      7.81236      7.81236            0  ]
[     -13.5314      13.5314            0  ]
[            0            0      16.7487  ]
unit cell volume = 3541.09
G =
[   0.402131   -0.23217          0  ]
[   0.402131    0.23217          0  ]
[          0          0   0.375144  ]
Minimum fftbox size, Smin = [  72  72  76  ]
Chosen fftbox size, S = [  72  72  80  ]

---------- Initializing tighter grid for wavefunction operations ----------
R = 
[      7.81236      7.81236            0  ]
[     -13.5314      13.5314            0  ]
[            0            0      16.7487  ]
unit cell volume = 3541.09
G =
[   0.402131   -0.23217          0  ]
[   0.402131    0.23217          0  ]
[          0          0   0.375144  ]
Minimum fftbox size, Smin = [  64  64  68  ]
Chosen fftbox size, S = [  64  64  70  ]

---------- Exchange Correlation functional ----------
Initalized PBEsol GGA exchange.
Initalized PBEsol GGA correlation.

---------- Setting up pseudopotentials ----------
Width of ionic core gaussian charges (only for fluid interactions / plotting) set to 0

Reading pseudopotential file '/home/rc652/build/pseudopotentials/GBRV/re_pbesol.uspp':
  Title: Re.  Created by USPP 7.3.6 on 3-2-2014
  Reference state energy: -94.593113.  15 valence electrons in orbitals:
    |500>  occupation: 2  eigenvalue: -3.320091
    |510>  occupation: 6  eigenvalue: -1.911412
    |520>  occupation: 4.5  eigenvalue: -0.364821
    |600>  occupation: 2  eigenvalue: -0.356243
    |610>  occupation: 0  eigenvalue: -0.155248
  lMax: 3  lLocal: 3  QijEcut: 5.25
  8 projectors sampled on a log grid with 739 points:
    l: 0  eig: -0.356243  rCut: 1.45
    l: 0  eig: -3.320091  rCut: 1.45
    l: 1  eig: -1.911412  rCut: 1.5
    l: 1  eig: -0.155248  rCut: 1.5
    l: 2  eig: -0.364821  rCut: 1.6
    l: 2  eig: 1.000000  rCut: 1.6
    l: 3  eig: -0.500000  rCut: 2.3
    l: 3  eig: 1.500000  rCut: 2.3
  Partial core density with radius 1.15
  Transforming core density to a uniform radial grid of dG=0.02 with 1636 points.
  Transforming local potential to a uniform radial grid of dG=0.02 with 1636 points.
  Transforming nonlocal projectors to a uniform radial grid of dG=0.02 with 432 points.
  Transforming density augmentations to a uniform radial grid of dG=0.02 with 1636 points.
  Transforming atomic orbitals to a uniform radial grid of dG=0.02 with 432 points.
  Core radius for overlap checks: 2.30 bohrs.

Reading pseudopotential file '/home/rc652/build/pseudopotentials/GBRV/o_pbesol.uspp':
  Title: O.  Created by USPP 7.3.6 on 3-2-2014
  Reference state energy: -15.849885.  6 valence electrons in orbitals:
    |200>  occupation: 2  eigenvalue: -0.873214
    |210>  occupation: 4  eigenvalue: -0.330058
  lMax: 2  lLocal: 2  QijEcut: 6
  5 projectors sampled on a log grid with 511 points:
    l: 0  eig: -0.873214  rCut: 1.25
    l: 0  eig: 0.000000  rCut: 1.25
    l: 1  eig: -0.330058  rCut: 1.25
    l: 1  eig: 0.000000  rCut: 1.25
    l: 2  eig: 1.000000  rCut: 1.25
  Partial core density with radius 0.7
  Transforming core density to a uniform radial grid of dG=0.02 with 1636 points.
  Transforming local potential to a uniform radial grid of dG=0.02 with 1636 points.
  Transforming nonlocal projectors to a uniform radial grid of dG=0.02 with 432 points.
  Transforming density augmentations to a uniform radial grid of dG=0.02 with 1636 points.
  Transforming atomic orbitals to a uniform radial grid of dG=0.02 with 432 points.
  Core radius for overlap checks: 1.25 bohrs.

Initialized 2 species with 37 total atoms.

Folded 1 k-points by 3x3x3 to 27 k-points.

---------- Setting up k-points, bands, fillings ----------
Adding inversion symmetry to k-mesh for non-inversion-symmetric unit cell.
Reduced to 14 k-points under symmetry. 
Computing the number of bands and number of electrons
Calculating initial fillings.
nElectrons: 546.000000   nBands: 472   nStates: 14

----- Setting up reduced wavefunction bases (one per k-point) -----
average nbasis = 15129.481 , ideal nbasis = 15127.815

---------- Setting up ewald sum ----------
Optimum gaussian width for ewald sums = 3.331109 bohr.
Real space sum over 567 unit cells with max indices [  4  4  3  ]
Reciprocal space sum over 6859 terms with max indices [  9  9  9  ]

---------- Allocating electronic variables ----------
Initializing wave functions:  linear combination of atomic orbitals
Re pseudo-atom occupations:   s ( 2 0 )  p ( 6 0 )  d ( 7 )
O pseudo-atom occupations:   s ( 2 )  p ( 4 )
	FillingsUpdate:  mu: +0.897127626  nElectrons: 546.000000
LCAOMinimize: Iter:   0  F: -2888.2992892666889020  |grad|_K:  1.564e-03  alpha:  1.000e+00
	FillingsUpdate:  mu: +0.911928029  nElectrons: 546.000000
LCAOMinimize: Iter:   1  F: -2889.3557356615488061  |grad|_K:  1.645e-03  alpha:  2.053e-01  linmin: -7.181e-02  cgtest:  2.640e-01  t[s]:    101.47
	FillingsUpdate:  mu: +0.923581882  nElectrons: 546.000000
LCAOMinimize: Iter:   2  F: -2890.1463966650999282  |grad|_K:  1.316e-03  alpha:  1.450e-01  linmin:  2.169e-03  cgtest: -3.771e-01  t[s]:    136.50
	FillingsUpdate:  mu: +0.927480317  nElectrons: 546.000000
LCAOMinimize: Iter:   3  F: -2890.4624374015547801  |grad|_K:  7.554e-04  alpha:  1.166e-01  linmin:  3.903e-03  cgtest:  6.199e-01  t[s]:    173.37
LCAOMinimize: Encountered beta<0, resetting CG.
	FillingsUpdate:  mu: +0.926088740  nElectrons: 546.000000
LCAOMinimize: Iter:   4  F: -2890.5418432805163320  |grad|_K:  5.280e-04  alpha:  8.868e-02  linmin:  5.343e-04  cgtest:  1.550e-02  t[s]:    208.92
	FillingsUpdate:  mu: +0.925782041  nElectrons: 546.000000
LCAOMinimize: Iter:   5  F: -2890.6050374111960082  |grad|_K:  2.685e-04  alpha:  1.433e-01  linmin: -1.190e-02  cgtest: -5.675e-03  t[s]:    244.88
	FillingsUpdate:  mu: +0.925919908  nElectrons: 546.000000
LCAOMinimize: Iter:   6  F: -2890.6155655037255201  |grad|_K:  8.715e-05  alpha:  9.058e-02  linmin: -3.782e-04  cgtest: -1.391e-01  t[s]:    279.34
	FillingsUpdate:  mu: +0.926793148  nElectrons: 546.000000
LCAOMinimize: Iter:   7  F: -2890.6186308868391279  |grad|_K:  1.116e-04  alpha:  2.589e-01  linmin:  1.528e-03  cgtest:  1.010e-02  t[s]:    315.13
	FillingsUpdate:  mu: +0.927163424  nElectrons: 546.000000
LCAOMinimize: Iter:   8  F: -2890.6204643143450994  |grad|_K:  5.498e-05  alpha:  9.379e-02  linmin: -2.456e-03  cgtest:  4.995e-02  t[s]:    350.31
	FillingsUpdate:  mu: +0.927476266  nElectrons: 546.000000
LCAOMinimize: Iter:   9  F: -2890.6212049845976253  |grad|_K:  2.179e-05  alpha:  1.555e-01  linmin:  1.458e-03  cgtest: -3.626e-02  t[s]:    385.56
	FillingsUpdate:  mu: +0.927522028  nElectrons: 546.000000
LCAOMinimize: Iter:  10  F: -2890.6212962764543590  |grad|_K:  1.387e-05  alpha:  1.231e-01  linmin:  8.111e-05  cgtest:  6.595e-03  t[s]:    420.57
	FillingsUpdate:  mu: +0.927530334  nElectrons: 546.000000
LCAOMinimize: Iter:  11  F: -2890.6213274809210816  |grad|_K:  7.547e-06  alpha:  1.035e-01  linmin:  6.024e-05  cgtest: -3.010e-05  t[s]:    456.80
	FillingsUpdate:  mu: +0.927538072  nElectrons: 546.000000
LCAOMinimize: Iter:  12  F: -2890.6213360819915579  |grad|_K:  3.748e-06  alpha:  9.644e-02  linmin:  2.192e-05  cgtest:  8.476e-04  t[s]:    491.46
	FillingsUpdate:  mu: +0.927536264  nElectrons: 546.000000
LCAOMinimize: Iter:  13  F: -2890.6213396104722051  |grad|_K:  2.659e-06  alpha:  1.603e-01  linmin: -3.693e-05  cgtest:  1.400e-04  t[s]:    526.43
	FillingsUpdate:  mu: +0.927529334  nElectrons: 546.000000
LCAOMinimize: Iter:  14  F: -2890.6213418037855263  |grad|_K:  2.445e-06  alpha:  1.981e-01  linmin: -9.021e-06  cgtest: -2.178e-04  t[s]:    563.09
	FillingsUpdate:  mu: +0.927523152  nElectrons: 546.000000
LCAOMinimize: Iter:  15  F: -2890.6213425009423190  |grad|_K:  8.625e-07  alpha:  7.444e-02  linmin:  2.201e-05  cgtest: -2.478e-04  t[s]:    598.59
	FillingsUpdate:  mu: +0.927520136  nElectrons: 546.000000
LCAOMinimize: Iter:  16  F: -2890.6213427095922270  |grad|_K:  5.805e-07  alpha:  1.773e-01  linmin: -3.486e-03  cgtest:  1.543e-02  t[s]:    633.37
LCAOMinimize: Converged (|Delta F|<1.000000e-06 for 2 iters).


---- Citations for features of the code used in this run ----

   Software package:
      R. Sundararaman, K. Letchworth-Weaver, K.A. Schwarz, D. Gunceler, Y. Ozhabes and T.A. Arias, 'JDFTx: software for joint density-functional theory', SoftwareX 6, 278 (2017)

   gga-PBEsol exchange-correlation functional:
      J.P. Perdew et al., Phys. Rev. Lett. 100, 136406 (2008)

   Pseudopotentials:
      KF Garrity, JW Bennett, KM Rabe and D Vanderbilt, Comput. Mater. Sci. 81, 446 (2014)

This list may not be complete. Please suggest additional citations or
report any other bugs at https://github.com/shankar1729/jdftx/issues

Initialization completed successfully at t[s]:    647.51


-------- Electronic minimization -----------
Will mix electronic density at each iteration.
	FillingsUpdate:  mu: +0.927520136  nElectrons: 546.000000
	FillingsUpdate:  mu: +0.921945931  nElectrons: 546.000000
SCF: Cycle:  0   F: -2891.420257898331329   dF: -7.989e-01   |Residual|: 3.091e-01   |deigs|: 7.529e-02  t[s]:    788.30
	FillingsUpdate:  mu: +0.915844806  nElectrons: 546.000000
SCF: Cycle:  1   F: -2891.500754002876420   dF: -8.050e-02   |Residual|: 1.301e-01   |deigs|: 1.026e-02  t[s]:    899.99
	FillingsUpdate:  mu: +0.913558881  nElectrons: 546.000000
SCF: Cycle:  2   F: -2891.477982734106718   dF: +2.277e-02   |Residual|: 6.860e-02   |deigs|: 4.482e-03  t[s]:   1010.18
	FillingsUpdate:  mu: +0.913148325  nElectrons: 546.000000
SCF: Cycle:  3   F: -2891.515665894348331   dF: -3.768e-02   |Residual|: 2.249e-02   |deigs|: 1.910e-03  t[s]:   1114.57
	FillingsUpdate:  mu: +0.913273281  nElectrons: 546.000000
SCF: Cycle:  4   F: -2891.517175367605887   dF: -1.509e-03   |Residual|: 1.278e-02   |deigs|: 3.176e-04  t[s]:   1182.87
	FillingsUpdate:  mu: +0.913309638  nElectrons: 546.000000
SCF: Cycle:  5   F: -2891.517905100587086   dF: -7.297e-04   |Residual|: 5.130e-03   |deigs|: 1.752e-04  t[s]:   1251.07
	FillingsUpdate:  mu: +0.913297933  nElectrons: 546.000000
SCF: Cycle:  6   F: -2891.518032489878351   dF: -1.274e-04   |Residual|: 1.585e-03   |deigs|: 5.358e-05  t[s]:   1319.28
	FillingsUpdate:  mu: +0.913288181  nElectrons: 546.000000
SCF: Cycle:  7   F: -2891.518044655637368   dF: -1.217e-05   |Residual|: 5.873e-04   |deigs|: 2.654e-05  t[s]:   1388.27
	FillingsUpdate:  mu: +0.913279225  nElectrons: 546.000000
SCF: Cycle:  8   F: -2891.518045158285076   dF: -5.026e-07   |Residual|: 2.594e-04   |deigs|: 1.545e-05  t[s]:   1456.49
	FillingsUpdate:  mu: +0.913281358  nElectrons: 546.000000
SCF: Cycle:  9   F: -2891.518045320518468   dF: -1.622e-07   |Residual|: 1.255e-04   |deigs|: 3.970e-06  t[s]:   1525.53
	FillingsUpdate:  mu: +0.913283903  nElectrons: 546.000000
SCF: Cycle: 10   F: -2891.518045370196432   dF: -4.968e-08   |Residual|: 3.565e-05   |deigs|: 4.179e-06  t[s]:   1595.08
	FillingsUpdate:  mu: +0.913283325  nElectrons: 546.000000
SCF: Cycle: 11   F: -2891.518045370673917   dF: -4.775e-10   |Residual|: 2.346e-05   |deigs|: 1.200e-06  t[s]:   1666.02
	FillingsUpdate:  mu: +0.913283337  nElectrons: 546.000000
SCF: Cycle: 12   F: -2891.518045373211862   dF: -2.538e-09   |Residual|: 9.531e-06   |deigs|: 6.697e-07  t[s]:   1735.85
SCF: Converged (|Delta E|<1.000000e-08 for 2 iters).

Setting wave functions to eigenvectors of Hamiltonian

# Ionic positions in lattice coordinates:
ion Re   0.102660000000000   0.227920000000000   0.122020000000000 1
ion Re   0.220040000000000   0.112330000000000   0.380040000000000 1
ion Re   0.108770000000000   0.249600000000000   0.639530000000000 1
ion Re   0.224890000000000   0.090010000000000   0.876720000000000 1
ion Re   0.114230000000000   0.552300000000000   0.129330000000000 1
ion Re   0.232810000000000   0.443810000000000   0.350440000000000 1
ion Re   0.116690000000000   0.542640000000000   0.628800000000000 1
ion Re   0.214650000000000   0.445100000000000   0.882260000000000 1
ion Re   0.102640000000000   0.888630000000000   0.126590000000000 1
ion Re   0.222380000000000   0.786100000000000   0.379340000000000 1
ion Re   0.114510000000000   0.888850000000000   0.640130000000000 1
ion Re   0.231200000000000   0.778150000000000   0.861230000000000 1
ion Re   0.439910000000000   0.221430000000000   0.121830000000000 1
ion Re   0.556650000000000   0.098040000000000   0.380000000000000 1
ion Re   0.450770000000000   0.229720000000000   0.641480000000000 1
ion Re   0.549960000000000   0.119710000000000   0.866980000000000 1
ion Re   0.455100000000000   0.542490000000000   0.130390000000000 1
ion Re   0.560400000000000   0.439780000000000   0.375250000000000 1
ion Re   0.443950000000000   0.541790000000000   0.633510000000000 1
ion Re   0.558700000000000   0.446990000000000   0.877310000000000 1
ion Re   0.429680000000000   0.883470000000000   0.119070000000000 1
ion Re   0.568840000000000   0.781310000000000   0.376400000000000 1
ion Re   0.456130000000000   0.893540000000000   0.629170000000000 1
ion Re   0.560020000000000   0.762710000000000   0.870760000000000 1
ion Re   0.797530000000000   0.245570000000000   0.133490000000000 1
ion Re   0.878740000000000   0.093800000000000   0.383770000000000 1
ion Re   0.767360000000000   0.218990000000000   0.626930000000000 1
ion Re   0.872980000000000   0.110860000000000   0.879570000000000 1
ion Re   0.772010000000000   0.524650000000000   0.123730000000000 1
ion Re   0.889750000000000   0.457120000000000   0.378900000000000 1
ion Re   0.778950000000000   0.561430000000000   0.637900000000000 1
ion Re   0.889480000000000   0.441690000000000   0.880220000000000 1
ion Re   0.774630000000000   0.890740000000000   0.130910000000000 1
ion Re   0.876200000000000   0.778210000000000   0.373440000000000 1
ion Re   0.771640000000000   0.880580000000000   0.629330000000000 1
ion Re   0.904390000000000   0.779730000000000   0.880580000000000 1
ion O   0.150000000000000   0.900000000000000   0.450000000000000 1

# Forces in Lattice coordinates:
force Re   0.534075048091644  -0.706434705077153   0.072425993233356 1
force Re  -0.637820750635003   3.812105613905869  -2.116174857895208 1
force Re   0.500521352494920  -1.338801584502700  -0.306690499750316 1
force Re  -0.730336664015746   1.122737359472018   0.170430424847627 1
force Re  -0.016083034624746   0.515321029328370  -0.066151675320229 1
force Re  -0.307920512263044   0.194846470725230   0.990960531667022 1
force Re  -0.574500148458003   0.877316272967489  -0.337254154674723 1
force Re   0.397215033509507  -0.359780086373097   0.248885672297184 1
force Re   0.086455731510433  -0.128772239029187  -0.055311291169090 1
force Re   7.718028159879083  -9.062610778257653  -4.977576797987432 1
force Re  -0.560633423666956   0.234715512907595   3.512070770930854 1
force Re   0.109489380228082  -0.294629047801819   0.533269844890029 1
force Re   0.133435292457164  -0.486846569625465   0.413123147915571 1
force Re  -0.079367405327523   0.527822533755263  -0.342342822933434 1
force Re  -0.260462635553157  -0.107104771406230  -0.750783946641981 1
force Re   0.615075193516557  -0.665416584480166   0.707116550362402 1
force Re  -0.411171755090195   0.667926892591457  -0.149944888482069 1
force Re  -0.101171224323387  -0.046852333642816   0.194805757460027 1
force Re  -0.094676266476761   0.489159672423187  -0.511445688931630 1
force Re   0.010900248481702  -0.061776230844388   0.104665528029157 1
force Re   0.447787626527317  -0.050911245014995   0.176081379349258 1
force Re  -0.623914757225261  -0.130439876638713   0.011611470024463 1
force Re  -0.070998527750103  -0.268215159251090  -0.027595914768091 1
force Re  -0.327860663550299   0.569485168643346   0.368505965254430 1
force Re  -0.213045960957189  -1.066297509322984   0.155836335100293 1
force Re  -0.002446341346763   0.840877109924751  -0.038982879160978 1
force Re   0.328930573983273   0.039400439116458  -0.178712537073384 1
force Re   0.449268113905179  -0.343782571483335  -0.143655827820455 1
force Re  -0.458144848049426   1.340006805850464   0.151304602748886 1
force Re   0.284663560578695  -0.535757268882837   0.250523565543577 1
force Re   0.283886950498904  -0.339169982336764  -0.274576509933203 1
force Re   0.009433299537770   0.157546071088663  -0.462137725483175 1
force Re  -0.022105726595646  -0.124196194091912  -0.313719017726942 1
force Re   0.245384521603670  -0.517946702599073  -0.354856555404850 1
force Re   0.075834478759159   0.257026555179645   0.171657516980179 1
force Re  -0.602939537793974   0.102048546700790   0.147165919683068 1
force O  -6.135009608764821   4.887745249058780   3.024633789814424 1

# Energy components:
   Eewald =    -2539.3056660829570319
       EH =      344.3592520499157104
     Eloc =     -649.6789720842243696
      Enl =     -571.6881071530496001
      Exc =     -944.6313508783946418
 Exc_core =      550.9483576092358135
       KE =      918.7419728759145983
-------------------------------------
     Etot =    -2891.2545136635599192
       TS =        0.2635317096519242
-------------------------------------
        F =    -2891.5180453732118622

IonicMinimize: Iter:   0  F: -2891.518045373211862  |grad|_K:  8.957e-02  t[s]:   1754.14

#--- Lowdin population analysis ---
# oxidation-state Re +0.002 +0.023 +0.024 +0.012 -0.006 +0.017 +0.011 +0.025 +0.011 +0.046 +0.052 +0.003 +0.011 +0.005 +0.004 +0.022 +0.017 +0.016 +0.007 +0.008 +0.040 -0.003 +0.003 +0.010 +0.031 +0.015 +0.009 +0.025 +0.012 +0.009 +0.012 +0.016 +0.021 +0.011 +0.005 -0.003
# oxidation-state O +0.200


-------- Electronic minimization -----------
Will mix electronic density at each iteration.
	FillingsUpdate:  mu: +0.913283337  nElectrons: 546.000000
	FillingsUpdate:  mu: +0.913591770  nElectrons: 546.000000
SCF: Cycle:  0   F: -2886.818338135075464   dF: +4.272e+00   |Residual|: 7.828e-01   |deigs|: 2.316e-03  t[s]:   1909.33
	FillingsUpdate:  mu: +0.914502742  nElectrons: 546.000000
SCF: Cycle:  1   F: -2887.244021351651554   dF: -4.257e-01   |Residual|: 7.311e-01   |deigs|: 2.268e-02  t[s]:   2017.59
	FillingsUpdate:  mu: +0.913121764  nElectrons: 546.000000
SCF: Cycle:  2   F: -2891.329426972023612   dF: -4.085e+00   |Residual|: 1.919e-01   |deigs|: 1.634e-02  t[s]:   2127.74
	FillingsUpdate:  mu: +0.913075911  nElectrons: 546.000000
SCF: Cycle:  3   F: -2891.583210848448289   dF: -2.538e-01   |Residual|: 7.332e-02   |deigs|: 1.466e-03  t[s]:   2237.17
	FillingsUpdate:  mu: +0.913001299  nElectrons: 546.000000
SCF: Cycle:  4   F: -2891.610863585373409   dF: -2.765e-02   |Residual|: 4.055e-02   |deigs|: 9.420e-04  t[s]:   2347.46
	FillingsUpdate:  mu: +0.912980739  nElectrons: 546.000000
SCF: Cycle:  5   F: -2891.625254092929026   dF: -1.439e-02   |Residual|: 1.143e-02   |deigs|: 4.137e-04  t[s]:   2416.19
	FillingsUpdate:  mu: +0.912970755  nElectrons: 546.000000
SCF: Cycle:  6   F: -2891.625217799340589   dF: +3.629e-05   |Residual|: 6.270e-03   |deigs|: 9.551e-05  t[s]:   2484.26
	FillingsUpdate:  mu: +0.912974565  nElectrons: 546.000000
SCF: Cycle:  7   F: -2891.625450409269888   dF: -2.326e-04   |Residual|: 1.511e-03   |deigs|: 7.355e-05  t[s]:   2551.92
	FillingsUpdate:  mu: +0.912974646  nElectrons: 546.000000
SCF: Cycle:  8   F: -2891.625452182575373   dF: -1.773e-06   |Residual|: 7.828e-04   |deigs|: 1.594e-05  t[s]:   2622.09
	FillingsUpdate:  mu: +0.912975018  nElectrons: 546.000000
SCF: Cycle:  9   F: -2891.625455462243281   dF: -3.280e-06   |Residual|: 2.734e-04   |deigs|: 8.364e-06  t[s]:   2692.09
	FillingsUpdate:  mu: +0.912975612  nElectrons: 546.000000
SCF: Cycle: 10   F: -2891.625455557491023   dF: -9.525e-08   |Residual|: 8.428e-05   |deigs|: 2.233e-06  t[s]:   2759.49
	FillingsUpdate:  mu: +0.912975614  nElectrons: 546.000000
SCF: Cycle: 11   F: -2891.625455571048406   dF: -1.356e-08   |Residual|: 5.222e-05   |deigs|: 1.020e-06  t[s]:   2828.65
	FillingsUpdate:  mu: +0.912975557  nElectrons: 546.000000
SCF: Cycle: 12   F: -2891.625455581437564   dF: -1.039e-08   |Residual|: 1.839e-05   |deigs|: 4.337e-07  t[s]:   2898.24
	FillingsUpdate:  mu: +0.912975527  nElectrons: 546.000000
SCF: Cycle: 13   F: -2891.625455581882306   dF: -4.447e-10   |Residual|: 1.034e-05   |deigs|: 2.276e-07  t[s]:   2967.39
	FillingsUpdate:  mu: +0.912975514  nElectrons: 546.000000
SCF: Cycle: 14   F: -2891.625455582362974   dF: -4.807e-10   |Residual|: 2.265e-06   |deigs|: 1.268e-07  t[s]:   3033.39
SCF: Converged (|Delta E|<1.000000e-08 for 2 iters).

Setting wave functions to eigenvectors of Hamiltonian

# Ionic positions in lattice coordinates:
ion Re   0.102802541618138   0.227573690155330   0.122057297317575 1
ion Re   0.221039541010604   0.115083109167324   0.378951423102393 1
ion Re   0.108636901049781   0.248742076384907   0.639372269757488 1
ion Re   0.224756831335394   0.090607062700673   0.876807713391603 1
ion Re   0.114420397122737   0.552699800455420   0.129296009296398 1
ion Re   0.232644100563506   0.443842218934743   0.350949815799894 1
ion Re   0.116582939111326   0.543105047636679   0.628626547004304 1
ion Re   0.214821282828792   0.444972969081825   0.882388072847785 1
ion Re   0.102657394973742   0.888562574403708   0.126561585876975 1
ion Re   0.224891572914532   0.781998851531472   0.376779442196437 1
ion Re   0.114160639453158   0.888814055052844   0.641936741646631 1
ion Re   0.231170189734703   0.777960933452001   0.861504367594478 1
ion Re   0.439823315564826   0.221098876158103   0.122042560952991 1
ion Re   0.556795446855047   0.098424714987151   0.379823929258643 1
ion Re   0.450522514457364   0.229532941824409   0.641093816332219 1
ion Re   0.550182544714467   0.119427937609201   0.867343798941900 1
ion Re   0.455039150458267   0.542854382780970   0.130312903849346 1
ion Re   0.560301801379202   0.439703200641441   0.375350252707971 1
ion Re   0.444068145580693   0.542138210645208   0.633246938267827 1
ion Re   0.558684247947622   0.446945602379657   0.877363882187730 1
ion Re   0.430012856317695   0.883606328894825   0.119160620392193 1
ion Re   0.568296869004827   0.780961325654484   0.376406012716935 1
ion Re   0.455968349526878   0.893300626651854   0.629155843400287 1
ion Re   0.559986018204624   0.763029627532021   0.870949608693109 1
ion Re   0.796941897901823   0.244645652562396   0.133570205805498 1
ion Re   0.879069435996755   0.094461756824576   0.383749985644363 1
ion Re   0.767634769717087   0.219150669030799   0.626838105009364 1
ion Re   0.873198611865692   0.110766089768818   0.879496139108636 1
ion Re   0.772176974581167   0.525525562790005   0.123807874562411 1
ion Re   0.889763229909004   0.456809922110158   0.379028915423429 1
ion Re   0.779040086633509   0.561274553659795   0.637758790043982 1
ion Re   0.889549519737677   0.441817880180800   0.879982303589521 1
ion Re   0.774563637015937   0.890633400332143   0.130748654101780 1
ion Re   0.876189291248380   0.777898480644522   0.373257491863392 1
ion Re   0.771801055016675   0.880812450960189   0.629418344640280 1
ion Re   0.903955016633439   0.779572823899537   0.880655745514281 1
ion O   0.147090882014931   0.901434592520012   0.451555991159952 1

# Forces in Lattice coordinates:
force Re   0.508404999685702  -0.669428810163649   0.067724267067138 1
force Re  -0.434961048589216   3.288689785155072  -2.003753372078712 1
force Re   0.484534613805674  -1.278744010479273  -0.296282939573346 1
force Re  -0.700570161422456   1.100624223350454   0.173064708334000 1
force Re  -0.018939611610801   0.473172881111338  -0.064509999435218 1
force Re  -0.311037603464648   0.215401696655001   0.977718159809870 1
force Re  -0.540848275962864   0.819808296852249  -0.323194565231858 1
force Re   0.389351580135795  -0.355007203193262   0.221254283035641 1
force Re   0.098302809316222  -0.132624784724890  -0.035142371241961 1
force Re   4.980136956350460  -5.813165261575691  -3.305442820546137 1
force Re  -0.452280461453716   0.169000046167396   3.349511516469291 1
force Re   0.103159033489956  -0.282639963504341   0.540010507561228 1
force Re   0.137265038832243  -0.465378929282710   0.407545879445938 1
force Re  -0.087820388718349   0.510121060555218  -0.327905234821198 1
force Re  -0.239093867798471  -0.108441724841898  -0.715773409257110 1
force Re   0.584992250414032  -0.637137182721400   0.670218023743291 1
force Re  -0.404750280099231   0.646634031325474  -0.151355474258417 1
force Re  -0.097997634392292  -0.028202485611151   0.192910590196061 1
force Re  -0.098581467449562   0.474094766180455  -0.490306388316779 1
force Re   0.006638422038359  -0.064331809986472   0.096763119331318 1
force Re   0.455027479859215  -0.052508041005248   0.183431619635362 1
force Re  -0.608517277390736  -0.117725801471844   0.013467853793358 1
force Re  -0.077649925776827  -0.252063239988909  -0.031645456008807 1
force Re  -0.317419071302866   0.550168202156096   0.351853164454766 1
force Re  -0.221631786157807  -0.999359730639959   0.137906065168070 1
force Re  -0.008294519842336   0.813181727221093  -0.041468536710856 1
force Re   0.317121176006931   0.035997984152278  -0.170526695283096 1
force Re   0.437505815999356  -0.332106446709934  -0.141955781347783 1
force Re  -0.424595652512550   1.273736987143736   0.151510865296752 1
force Re   0.277003464063951  -0.532537355848843   0.237227770160254 1
force Re   0.274498540890950  -0.340698634631162  -0.265642335819775 1
force Re   0.003203034930250   0.151704856645131  -0.441664244288448 1
force Re  -0.015998679628770  -0.125187820015210  -0.291648864184876 1
force Re   0.330918736178810  -0.537819581620264  -0.368535304227489 1
force Re   0.069970796196559   0.253738981601530   0.161738775806786 1
force Re  -0.600561682889693   0.096726262256176   0.172581510628836 1
force O  -3.796580494431506   2.252694223042118   1.357994521893336 1

# Energy components:
   Eewald =    -2541.4800047125499987
       EH =      342.4941621300681049
     Eloc =     -645.5247479379511333
      Enl =     -571.6874543042011965
      Exc =     -944.5439483725524497
 Exc_core =      550.9483097506121112
       KE =      918.4317489862561388
-------------------------------------
     Etot =    -2891.3619344603180252
       TS =        0.2635211220447697
-------------------------------------
        F =    -2891.6254555823629744

IonicMinimize: Iter:   1  F: -2891.625455582362974  |grad|_K:  6.333e-02  alpha:  1.443e-01  linmin: -9.769e-01  t[s]:   3051.97

#--- Lowdin population analysis ---
# oxidation-state Re +0.001 +0.042 +0.022 +0.011 -0.005 +0.016 +0.011 +0.025 +0.012 +0.046 +0.073 +0.002 +0.011 +0.007 +0.002 +0.022 +0.020 +0.013 +0.009 +0.008 +0.041 -0.004 +0.005 +0.010 +0.030 +0.014 +0.009 +0.026 +0.011 +0.010 +0.011 +0.016 +0.021 +0.023 +0.003 -0.004
# oxidation-state O +0.146


-------- Electronic minimization -----------
Will mix electronic density at each iteration.
	FillingsUpdate:  mu: +0.912975514  nElectrons: 546.000000
	FillingsUpdate:  mu: +0.914352347  nElectrons: 546.000000
SCF: Cycle:  0   F: -2882.103836660826801   dF: +8.686e+00   |Residual|: 1.072e+00   |deigs|: 4.032e-03  t[s]:   3209.53
	FillingsUpdate:  mu: +0.914984721  nElectrons: 546.000000
SCF: Cycle:  1   F: -2882.920649991426671   dF: -8.168e-01   |Residual|: 1.038e+00   |deigs|: 2.716e-02  t[s]:   3321.89
	FillingsUpdate:  mu: +0.912975327  nElectrons: 546.000000
SCF: Cycle:  2   F: -2891.213782475112112   dF: -8.293e+00   |Residual|: 2.585e-01   |deigs|: 2.328e-02  t[s]:   3433.26
	FillingsUpdate:  mu: +0.912729027  nElectrons: 546.000000
SCF: Cycle:  3   F: -2891.646064819952699   dF: -4.323e-01   |Residual|: 1.016e-01   |deigs|: 2.335e-03  t[s]:   3546.86
	FillingsUpdate:  mu: +0.912571100  nElectrons: 546.000000
SCF: Cycle:  4   F: -2891.698426460449809   dF: -5.236e-02   |Residual|: 5.009e-02   |deigs|: 1.226e-03  t[s]:   3653.47
	FillingsUpdate:  mu: +0.912538533  nElectrons: 546.000000
SCF: Cycle:  5   F: -2891.721931198129823   dF: -2.350e-02   |Residual|: 1.596e-02   |deigs|: 4.320e-04  t[s]:   3731.70
	FillingsUpdate:  mu: +0.912523430  nElectrons: 546.000000
SCF: Cycle:  6   F: -2891.722349155178108   dF: -4.180e-04   |Residual|: 6.469e-03   |deigs|: 1.078e-04  t[s]:   3800.03
	FillingsUpdate:  mu: +0.912525491  nElectrons: 546.000000
SCF: Cycle:  7   F: -2891.722517436865928   dF: -1.683e-04   |Residual|: 2.757e-03   |deigs|: 6.015e-05  t[s]:   3868.81
	FillingsUpdate:  mu: +0.912523389  nElectrons: 546.000000
SCF: Cycle:  8   F: -2891.722542569879352   dF: -2.513e-05   |Residual|: 8.290e-04   |deigs|: 2.957e-05  t[s]:   3939.92
	FillingsUpdate:  mu: +0.912524761  nElectrons: 546.000000
SCF: Cycle:  9   F: -2891.722544714887590   dF: -2.145e-06   |Residual|: 4.653e-04   |deigs|: 8.085e-06  t[s]:   4011.27
	FillingsUpdate:  mu: +0.912526212  nElectrons: 546.000000
SCF: Cycle: 10   F: -2891.722545462387188   dF: -7.475e-07   |Residual|: 1.119e-04   |deigs|: 4.413e-06  t[s]:   4079.20
	FillingsUpdate:  mu: +0.912526163  nElectrons: 546.000000
SCF: Cycle: 11   F: -2891.722545460272158   dF: +2.115e-09   |Residual|: 7.623e-05   |deigs|: 1.107e-06  t[s]:   4149.36
	FillingsUpdate:  mu: +0.912526090  nElectrons: 546.000000
SCF: Cycle: 12   F: -2891.722545484248258   dF: -2.398e-08   |Residual|: 3.057e-05   |deigs|: 6.428e-07  t[s]:   4220.52
	FillingsUpdate:  mu: +0.912526002  nElectrons: 546.000000
SCF: Cycle: 13   F: -2891.722545485909450   dF: -1.661e-09   |Residual|: 1.061e-05   |deigs|: 2.823e-07  t[s]:   4291.06
	FillingsUpdate:  mu: +0.912525995  nElectrons: 546.000000
SCF: Cycle: 14   F: -2891.722545486597028   dF: -6.876e-10   |Residual|: 4.388e-06   |deigs|: 1.036e-07  t[s]:   4359.40
SCF: Converged (|Delta E|<1.000000e-08 for 2 iters).

Setting wave functions to eigenvectors of Hamiltonian

# Ionic positions in lattice coordinates:
ion Re   0.103096835350829   0.226876744126178   0.122131086397734 1
ion Re   0.223080286457500   0.120008615072238   0.376753715131196 1
ion Re   0.108381749887059   0.246994609500300   0.639043536421041 1
ion Re   0.224514018284905   0.091900795241288   0.877005193499737 1
ion Re   0.114775076976631   0.553462440073786   0.129224098405325 1
ion Re   0.232298397838845   0.443963904432131   0.352047871394839 1
ion Re   0.116360581909292   0.544018927367139   0.628269614406527 1
ion Re   0.215183308289278   0.444695840132622   0.882621448777379 1
ion Re   0.102722188342194   0.888419823303454   0.126534300485737 1
ion Re   0.227436247983273   0.778011698370298   0.374068810092204 1
ion Re   0.113594326882083   0.888704116833384   0.645626246738881 1
ion Re   0.231103720104463   0.777568735052177   0.862119518730379 1
ion Re   0.439671636931014   0.220433218212118   0.122500268563395 1
ion Re   0.557069003938267   0.099212110077316   0.379461899838515 1
ion Re   0.450033616756636   0.229146561289941   0.640305631354841 1
ion Re   0.550629299640416   0.118843030566228   0.868079407754914 1
ion Re   0.454894010309720   0.543607353967946   0.130140862147588 1
ion Re   0.560119274061453   0.439588446295555   0.375567398339713 1
ion Re   0.444297358262759   0.542858464283785   0.632705300040318 1
ion Re   0.558634770187188   0.446835412172770   0.877468554896211 1
ion Re   0.430762115871807   0.883911555934141   0.119372730992412 1
ion Re   0.567160595416140   0.780249122812216   0.376422454209721 1
ion Re   0.455616641671459   0.892808501560324   0.629117611826166 1
ion Re   0.559913368605975   0.763694837484686   0.871337493193351 1
ion Re   0.795715093915005   0.242780417610032   0.133715255123578 1
ion Re   0.879741228954880   0.095835176229955   0.383701603034304 1
ion Re   0.768202890035073   0.219479105743172   0.626650278939901 1
ion Re   0.873663528727960   0.110575057960257   0.879336645826945 1
ion Re   0.772545290474224   0.527318681869181   0.123979475682467 1
ion Re   0.889776124426438   0.456126344154231   0.379289184126679 1
ion Re   0.779211029283217   0.560916028644592   0.637463815340431 1
ion Re   0.889677911751965   0.442075144924251   0.879495286965177 1
ion Re   0.774432693468142   0.890404471476150   0.130432339906721 1
ion Re   0.876368031659469   0.777274631122433   0.372832194691748 1
ion Re   0.772135153421937   0.881307016690622   0.629595286860717 1
ion Re   0.902997612272356   0.779216086298383   0.880866697047365 1
ion O   0.143424981650150   0.900666973114722   0.452066882815842 1

# Forces in Lattice coordinates:
force Re   0.458957300828981  -0.594930909170707   0.062289458690481 1
force Re  -0.195338516252860   2.316093598059279  -1.597091038804936 1
force Re   0.457543813305176  -1.164204688343862  -0.278115265919260 1
force Re  -0.641037339735235   1.053946423557148   0.184149381612784 1
force Re  -0.031222367845638   0.397314186498104  -0.078173897146285 1
force Re  -0.309913196756620   0.224793928022447   0.939565399988037 1
force Re  -0.476987612469035   0.719365221183851  -0.292327118804114 1
force Re   0.368310550575830  -0.340213937431476   0.173095895767059 1
force Re   0.109064372141292  -0.133565850801970  -0.020552538340737 1
force Re   3.330001915458219  -3.817375609111467  -2.267384500054249 1
force Re  -0.309727002650060   0.132464302520849   2.658215924965862 1
force Re   0.094576181595959  -0.259445731391021   0.549398564910465 1
force Re   0.147580428436708  -0.418758899370758   0.385841983422607 1
force Re  -0.096884836789419   0.475604166922477  -0.302299563575075 1
force Re  -0.208180533543683  -0.110984211501621  -0.651589746286623 1
force Re   0.528852840949034  -0.583639849095204   0.604132152947269 1
force Re  -0.387621965419001   0.602051785273001  -0.146197359088244 1
force Re  -0.091101422599926  -0.001082183717780   0.182351848712910 1
force Re  -0.103448166530317   0.441864188648026  -0.450908376177112 1
force Re   0.000492077985181  -0.068652083899706   0.077388397570442 1
force Re   0.456108312342419  -0.052255189880344   0.182950731856709 1
force Re  -0.540604096730737  -0.107182403243549   0.019444151089636 1
force Re  -0.086137974955262  -0.220934581752063  -0.033561824565620 1
force Re  -0.301602354960946   0.515190538696213   0.322969980878678 1
force Re  -0.232366438956652  -0.874886475909742   0.102119043828954 1
force Re  -0.011373630078035   0.743480408647587  -0.042582070290266 1
force Re   0.292454005084085   0.029536381043439  -0.152159109062332 1
force Re   0.416947870771217  -0.309548071899031  -0.137801134718626 1
force Re  -0.362084293063020   1.145763680119186   0.148814031481526 1
force Re   0.264989927010633  -0.517628115597924   0.208175442741325 1
force Re   0.249241662936668  -0.326670548419973  -0.254177397745290 1
force Re  -0.001404248728332   0.133594145042104  -0.393847352728043 1
force Re  -0.008709642184357  -0.123745220260411  -0.248033750585639 1
force Re   0.333106961728664  -0.499585251952057  -0.390493994961282 1
force Re   0.065276890750796   0.239484305074174   0.135332338403393 1
force Re  -0.583194056958223   0.092327585213637   0.194603566459743 1
force O  -2.594780999074848   1.262789682508622   0.605177298860061 1

# Energy components:
   Eewald =    -2544.1409660063795855
       EH =      340.1435183906199882
     Eloc =     -640.3702026088478760
      Enl =     -571.6754867699243050
      Exc =     -944.4451209087037569
 Exc_core =      550.9482674794995773
       KE =      918.0809966465158141
-------------------------------------
     Etot =    -2891.4589937772193480
       TS =        0.2635517093776514
-------------------------------------
        F =    -2891.7225454865970278

IonicMinimize: Iter:   2  F: -2891.722545486597028  |grad|_K:  4.645e-02  alpha:  4.024e-01  linmin: -9.943e-01  t[s]:   4377.70

#--- Lowdin population analysis ---
# oxidation-state Re +0.001 +0.059 +0.019 +0.011 -0.005 +0.014 +0.009 +0.023 +0.010 +0.055 +0.092 +0.002 +0.010 +0.007 +0.001 +0.022 +0.023 +0.011 +0.011 +0.008 +0.040 -0.006 +0.005 +0.010 +0.029 +0.012 +0.008 +0.026 +0.011 +0.010 +0.010 +0.018 +0.020 +0.036 +0.002 -0.003
# oxidation-state O +0.093


-------- Electronic minimization -----------
Will mix electronic density at each iteration.
	FillingsUpdate:  mu: +0.912525995  nElectrons: 546.000000
	FillingsUpdate:  mu: +0.915946452  nElectrons: 546.000000
SCF: Cycle:  0   F: -2876.289695525856587   dF: +1.398e+01   |Residual|: 1.346e+00   |deigs|: 6.370e-03  t[s]:   4536.11
	FillingsUpdate:  mu: +0.915864993  nElectrons: 546.000000
SCF: Cycle:  1   F: -2877.497616554547676   dF: -1.208e+00   |Residual|: 1.295e+00   |deigs|: 2.828e-02  t[s]:   4645.89
	FillingsUpdate:  mu: +0.912853191  nElectrons: 546.000000
SCF: Cycle:  2   F: -2891.065386278115056   dF: -1.357e+01   |Residual|: 3.148e-01   |deigs|: 2.939e-02  t[s]:   4754.86
	FillingsUpdate:  mu: +0.912232635  nElectrons: 546.000000
SCF: Cycle:  3   F: -2891.701757270737744   dF: -6.364e-01   |Residual|: 1.332e-01   |deigs|: 3.266e-03  t[s]:   4866.83
	FillingsUpdate:  mu: +0.912017807  nElectrons: 546.000000
SCF: Cycle:  4   F: -2891.783339486103159   dF: -8.158e-02   |Residual|: 5.664e-02   |deigs|: 1.730e-03  t[s]:   4979.24
	FillingsUpdate:  mu: +0.911965801  nElectrons: 546.000000
SCF: Cycle:  5   F: -2891.810144546355787   dF: -2.681e-02   |Residual|: 2.212e-02   |deigs|: 4.801e-04  t[s]:   5082.50
	FillingsUpdate:  mu: +0.911928377  nElectrons: 546.000000
SCF: Cycle:  6   F: -2891.811565843411699   dF: -1.421e-03   |Residual|: 7.708e-03   |deigs|: 1.624e-04  t[s]:   5152.83
	FillingsUpdate:  mu: +0.911927440  nElectrons: 546.000000
SCF: Cycle:  7   F: -2891.811726959869702   dF: -1.611e-04   |Residual|: 3.823e-03   |deigs|: 6.684e-05  t[s]:   5221.36
	FillingsUpdate:  mu: +0.911924592  nElectrons: 546.000000
SCF: Cycle:  8   F: -2891.811785458482063   dF: -5.850e-05   |Residual|: 1.082e-03   |deigs|: 4.009e-05  t[s]:   5292.55
	FillingsUpdate:  mu: +0.911927932  nElectrons: 546.000000
SCF: Cycle:  9   F: -2891.811788515980425   dF: -3.057e-06   |Residual|: 6.262e-04   |deigs|: 9.763e-06  t[s]:   5361.91
	FillingsUpdate:  mu: +0.911930411  nElectrons: 546.000000
SCF: Cycle: 10   F: -2891.811790214575012   dF: -1.699e-06   |Residual|: 1.501e-04   |deigs|: 6.361e-06  t[s]:   5431.99
	FillingsUpdate:  mu: +0.911930121  nElectrons: 546.000000
SCF: Cycle: 11   F: -2891.811790208711955   dF: +5.863e-09   |Residual|: 9.630e-05   |deigs|: 1.484e-06  t[s]:   5502.06
	FillingsUpdate:  mu: +0.911930031  nElectrons: 546.000000
SCF: Cycle: 12   F: -2891.811790240662958   dF: -3.195e-08   |Residual|: 4.803e-05   |deigs|: 9.708e-07  t[s]:   5572.47
	FillingsUpdate:  mu: +0.911929881  nElectrons: 546.000000
SCF: Cycle: 13   F: -2891.811790248495527   dF: -7.833e-09   |Residual|: 1.286e-05   |deigs|: 5.006e-07  t[s]:   5642.22
	FillingsUpdate:  mu: +0.911929875  nElectrons: 546.000000
SCF: Cycle: 14   F: -2891.811790249010301   dF: -5.148e-10   |Residual|: 7.350e-06   |deigs|: 1.278e-07  t[s]:   5710.76
SCF: Converged (|Delta E|<1.000000e-08 for 2 iters).

Setting wave functions to eigenvectors of Hamiltonian

# Ionic positions in lattice coordinates:
ion Re   0.103617594052984   0.225754827390801   0.122260459365147 1
ion Re   0.225763997921184   0.125375501491444   0.373848622383802 1
ion Re   0.108033854229503   0.244055502220182   0.638453174576506 1
ion Re   0.224218434323787   0.094369726296434   0.877435027327821 1
ion Re   0.115217667497103   0.554553870021300   0.129028698353165 1
ion Re   0.231639106768666   0.444236225443393   0.354085527127606 1
ion Re   0.115993506797028   0.545483537082573   0.627668323945705 1
ion Re   0.215827252452840   0.444171727197804   0.882924991194179 1
ion Re   0.102896407920578   0.888160601881223   0.126517524430628 1
ion Re   0.230203374373677   0.774352475407742   0.371150039572931 1
ion Re   0.113092594459066   0.888704010619042   0.650447224893807 1
ion Re   0.230990301215371   0.776891114493479   0.863364813282100 1
ion Re   0.439546949246114   0.219385836432592   0.123327678930918 1
ion Re   0.557480718083434   0.100571954667598   0.378830285937752 1
ion Re   0.449210935584968   0.228445003582033   0.638959377689760 1
ion Re   0.551363700541145   0.117816322547842   0.869316038255676 1
ion Re   0.454582993883819   0.544911484082108   0.129821499609194 1
ion Re   0.559860077467472   0.439511264002953   0.375958228763963 1
ion Re   0.444644385369222   0.544104325691282   0.631764910242029 1
ion Re   0.558496400517949   0.446581161942194   0.877609066969491 1
ion Re   0.432241284046473   0.884516699939629   0.119783512817667 1
ion Re   0.565309377757826   0.779071600314598   0.376475820563521 1
ion Re   0.454960590025553   0.891974189374588   0.629038306915873 1
ion Re   0.559759036325790   0.764871950065244   0.872009592379329 1
ion Re   0.793554953810425   0.239698821795298   0.133882394316100 1
ion Re   0.880876036376651   0.098178529715712   0.383603879511398 1
ion Re   0.769182508470536   0.220032013503052   0.626341160068324 1
ion Re   0.874536762993964   0.110260780434183   0.879035517252117 1
ion Re   0.773264184087063   0.530369630543862   0.124308166835105 1
ion Re   0.889783460413627   0.454827696249795   0.379705416499016 1
ion Re   0.779457011948092   0.560224016076064   0.636916124973505 1
ion Re   0.889864980415080   0.442477512551943   0.878695311964285 1
ion Re   0.774212691106727   0.889978683194653   0.129952439834451 1
ion Re   0.876741702277055   0.776238370691996   0.371920572066195 1
ion Re   0.772737240490797   0.882196787746888   0.629853826949078 1
ion Re   0.901193631410031   0.778541485050948   0.881344256413110 1
ion O   0.138884295338401   0.898894760257528   0.451712187788746 1

# Forces in Lattice coordinates:
force Re   0.378743194058496  -0.479049269180204   0.059657614779529 1
force Re  -0.021177984021791   1.414820025985557  -1.159019808614153 1
force Re   0.415562194640651  -0.984658090369448  -0.251447565242536 1
force Re  -0.545781255656202   0.951295971695051   0.192995048745272 1
force Re  -0.048603468555385   0.287709740910824  -0.092480949546603 1
force Re  -0.299893051931339   0.211843876897715   0.859785368393247 1
force Re  -0.378583529909563   0.570393112533727  -0.236575147847392 1
force Re   0.329351457504215  -0.308142721371564   0.102097764776652 1
force Re   0.119770207832156  -0.131405537075571  -0.020756002395218 1
force Re   2.159810941231002  -2.412081209776505  -1.508956536326904 1
force Re  -0.178520684527840   0.101335242798050   1.762591850159840 1
force Re   0.070859957248659  -0.211711157681017   0.547871638035807 1
force Re   0.161952295713599  -0.341877047610503   0.336930406347521 1
force Re  -0.099164139065309   0.416650767436602  -0.256803948200925 1
force Re  -0.161156281051976  -0.111802530857490  -0.549892312390285 1
force Re   0.442488681807113  -0.497326560163067   0.503451202291388 1
force Re  -0.355129862361231   0.524947992420168  -0.130197300597372 1
force Re  -0.080857202607702   0.033759822411439   0.164134920297239 1
force Re  -0.106341137596882   0.386228414269985  -0.384798088948777 1
force Re  -0.008254542847723  -0.072692108116952   0.046453079099728 1
force Re   0.442672043264531  -0.050783982132138   0.170673762399383 1
force Re  -0.424331994415420  -0.090664920348191   0.029083521206374 1
force Re  -0.094351745558123  -0.171054009068439  -0.031221231811546 1
force Re  -0.275321044734803   0.456327813840943   0.274207890055707 1
force Re  -0.235285833841430  -0.693343064369684   0.046784054189042 1
force Re  -0.008006349718469   0.622349540492088  -0.044421028189090 1
force Re   0.252327110553745   0.017222222279519  -0.120509908478742 1
force Re   0.382933370829451  -0.271132080242548  -0.128776726467165 1
force Re  -0.276386655796670   0.950521537097522   0.140616399719347 1
force Re   0.244948164120956  -0.481488734922734   0.160099775973389 1
force Re   0.203890625975255  -0.287567385887068  -0.234564802282623 1
force Re  -0.004004435376156   0.100759316879380  -0.317502027235250 1
force Re   0.000175982426299  -0.114082967024837  -0.185267756315791 1
force Re   0.251581967376791  -0.413350422627564  -0.407177318157063 1
force Re   0.064460300783205   0.205886504401356   0.091784237476699 1
force Re  -0.530967744469850   0.088499082437622   0.201824002450158 1
force O  -1.789325128346981   0.784022115510521   0.368503764617342 1

# Energy components:
   Eewald =    -2547.0691563570799190
       EH =      337.5042319659272607
     Eloc =     -634.6414223875187872
      Enl =     -571.6540433064731133
      Exc =     -944.3384236457588941
 Exc_core =      550.9482256094087234
       KE =      917.7024496668336724
-------------------------------------
     Etot =    -2891.5481384546601475
       TS =        0.2636517943500374
-------------------------------------
        F =    -2891.8117902490103006

IonicMinimize: Iter:   3  F: -2891.811790249010301  |grad|_K:  3.309e-02  alpha:  3.643e-01  linmin: -9.807e-01  t[s]:   5729.43

#--- Lowdin population analysis ---
# oxidation-state Re +0.001 +0.074 +0.016 +0.011 -0.003 +0.012 +0.007 +0.021 +0.008 +0.066 +0.108 +0.004 +0.010 +0.007 +0.000 +0.022 +0.027 +0.008 +0.013 +0.008 +0.037 -0.007 +0.005 +0.010 +0.026 +0.010 +0.008 +0.026 +0.010 +0.008 +0.008 +0.019 +0.019 +0.050 +0.002 -0.000
# oxidation-state O +0.043


-------- Electronic minimization -----------
Will mix electronic density at each iteration.
	FillingsUpdate:  mu: +0.911929875  nElectrons: 546.000000
	FillingsUpdate:  mu: +0.918618768  nElectrons: 546.000000
SCF: Cycle:  0   F: -2867.235904311202830   dF: +2.214e+01   |Residual|: 1.655e+00   |deigs|: 9.836e-03  t[s]:   5887.64
	FillingsUpdate:  mu: +0.917708114  nElectrons: 546.000000
SCF: Cycle:  1   F: -2868.039206639658460   dF: -8.033e-01   |Residual|: 1.575e+00   |deigs|: 2.823e-02  t[s]:   6000.15
	FillingsUpdate:  mu: +0.912948770  nElectrons: 546.000000
SCF: Cycle:  2   F: -2890.801708874242195   dF: -2.276e+01   |Residual|: 3.655e-01   |deigs|: 3.722e-02  t[s]:   6115.05
	FillingsUpdate:  mu: +0.911683138  nElectrons: 546.000000
SCF: Cycle:  3   F: -2891.734297804305243   dF: -9.326e-01   |Residual|: 1.649e-01   |deigs|: 4.133e-03  t[s]:   6225.18
	FillingsUpdate:  mu: +0.911429605  nElectrons: 546.000000
SCF: Cycle:  4   F: -2891.858437380076339   dF: -1.241e-01   |Residual|: 6.857e-02   |deigs|: 2.195e-03  t[s]:   6336.32
	FillingsUpdate:  mu: +0.911316777  nElectrons: 546.000000
SCF: Cycle:  5   F: -2891.887572981816902   dF: -2.914e-02   |Residual|: 2.801e-02   |deigs|: 5.946e-04  t[s]:   6438.11
	FillingsUpdate:  mu: +0.911222937  nElectrons: 546.000000
SCF: Cycle:  6   F: -2891.889615947732636   dF: -2.043e-03   |Residual|: 9.483e-03   |deigs|: 2.311e-04  t[s]:   6508.93
	FillingsUpdate:  mu: +0.911218527  nElectrons: 546.000000
SCF: Cycle:  7   F: -2891.889811938886396   dF: -1.960e-04   |Residual|: 4.848e-03   |deigs|: 7.050e-05  t[s]:   6579.38
	FillingsUpdate:  mu: +0.911219832  nElectrons: 546.000000
SCF: Cycle:  8   F: -2891.889893117260272   dF: -8.118e-05   |Residual|: 1.319e-03   |deigs|: 4.042e-05  t[s]:   6649.15
	FillingsUpdate:  mu: +0.911225998  nElectrons: 546.000000
SCF: Cycle:  9   F: -2891.889896346409387   dF: -3.229e-06   |Residual|: 7.546e-04   |deigs|: 1.461e-05  t[s]:   6718.88
	FillingsUpdate:  mu: +0.911229582  nElectrons: 546.000000
SCF: Cycle: 10   F: -2891.889899619653079   dF: -3.273e-06   |Residual|: 1.884e-04   |deigs|: 8.409e-06  t[s]:   6787.57
	FillingsUpdate:  mu: +0.911228508  nElectrons: 546.000000
SCF: Cycle: 11   F: -2891.889899601442721   dF: +1.821e-08   |Residual|: 1.296e-04   |deigs|: 2.378e-06  t[s]:   6855.60
	FillingsUpdate:  mu: +0.911228436  nElectrons: 546.000000
SCF: Cycle: 12   F: -2891.889899674585195   dF: -7.314e-08   |Residual|: 6.905e-05   |deigs|: 1.127e-06  t[s]:   6926.88
	FillingsUpdate:  mu: +0.911228194  nElectrons: 546.000000
SCF: Cycle: 13   F: -2891.889899697363035   dF: -2.278e-08   |Residual|: 1.621e-05   |deigs|: 7.268e-07  t[s]:   6995.58
	FillingsUpdate:  mu: +0.911228202  nElectrons: 546.000000
SCF: Cycle: 14   F: -2891.889899698467616   dF: -1.105e-09   |Residual|: 9.129e-06   |deigs|: 1.476e-07  t[s]:   7066.40
	FillingsUpdate:  mu: +0.911228218  nElectrons: 546.000000
SCF: Cycle: 15   F: -2891.889899698644967   dF: -1.774e-10   |Residual|: 4.969e-06   |deigs|: 1.060e-07  t[s]:   7131.65
SCF: Converged (|Delta E|<1.000000e-08 for 2 iters).

Setting wave functions to eigenvectors of Hamiltonian

# Ionic positions in lattice coordinates:
ion Re   0.104432433419901   0.224210797647511   0.122503075166259 1
ion Re   0.228828043248821   0.130020059744114   0.370395768617516 1
ion Re   0.107755004311893   0.239694367164349   0.637457135308063 1
ion Re   0.223983591809775   0.098615114970443   0.878299373855558 1
ion Re   0.115492488386172   0.555710513380426   0.128581578349620 1
ion Re   0.230387358131270   0.444641958441322   0.357552225576426 1
ion Re   0.115488335829209   0.547506119655800   0.626817796943823 1
ion Re   0.216874756431513   0.443278331217570   0.883138700980546 1
ion Re   0.103315602578113   0.887724509872323   0.126450613329988 1
ion Re   0.233306721419163   0.771192151658238   0.367981582243567 1
ion Re   0.112914360391950   0.888968801101109   0.655097126786789 1
ion Re   0.230766466284354   0.775892107417108   0.865729986501522 1
ion Re   0.439738379462796   0.218063177085723   0.124638270289102 1
ion Re   0.558034159915091   0.102700935115654   0.377863229184075 1
ion Re   0.448004508243269   0.227283337421010   0.636911247185655 1
ion Re   0.552430075297857   0.116199059113866   0.871163997074399 1
ion Re   0.453940745429637   0.546915415191834   0.129303832965527 1
ion Re   0.559577026194455   0.439669663907824   0.376609156792090 1
ion Re   0.445066315667696   0.546029676182282   0.630312640929544 1
ion Re   0.558147945737836   0.446030537900597   0.877713443582467 1
ion Re   0.434950223851955   0.885624148826593   0.120490589157107 1
ion Re   0.562792158577247   0.777425404112537   0.376630379214612 1
ion Re   0.453847289949727   0.890749698249112   0.628906092113416 1
ion Re   0.559434554937176   0.766757160872872   0.873039575034947 1
ion Re   0.790130662190760   0.235225338655604   0.133910927046757 1
ion Re   0.882596814356995   0.101693788275014   0.383407069313071 1
ion Re   0.770684113207299   0.220826130472361   0.625918784395066 1
ion Re   0.876095214082860   0.109834896160323   0.878507740504763 1
ion Re   0.774530616526305   0.534994331713938   0.124890957644390 1
ion Re   0.889793620582534   0.452569701312225   0.380246727740273 1
ion Re   0.779725838472890   0.559058380733798   0.635967872278569 1
ion Re   0.890075920024453   0.442968562872134   0.877566052202479 1
ion Re   0.773902188355970   0.889286415891380   0.129356267182813 1
ion Re   0.876969415786455   0.774584400759567   0.370102152067177 1
ion Re   0.773754054040525   0.883614471219322   0.630115533282439 1
ion Re   0.898189184253008   0.777458885294623   0.882261147350644 1
ion O   0.133283812613071   0.896771650389493   0.451511351808940 1

# Forces in Lattice coordinates:
force Re   0.265742784676481  -0.326189275358768   0.064136964690491 1
force Re   0.060934511465396   0.731877765135150  -0.770778200829713 1
force Re   0.353391079623466  -0.742436244912466  -0.218246190064042 1
force Re  -0.411053421455383   0.748959967093131   0.175994251344070 1
force Re  -0.062471667797035   0.153769692930444  -0.094243105796932 1
force Re  -0.263718407129277   0.157760457960801   0.722554145786702 1
force Re  -0.255431022331348   0.388239084838143  -0.152448337416551 1
force Re   0.265923778155305  -0.244845748699786   0.015074175881680 1
force Re   0.134283122207913  -0.122572636035323  -0.039512510993931 1
force Re   1.207360213591172  -1.309202216316116  -0.893040995804201 1
force Re  -0.098723207223082   0.066249185589466   1.110242719190796 1
force Re   0.015815658854019  -0.126044329412950   0.501667059561870 1
force Re   0.170113994350722  -0.229790647578283   0.248861378042107 1
force Re  -0.088682053802748   0.325698640202274  -0.180956453614464 1
force Re  -0.096063183430922  -0.106246940859718  -0.411352002537866 1
force Re   0.327537300621375  -0.374957259982162   0.364560066324582 1
force Re  -0.301509707570629   0.406789744231940  -0.100302686014475 1
force Re  -0.070327155124541   0.069191142755711   0.137919993878441 1
force Re  -0.100188206916678   0.301961002816495  -0.286306860882867 1
force Re  -0.017302668925016  -0.071350283625369   0.008002745735443 1
force Re   0.397129165830672  -0.050036882432068   0.141358194237427 1
force Re  -0.271511721132630  -0.062133127379942   0.043099450118142 1
force Re  -0.097704669504376  -0.102599884739037  -0.023418763347727 1
force Re  -0.231043199306355   0.364413265723719   0.198916604794434 1
force Re  -0.209688804436328  -0.473933446942906  -0.023809494993107 1
force Re   0.004280948253899   0.447367966921803  -0.049495326698355 1
force Re   0.196298690313646  -0.003472321169758  -0.073938123893114 1
force Re   0.328112123964344  -0.214051600945766  -0.112093115760767 1
force Re  -0.185350312782381   0.693377171123680   0.121242529858712 1
force Re   0.209794326255433  -0.408039207250621   0.093504465843452 1
force Re   0.138103273377821  -0.215105080871303  -0.200445049901738 1
force Re  -0.003722928430627   0.055330246082774  -0.218738425607813 1
force Re   0.010888397205231  -0.087198269548216  -0.113380439165293 1
force Re   0.107414164833581  -0.289112542051449  -0.390072173768451 1
force Re   0.065347910496049   0.148120574478340   0.036626070487705 1
force Re  -0.421782007421756   0.084978408684248   0.174302696429964 1
force O  -1.072175295060908   0.415552422286808   0.194342375904460 1

# Energy components:
   Eewald =    -2550.0080829407870624
       EH =      334.8054890648868422
     Eloc =     -628.8365823110954125
      Enl =     -571.6248512781000954
      Exc =     -944.2309876591364173
 Exc_core =      550.9481841406329750
       KE =      917.3208294464852770
-------------------------------------
     Etot =    -2891.6260015371130976
       TS =        0.2638981615318534
-------------------------------------
        F =    -2891.8898996986449674

IonicMinimize: Iter:   4  F: -2891.889899698644967  |grad|_K:  2.166e-02  alpha:  4.048e-01  linmin: -9.815e-01  t[s]:   7150.10

#--- Lowdin population analysis ---
# oxidation-state Re +0.003 +0.086 +0.013 +0.011 +0.001 +0.008 +0.005 +0.019 +0.004 +0.076 +0.119 +0.005 +0.010 +0.005 -0.000 +0.022 +0.033 +0.004 +0.015 +0.009 +0.031 -0.008 +0.005 +0.010 +0.023 +0.009 +0.009 +0.026 +0.009 +0.005 +0.007 +0.021 +0.018 +0.065 +0.002 +0.003
# oxidation-state O +0.002


-------- Electronic minimization -----------
Will mix electronic density at each iteration.
	FillingsUpdate:  mu: +0.911228218  nElectrons: 546.000000
	FillingsUpdate:  mu: +0.920894669  nElectrons: 546.000000
SCF: Cycle:  0   F: -2853.867819895088360   dF: +3.398e+01   |Residual|: 2.056e+00   |deigs|: 1.538e-02  t[s]:   7307.67
	FillingsUpdate:  mu: +0.920107815  nElectrons: 546.000000
SCF: Cycle:  1   F: -2854.237641949003319   dF: -3.698e-01   |Residual|: 1.924e+00   |deigs|: 3.202e-02  t[s]:   7421.40
	FillingsUpdate:  mu: +0.913348264  nElectrons: 546.000000
SCF: Cycle:  2   F: -2890.245423569646846   dF: -3.601e+01   |Residual|: 4.551e-01   |deigs|: 4.675e-02  t[s]:   7532.34
	FillingsUpdate:  mu: +0.911326667  nElectrons: 546.000000
SCF: Cycle:  3   F: -2891.654573661729501   dF: -1.409e+00   |Residual|: 2.231e-01   |deigs|: 5.344e-03  t[s]:   7643.95
	FillingsUpdate:  mu: +0.910894825  nElectrons: 546.000000
SCF: Cycle:  4   F: -2891.909141053166422   dF: -2.546e-01   |Residual|: 8.597e-02   |deigs|: 2.762e-03  t[s]:   7755.75
	FillingsUpdate:  mu: +0.910692199  nElectrons: 546.000000
SCF: Cycle:  5   F: -2891.947357923004347   dF: -3.822e-02   |Residual|: 3.661e-02   |deigs|: 8.947e-04  t[s]:   7858.83
	FillingsUpdate:  mu: +0.910518822  nElectrons: 546.000000
SCF: Cycle:  6   F: -2891.950621456584486   dF: -3.264e-03   |Residual|: 1.272e-02   |deigs|: 3.521e-04  t[s]:   7927.18
	FillingsUpdate:  mu: +0.910508083  nElectrons: 546.000000
SCF: Cycle:  7   F: -2891.950973385256930   dF: -3.519e-04   |Residual|: 6.442e-03   |deigs|: 9.048e-05  t[s]:   7997.75
	FillingsUpdate:  mu: +0.910513015  nElectrons: 546.000000
SCF: Cycle:  8   F: -2891.951108199639293   dF: -1.348e-04   |Residual|: 1.681e-03   |deigs|: 4.456e-05  t[s]:   8067.78
	FillingsUpdate:  mu: +0.910522487  nElectrons: 546.000000
SCF: Cycle:  9   F: -2891.951113598096072   dF: -5.398e-06   |Residual|: 9.681e-04   |deigs|: 2.186e-05  t[s]:   8136.99
	FillingsUpdate:  mu: +0.910527598  nElectrons: 546.000000
SCF: Cycle: 10   F: -2891.951119543449295   dF: -5.945e-06   |Residual|: 2.455e-04   |deigs|: 1.134e-05  t[s]:   8207.35
	FillingsUpdate:  mu: +0.910525632  nElectrons: 546.000000
SCF: Cycle: 11   F: -2891.951119485262097   dF: +5.819e-08   |Residual|: 1.612e-04   |deigs|: 3.919e-06  t[s]:   8276.63
	FillingsUpdate:  mu: +0.910525674  nElectrons: 546.000000
SCF: Cycle: 12   F: -2891.951119620444842   dF: -1.352e-07   |Residual|: 9.198e-05   |deigs|: 1.261e-06  t[s]:   8345.18
	FillingsUpdate:  mu: +0.910525349  nElectrons: 546.000000
SCF: Cycle: 13   F: -2891.951119675550217   dF: -5.511e-08   |Residual|: 1.987e-05   |deigs|: 9.548e-07  t[s]:   8418.02
	FillingsUpdate:  mu: +0.910525384  nElectrons: 546.000000
SCF: Cycle: 14   F: -2891.951119676832150   dF: -1.282e-09   |Residual|: 1.214e-05   |deigs|: 3.018e-07  t[s]:   8489.12
	FillingsUpdate:  mu: +0.910525410  nElectrons: 546.000000
SCF: Cycle: 15   F: -2891.951119677431052   dF: -5.989e-10   |Residual|: 6.045e-06   |deigs|: 2.777e-07  t[s]:   8559.28
SCF: Converged (|Delta E|<1.000000e-08 for 2 iters).

Setting wave functions to eigenvectors of Hamiltonian

# Ionic positions in lattice coordinates:
ion Re   0.105503578397897   0.222432245939451   0.123026407406531 1
ion Re   0.232047627838719   0.133572081371561   0.366258218329042 1
ion Re   0.107927477387533   0.233984051750740   0.635821058806428 1
ion Re   0.223830532577709   0.104751748728126   0.879726568546980 1
ion Re   0.115097010262885   0.556271671003729   0.127765465588481 1
ion Re   0.228125759145799   0.444829884864276   0.362944426969954 1
ion Re   0.114926158177201   0.549940864546338   0.625904638888636 1
ion Re   0.218468998280250   0.442033072694326   0.882876782659382 1
ion Re   0.104344834142763   0.887116327895289   0.126098217043186 1
ion Re   0.236538336750951   0.768612359363680   0.364502903739456 1
ion Re   0.112846496486472   0.889357827474952   0.660209400458415 1
ion Re   0.230138893124034   0.774753558350216   0.869727345916700 1
ion Re   0.440863273088843   0.216989480672178   0.126351816360123 1
ion Re   0.558704862758827   0.105681788060196   0.376672722451935 1
ion Re   0.446559250159032   0.225573594160225   0.634131017459315 1
ion Re   0.553819975072518   0.113951700840368   0.873561583626265 1
ion Re   0.452668503717110   0.549561864857508   0.128589730368561 1
ion Re   0.559342622053046   0.440403228360635   0.377628961810980 1
ion Re   0.445451914528444   0.548672647857530   0.628367785302872 1
ion Re   0.557411056986137   0.444982067397917   0.877611064267556 1
ion Re   0.439410535252849   0.887390599218249   0.121552755622026 1
ion Re   0.560077787965515   0.775608230228761   0.377039031512615 1
ion Re   0.452152268424831   0.889266488569672   0.628735552725420 1
ion Re   0.558805438075663   0.769448639990596   0.874368193955150 1
ion Re   0.785357574361295   0.229517461577787   0.133411672958049 1
ion Re   0.884956492117267   0.106259605951479   0.382986875396919 1
ion Re   0.772704723814734   0.221714606957615   0.625501443231011 1
ion Re   0.878710688003862   0.109395972082429   0.877652297615094 1
ion Re   0.776379929742384   0.541165327995482   0.125817888241492 1
ion Re   0.889858906829748   0.449064980327410   0.380735247337428 1
ion Re   0.779899610065043   0.557421603444804   0.634458408661134 1
ion Re   0.890219442069495   0.443345456698182   0.876202560175139 1
ion Re   0.773630229051816   0.888426052898069   0.128760711400310 1
ion Re   0.876125985086746   0.772017514697806   0.366901532859084 1
ion Re   0.775329586387961   0.885548348804000   0.630176932114362 1
ion Re   0.893994141063998   0.776135976239763   0.883656590410676 1
ion O   0.127009500750622   0.894591068128657   0.451616189783294 1

# Forces in Lattice coordinates:
force Re   0.127810169127456  -0.155095570547482   0.067257510432739 1
force Re   0.059298137696479   0.251773919708491  -0.410768110400493 1
force Re   0.265405649632889  -0.458792489909055  -0.181070508763491 1
force Re  -0.232884124946890   0.450680393280974   0.140687025212257 1
force Re  -0.066533400767405   0.023154118708040  -0.079029925582851 1
force Re  -0.177477256321952   0.064765772116368   0.522743142801476 1
force Re  -0.134194047538406   0.211132504598914  -0.050693949350772 1
force Re   0.172325754670009  -0.133941684743838  -0.068048568245637 1
force Re   0.152158819580746  -0.100956617901449  -0.065392822531502 1
force Re   0.445911147495032  -0.476111831281995  -0.398843379509515 1
force Re  -0.046781334604694   0.023917484837533   0.579683029209179 1
force Re  -0.044221898488810  -0.034452178966476   0.404501683292594 1
force Re   0.154147776006131  -0.090420227996211   0.116458499006686 1
force Re  -0.060336271194786   0.201658479686649  -0.069982836699190 1
force Re  -0.026644393043980  -0.086429073229912  -0.253544994187880 1
force Re   0.196500221713626  -0.222971795568553   0.194862233325728 1
force Re  -0.225329814048406   0.252859335432372  -0.062399692108107 1
force Re  -0.060085498239386   0.089931207310248   0.102951522507244 1
force Re  -0.077570106247539   0.190556928032740  -0.157049104013643 1
force Re  -0.017017492333543  -0.058413358575820  -0.027156687410081 1
force Re   0.294523552493010  -0.051253637607791   0.096233896689306 1
force Re  -0.113557358434439  -0.021270050113025   0.059914340534727 1
force Re  -0.092787238134012  -0.027735307504474  -0.014480124327621 1
force Re  -0.162893210166783   0.236743305280462   0.099885593686290 1
force Re  -0.131662711218921  -0.251520052457606  -0.095776679761469 1
force Re   0.019478374103974   0.234182201668050  -0.054441214326659 1
force Re   0.130393004086335  -0.029912578441861  -0.014427090748262 1
force Re   0.241195928339965  -0.138480403329523  -0.083937183665077 1
force Re  -0.107673026621233   0.386960158665128   0.078837530706328 1
force Re   0.147241644123954  -0.279572050585503   0.020650095574507 1
force Re   0.057733518180330  -0.113941500457516  -0.150088228424684 1
force Re  -0.000862479150986   0.008719270485847  -0.110768192574420 1
force Re   0.021114828619740  -0.034581428770542  -0.051137649356745 1
force Re  -0.012946204012555  -0.149595847310578  -0.291690657135520 1
force Re   0.057812521475505   0.071332004404894  -0.015622843395394 1
force Re  -0.274097654470240   0.072878999803646   0.112882455619759 1
force O  -0.477703283473119   0.143802939097724   0.107800425112972 1

# Energy components:
   Eewald =    -2552.4115323959822490
       EH =      332.5926868656675879
     Eloc =     -624.0769690898890758
      Enl =     -571.6017544290837122
      Exc =     -944.1410000025149429
 Exc_core =      550.9481476388040164
       KE =      917.0036209212560152
-------------------------------------
     Etot =    -2891.6868004917423605
       TS =        0.2643191856885373
-------------------------------------
        F =    -2891.9511196774310520

IonicMinimize: Iter:   5  F: -2891.951119677431052  |grad|_K:  1.170e-02  alpha:  5.229e-01  linmin: -9.851e-01  t[s]:   8578.20

#--- Lowdin population analysis ---
# oxidation-state Re +0.006 +0.096 +0.010 +0.010 +0.006 +0.002 +0.004 +0.015 -0.000 +0.087 +0.125 +0.007 +0.010 +0.003 +0.000 +0.023 +0.040 +0.000 +0.017 +0.010 +0.023 -0.006 +0.005 +0.009 +0.019 +0.006 +0.011 +0.026 +0.009 +0.002 +0.005 +0.024 +0.015 +0.082 +0.002 +0.008
# oxidation-state O -0.034


-------- Electronic minimization -----------
Will mix electronic density at each iteration.
	FillingsUpdate:  mu: +0.910525410  nElectrons: 546.000000
	FillingsUpdate:  mu: +0.916385079  nElectrons: 546.000000
SCF: Cycle:  0   F: -2869.885586341463295   dF: +1.905e+01   |Residual|: 1.676e+00   |deigs|: 1.056e-02  t[s]:   8738.50
	FillingsUpdate:  mu: +0.916164170  nElectrons: 546.000000
SCF: Cycle:  1   F: -2869.224414250797508   dF: +6.612e-01   |Residual|: 1.510e+00   |deigs|: 2.388e-02  t[s]:   8850.44
	FillingsUpdate:  mu: +0.911871199  nElectrons: 546.000000
SCF: Cycle:  2   F: -2890.721847641913428   dF: -2.150e+01   |Residual|: 3.822e-01   |deigs|: 3.484e-02  t[s]:   8960.75
	FillingsUpdate:  mu: +0.910585504  nElectrons: 546.000000
SCF: Cycle:  3   F: -2891.838696340028037   dF: -1.117e+00   |Residual|: 1.575e-01   |deigs|: 3.958e-03  t[s]:   9076.09
	FillingsUpdate:  mu: +0.910364986  nElectrons: 546.000000
SCF: Cycle:  4   F: -2891.958856647382163   dF: -1.202e-01   |Residual|: 6.128e-02   |deigs|: 1.965e-03  t[s]:   9187.69
	FillingsUpdate:  mu: +0.910227275  nElectrons: 546.000000
SCF: Cycle:  5   F: -2891.977006354386504   dF: -1.815e-02   |Residual|: 2.901e-02   |deigs|: 6.073e-04  t[s]:   9291.55
	FillingsUpdate:  mu: +0.910103818  nElectrons: 546.000000
SCF: Cycle:  6   F: -2891.979367160426136   dF: -2.361e-03   |Residual|: 9.316e-03   |deigs|: 2.455e-04  t[s]:   9362.89
	FillingsUpdate:  mu: +0.910103813  nElectrons: 546.000000
SCF: Cycle:  7   F: -2891.979553780829974   dF: -1.866e-04   |Residual|: 4.919e-03   |deigs|: 7.547e-05  t[s]:   9431.67
	FillingsUpdate:  mu: +0.910112536  nElectrons: 546.000000
SCF: Cycle:  8   F: -2891.979642807155869   dF: -8.903e-05   |Residual|: 1.265e-03   |deigs|: 3.560e-05  t[s]:   9501.63
	FillingsUpdate:  mu: +0.910118007  nElectrons: 546.000000
SCF: Cycle:  9   F: -2891.979646566503106   dF: -3.759e-06   |Residual|: 7.246e-04   |deigs|: 1.408e-05  t[s]:   9573.77
	FillingsUpdate:  mu: +0.910120649  nElectrons: 546.000000
SCF: Cycle: 10   F: -2891.979649443328071   dF: -2.877e-06   |Residual|: 1.951e-04   |deigs|: 6.810e-06  t[s]:   9643.53
	FillingsUpdate:  mu: +0.910119453  nElectrons: 546.000000
SCF: Cycle: 11   F: -2891.979649401975621   dF: +4.135e-08   |Residual|: 1.209e-04   |deigs|: 2.624e-06  t[s]:   9713.37
	FillingsUpdate:  mu: +0.910119493  nElectrons: 546.000000
SCF: Cycle: 12   F: -2891.979649477485964   dF: -7.551e-08   |Residual|: 6.721e-05   |deigs|: 1.078e-06  t[s]:   9781.72
	FillingsUpdate:  mu: +0.910119320  nElectrons: 546.000000
SCF: Cycle: 13   F: -2891.979649504801728   dF: -2.732e-08   |Residual|: 2.164e-05   |deigs|: 6.701e-07  t[s]:   9851.21
	FillingsUpdate:  mu: +0.910119338  nElectrons: 546.000000
SCF: Cycle: 14   F: -2891.979649507955855   dF: -3.154e-09   |Residual|: 7.991e-06   |deigs|: 2.887e-07  t[s]:   9920.94
	FillingsUpdate:  mu: +0.910119355  nElectrons: 546.000000
SCF: Cycle: 15   F: -2891.979649507855811   dF: +1.000e-10   |Residual|: 3.812e-06   |deigs|: 2.118e-07  t[s]:   9985.06
	FillingsUpdate:  mu: +0.910119363  nElectrons: 546.000000
SCF: Cycle: 16   F: -2891.979649507969953   dF: -1.141e-10   |Residual|: 2.065e-06   |deigs|: 1.697e-07  t[s]:  10041.75
	FillingsUpdate:  mu: +0.910119367  nElectrons: 546.000000
SCF: Cycle: 17   F: -2891.979649507845807   dF: +1.241e-10   |Residual|: 9.887e-07   |deigs|: 1.665e-07  t[s]:  10090.67
	FillingsUpdate:  mu: +0.910119371  nElectrons: 546.000000
SCF: Cycle: 18   F: -2891.979649508070452   dF: -2.246e-10   |Residual|: 2.179e-07   |deigs|: 1.793e-07  t[s]:  10138.53
	FillingsUpdate:  mu: +0.910119370  nElectrons: 546.000000
SCF: Cycle: 19   F: -2891.979649507834893   dF: +2.356e-10   |Residual|: 1.261e-07   |deigs|: 1.891e-07  t[s]:  10186.05
	FillingsUpdate:  mu: +0.910119370  nElectrons: 546.000000
SCF: Cycle: 20   F: -2891.979649508283273   dF: -4.484e-10   |Residual|: 5.371e-08   |deigs|: 1.804e-07  t[s]:  10233.08
	FillingsUpdate:  mu: +0.910119369  nElectrons: 546.000000
SCF: Cycle: 21   F: -2891.979649507836712   dF: +4.466e-10   |Residual|: 2.643e-08   |deigs|: 1.697e-07  t[s]:  10279.40
SCF: Converged (|Residual|<1.000000e-07 for 2 iters).

Setting wave functions to eigenvectors of Hamiltonian

# Ionic positions in lattice coordinates:
ion Re   0.106209094369570   0.221288266358350   0.123808610343908 1
ion Re   0.233928662409098   0.135022999728779   0.362909096258205 1
ion Re   0.108842434328059   0.229248814731891   0.633837679658582 1
ion Re   0.223885819704355   0.110016165307599   0.881310285453554 1
ion Re   0.113736810215440   0.555416034933354   0.126844588170162 1
ion Re   0.225638181629661   0.444251677337264   0.368532228614046 1
ion Re   0.114571659795435   0.551911043356680   0.625584926533667 1
ion Re   0.220176411924585   0.441361442086375   0.881820222565289 1
ion Re   0.106242387807333   0.886764243512221   0.125295824483886 1
ion Re   0.238257446773812   0.767246687837858   0.361891409042040 1
ion Re   0.112618513370073   0.889431501549922   0.664457886403487 1
ion Re   0.229009821532616   0.774016553965264   0.874252165989779 1
ion Re   0.443088500072429   0.217317328794344   0.127406924108649 1
ion Re   0.559247802233495   0.108287022004609   0.376115615788381 1
ion Re   0.445649339145886   0.223999035292114   0.631643149370508 1
ion Re   0.555063949729392   0.112070075483712   0.875361618809033 1
ion Re   0.450895889618383   0.551592949891791   0.127960720715703 1
ion Re   0.559209625983768   0.441651506166807   0.378730896361306 1
ion Re   0.445593044678274   0.550956884291057   0.626875143118482 1
ion Re   0.556566888368141   0.443794599683713   0.877179561404231 1
ion Re   0.443914456236415   0.888964535566894   0.122571375984534 1
ion Re   0.558685436751102   0.774735147277807   0.377776289104491 1
ion Re   0.450414518314468   0.888276129530177   0.628589391994572 1
ion Re   0.558014393528650   0.771847665484907   0.875278947414291 1
ion Re   0.781489907598808   0.225048608011764   0.132084233600810 1
ion Re   0.886994529000667   0.109741891250118   0.382345612151229 1
ion Re   0.774423720388028   0.222102806830270   0.625486192101106 1
ion Re   0.881607337106722   0.109221172015473   0.876740481123182 1
ion Re   0.777699483700725   0.545996498665386   0.126655799256864 1
ion Re   0.889993059037726   0.445712465400054   0.380765706050625 1
ion Re   0.779766797423742   0.556108128777935   0.632836865125094 1
ion Re   0.890174885420083   0.443278796791269   0.875239013043386 1
ion Re   0.773820588621838   0.888169507999546   0.128393930674433 1
ion Re   0.874266213579800   0.769554176910842   0.363622789094042 1
ion Re   0.776833342284579   0.887037012546775   0.629826690570216 1
ion Re   0.890284945278748   0.775226041259620   0.884878691628842 1
ion O   0.122424102038094   0.893124583367461   0.452439437889380 1

# Forces in Lattice coordinates:
force Re   0.038547270735004  -0.045184216977010   0.056180940520429 1
force Re   0.037035397574473   0.016105214779582  -0.170829943657329 1
force Re   0.175389439848413  -0.245879359138181  -0.142046831441659 1
force Re  -0.087566035957813   0.201812522014470   0.105517619248663 1
force Re  -0.054384093737911  -0.042270569762634  -0.045995887565518 1
force Re  -0.078747146945636   0.010469024719773   0.331631766625308 1
force Re  -0.067763196884385   0.105204195059535   0.016122281349108 1
force Re   0.085409529877635  -0.030905657995589  -0.103963293798344 1
force Re   0.143530448757053  -0.068502364637372  -0.065960908543505 1
force Re   0.049319645984917  -0.067214138391243  -0.132022510959401 1
force Re  -0.015354604278433  -0.005565269624578   0.273973616434048 1
force Re  -0.060992760691839   0.008904466178537   0.288656682226474 1
force Re   0.109850153719247   0.002542349911135   0.014200330058030 1
force Re  -0.029424270435276   0.099298295531251   0.014468103446823 1
force Re   0.009320104417367  -0.057917917338866  -0.139482890483946 1
force Re   0.100262627178076  -0.107005230933755   0.066664383692392 1
force Re  -0.156153944011317   0.134484233127644  -0.034869264732825 1
force Re  -0.051569787218577   0.075438008631439   0.064471134702673 1
force Re  -0.049352465706784   0.102348757293353  -0.054240033944916 1
force Re  -0.003038923146681  -0.035829033547219  -0.038782364513345 1
force Re   0.172230463850331  -0.047170094894752   0.065738073319002 1
force Re  -0.039860385251274   0.014152398222964   0.061612741955585 1
force Re  -0.076861151494002   0.011189977144069  -0.011055985715824 1
force Re  -0.097172526284424   0.129540057635061   0.026499705178259 1
force Re  -0.045684568702190  -0.109244737486560  -0.121376106154166 1
force Re   0.017865989113439   0.084068783998162  -0.051255942878863 1
force Re   0.085281009446075  -0.042832954211419   0.023375804929255 1
force Re   0.154817762749408  -0.077390732971869  -0.054623135531491 1
[...]
ion Re   0.779000972946623   0.221150562531762   0.627818262946965 1
ion Re   0.889801405003981   0.110170303919419   0.874894700262655 1
ion Re   0.777542748734583   0.550034142348505   0.127110152848389 1
ion Re   0.888648625808309   0.440035837786711   0.378821316881851 1
ion Re   0.777924799610463   0.553977961650549   0.627514100029641 1
ion Re   0.889686228839351   0.442604621019279   0.875024446825222 1
ion Re   0.777536716812383   0.890883062223993   0.127105719446770 1
ion Re   0.870569369427706   0.766892926017506   0.360031438874610 1
ion Re   0.777853869581680   0.887263475631514   0.627567097312169 1
ion Re   0.883554096123256   0.773308249142970   0.885544427370617 1
ion O   0.113126783259190   0.888283989882416   0.457353713749819 1

# Forces in Lattice coordinates:
force Re  -0.001711473480210  -0.000361018276429  -0.000538059958598 1
force Re  -0.005064458877990   0.010521578003466  -0.004316781180909 1
force Re   0.000696917900445  -0.000830223602673   0.000220877217571 1
force Re  -0.000647145932275   0.003268715032892   0.003941869596592 1
force Re  -0.000686868042150  -0.000380117852817  -0.001579670429635 1
force Re   0.001719799672122  -0.001358711286048   0.000162536633678 1
force Re   0.001473149079740   0.000984348011375  -0.001419401551480 1
force Re   0.002115205193385   0.000717160937023   0.000790114556097 1
force Re   0.001635163846488   0.000193740115470   0.000630691519839 1
force Re   0.008303708967578  -0.010958419082980  -0.006255326428596 1
force Re  -0.000555255429737  -0.000392514403272  -0.008995936650565 1
force Re   0.003357672881734  -0.002192171628734   0.002371307658900 1
force Re  -0.000890601474069   0.001905915407547   0.000487276090891 1
force Re  -0.000310315958835   0.000466951480120  -0.000877286919080 1
force Re   0.000294667770148  -0.001133891168360  -0.000644432100916 1
force Re   0.001512569681066   0.000577711493556   0.003510522104247 1
force Re  -0.001567839065691  -0.000340001664820  -0.000324797540797 1
force Re  -0.003139569342384  -0.004084412149048   0.003964823835964 1
force Re   0.000405121817594  -0.001435409407397   0.000731621237868 1
force Re   0.003221307480369  -0.002713450094484  -0.002299126203653 1
force Re   0.001030758783303  -0.000329990995196  -0.003418647886839 1
force Re  -0.004749893927736   0.002858633710144   0.004061397099814 1
force Re   0.001363093010185  -0.000239328214012   0.000124652497820 1
force Re   0.001677468548938  -0.001254038531392  -0.003525223212206 1
force Re   0.000558888067309   0.001425350464175   0.000479657027609 1
force Re  -0.002815320198433   0.001008161245998   0.004214970379174 1
force Re  -0.000300542329419   0.000942004391696   0.000150205154066 1
force Re   0.000134347204031   0.001228334995306  -0.001023114315117 1
force Re   0.000367186009692  -0.003162477448934  -0.006735228049210 1
force Re  -0.000213202729823   0.001513460099745   0.002182859653481 1
force Re   0.000241626980468   0.001221403672705   0.000065721945716 1
force Re   0.003346710999498  -0.000813867976259  -0.002562613346913 1
force Re  -0.002516087244131   0.003406235497932  -0.004582484167899 1
force Re   0.016879333828792  -0.000713855463278   0.011165788477848 1
force Re   0.002252198584231  -0.002148242307861  -0.000951432966560 1
force Re  -0.001651940797329   0.000450877070649   0.003504030670122 1
force O  -0.025792713289185   0.002148233338936   0.001809790434541 1

# Energy components:
   Eewald =    -2554.0871047732198349
       EH =      331.0729351604778117
     Eloc =     -620.7653276787514187
      Enl =     -571.5965172794379896
      Exc =     -944.0715183841736007
 Exc_core =      550.9481228210729569
       KE =      916.7676745579013868
-------------------------------------
     Etot =    -2891.7317355761306317
       TS =        0.2650380524392458
-------------------------------------
        F =    -2891.9967736285698265

IonicMinimize: Iter:  13  F: -2891.996773628569827  |grad|_K:  2.765e-04  alpha:  1.000e+00  linmin:  1.928e-01  t[s]:  18400.13

#--- Lowdin population analysis ---
# oxidation-state Re +0.011 +0.098 +0.004 +0.013 +0.011 -0.003 +0.003 +0.009 -0.004 +0.098 +0.122 +0.013 +0.011 +0.003 +0.003 +0.026 +0.052 -0.002 +0.016 +0.009 +0.011 -0.002 +0.003 +0.009 +0.009 +0.003 +0.020 +0.026 +0.011 +0.003 +0.003 +0.026 +0.011 +0.097 +0.004 +0.013
# oxidation-state O -0.068


-------- Electronic minimization -----------
Will mix electronic density at each iteration.
	FillingsUpdate:  mu: +0.909855965  nElectrons: 546.000000
	FillingsUpdate:  mu: +0.909858529  nElectrons: 546.000000
SCF: Cycle:  0   F: -2891.996756519040446   dF: +7.508e-06   |Residual|: 1.699e-03   |deigs|: 1.867e-07  t[s]:  18517.60
	FillingsUpdate:  mu: +0.909858378  nElectrons: 546.000000
SCF: Cycle:  1   F: -2891.996756622886551   dF: -1.038e-07   |Residual|: 1.881e-03   |deigs|: 2.183e-05  t[s]:  18586.21
	FillingsUpdate:  mu: +0.909857637  nElectrons: 546.000000
SCF: Cycle:  2   F: -2891.996784130905780   dF: -2.751e-05   |Residual|: 3.497e-04   |deigs|: 1.515e-05  t[s]:  18655.38
	FillingsUpdate:  mu: +0.909857552  nElectrons: 546.000000
SCF: Cycle:  3   F: -2891.996784515592026   dF: -3.847e-07   |Residual|: 1.583e-04   |deigs|: 1.735e-06  t[s]:  18724.43
	FillingsUpdate:  mu: +0.909857527  nElectrons: 546.000000
SCF: Cycle:  4   F: -2891.996784597690294   dF: -8.210e-08   |Residual|: 8.007e-05   |deigs|: 1.535e-06  t[s]:  18794.75
	FillingsUpdate:  mu: +0.909857486  nElectrons: 546.000000
SCF: Cycle:  5   F: -2891.996784623259373   dF: -2.557e-08   |Residual|: 3.302e-05   |deigs|: 7.402e-07  t[s]:  18863.81
	FillingsUpdate:  mu: +0.909857500  nElectrons: 546.000000
SCF: Cycle:  6   F: -2891.996784627372108   dF: -4.113e-09   |Residual|: 1.288e-05   |deigs|: 3.367e-07  t[s]:  18933.88
	FillingsUpdate:  mu: +0.909857502  nElectrons: 546.000000
SCF: Cycle:  7   F: -2891.996784628115620   dF: -7.435e-10   |Residual|: 5.848e-06   |deigs|: 1.158e-07  t[s]:  19000.51
SCF: Converged (|Delta E|<1.000000e-08 for 2 iters).

Setting wave functions to eigenvectors of Hamiltonian

# Ionic positions in lattice coordinates:
ion Re   0.109330069739040   0.222783658189197   0.127016466467207 1
ion Re   0.233734872479768   0.130007616368927   0.359858204735039 1
ion Re   0.112975397157339   0.222266743409095   0.627474440816282 1
ion Re   0.226745156602745   0.116543393363277   0.885603813854285 1
ion Re   0.109299103759605   0.549991209551731   0.127013237322782 1
ion Re   0.224190598783477   0.443739360086839   0.379057864359785 1
ion Re   0.112853564165835   0.553908340377728   0.627532751312854 1
ion Re   0.223342541943012   0.443223216709855   0.875377569676874 1
ion Re   0.112358783379729   0.887805531838276   0.123194942306099 1
ion Re   0.233568360355394   0.766888449206063   0.360050030900400 1
ion Re   0.112379644800645   0.887811470076394   0.672658534112588 1
ion Re   0.226649522811307   0.773322026350828   0.885551668835931 1
ion Re   0.450361486192698   0.222702676286276   0.126843137675575 1
ion Re   0.560260634308456   0.111705216179416   0.378998700763565 1
ion Re   0.446192934743868   0.222349965120015   0.627534477156029 1
ion Re   0.557362895384799   0.110158885024156   0.874773317055355 1
ion Re   0.445738231319050   0.554530156531034   0.125297874413364 1
ion Re   0.556727466534266   0.443789570483494   0.379031878718752 1
ion Re   0.445694220913697   0.554592218761087   0.627166211924865 1
ion Re   0.556765216137268   0.443353434958626   0.875449760281653 1
ion Re   0.450250233887354   0.890988936383846   0.127023662249663 1
ion Re   0.556666632511086   0.776100642668775   0.378925370127543 1
ion Re   0.446201403185284   0.887201167919682   0.627485446883625 1
ion Re   0.556776669326954   0.776675384024993   0.875518047270778 1
ion Re   0.779013640044882   0.221121681109421   0.125286543842131 1
ion Re   0.888748321147868   0.111704329204048   0.378880634826048 1
ion Re   0.778994987383351   0.221170322134680   0.627830152752648 1
ion Re   0.889811335915765   0.110195156760820   0.874892452601185 1
ion Re   0.777548422553928   0.550001451548724   0.127036813299655 1
ion Re   0.888673135629580   0.440058396458729   0.378849988408877 1
ion Re   0.777950603407873   0.553992711064663   0.627523483321778 1
ion Re   0.889769820151815   0.442634296228959   0.874982249659587 1
ion Re   0.777499127739142   0.890928857193607   0.127054052934834 1
ion Re   0.870700580217510   0.766941709476444   0.360100655294308 1
ion Re   0.777896056918442   0.887258544851770   0.627551407967461 1
ion Re   0.883559040297592   0.773318676172553   0.885585702467621 1
ion O   0.112649288169575   0.888024597925974   0.457338453402974 1

# Forces in Lattice coordinates:
force Re  -0.001621453524862   0.000770688210417  -0.000671511576559 1
force Re  -0.003350074128722  -0.001160378662810   0.001314934128580 1
force Re   0.000757948153400   0.000241619985058   0.000844608018371 1
force Re   0.000905137970154  -0.001912999448070   0.000267940162923 1
force Re   0.000000992326539  -0.001058606103190  -0.000054042042970 1
force Re   0.001101129041518  -0.000477293111736  -0.000085950415353 1
force Re   0.001099786542006   0.000818185807431   0.000001686045672 1
force Re   0.001389044769160   0.000889692836785  -0.000816438878521 1
force Re   0.001370935268116  -0.000059720931352   0.000722231664369 1
force Re  -0.000554627676353  -0.001852215731157  -0.002152077182610 1
force Re  -0.000196773384166   0.000046142776127   0.002513347295345 1
force Re  -0.000068162874636   0.001791651416328  -0.000267788151901 1
force Re  -0.000686064602040   0.001879436258681   0.000458813720797 1
force Re  -0.000512699770901  -0.000493795500447  -0.001065768463338 1
force Re   0.000285652141385  -0.001885766023725  -0.000144268660247 1
force Re   0.000542742418089   0.000494706940650   0.001058497645198 1
force Re  -0.000913787240276  -0.000161616172515   0.001192878251111 1
force Re   0.000182691775000  -0.000611933448087   0.001612799328604 1
force Re   0.000541913497017  -0.001321044506809   0.001312119846451 1
force Re   0.002103429726780  -0.001640815903134  -0.002106657190206 1
force Re   0.000832418865662  -0.000974873367482  -0.000689972968233 1
force Re   0.000017834416982   0.000725482676160   0.002401377015972 1
force Re  -0.000620662741157   0.001347886737356   0.000179826172044 1
force Re   0.001321412433865  -0.001047802958330  -0.002288424213167 1
force Re   0.000522432571608   0.001012859855825   0.000006076235577 1
force Re  -0.002019928747721  -0.000187620552509   0.002278857898363 1
force Re   0.000202369950342   0.000304950625410  -0.000522766670162 1
force Re   0.000510290087693   0.000745712762298  -0.001219413024690 1
force Re  -0.000868774392880  -0.000560105551810  -0.002223726613667 1
force Re  -0.001530103996213   0.002105420159301   0.001360117046495 1
force Re   0.000014834856704   0.000819620210997   0.000031970241237 1
force Re   0.002423186653629  -0.000449337995983  -0.001584872688922 1
force Re   0.000030049464568   0.000171313302288  -0.000490044597650 1
force Re  -0.007124860555641  -0.000329464314553  -0.006922290212244 1
force Re   0.001014080356924  -0.001316759744386  -0.000325453072229 1
force Re   0.001188690380713   0.000443188456300   0.000585224435425 1
force O   0.001724325563185   0.002921862224384   0.000060573311750 1

# Energy components:
   Eewald =    -2554.0962636485846815
       EH =      331.0637181515888869
     Eloc =     -620.7467271322325360
      Enl =     -571.5961912779700924
      Exc =     -944.0712946674402701
 Exc_core =      550.9481224189433988
       KE =      916.7669100126621515
-------------------------------------
     Etot =    -2891.7317261430330291
       TS =        0.2650584850826371
-------------------------------------
        F =    -2891.9967846281156199

IonicMinimize: Iter:  14  F: -2891.996784628115620  |grad|_K:  1.035e-04  alpha:  1.000e+00  linmin:  1.365e-01  t[s]:  19018.83

#--- Lowdin population analysis ---
# oxidation-state Re +0.011 +0.097 +0.004 +0.013 +0.011 -0.002 +0.003 +0.009 -0.004 +0.097 +0.122 +0.013 +0.011 +0.003 +0.003 +0.026 +0.052 -0.002 +0.016 +0.009 +0.011 -0.002 +0.003 +0.009 +0.009 +0.003 +0.020 +0.026 +0.011 +0.003 +0.003 +0.026 +0.011 +0.098 +0.004 +0.013
# oxidation-state O -0.068


-------- Electronic minimization -----------
Will mix electronic density at each iteration.
	FillingsUpdate:  mu: +0.909857502  nElectrons: 546.000000
	FillingsUpdate:  mu: +0.909857477  nElectrons: 546.000000
SCF: Cycle:  0   F: -2891.996785032325079   dF: -2.122e-07   |Residual|: 4.522e-04   |deigs|: 3.639e-08  t[s]:  19136.66
	FillingsUpdate:  mu: +0.909858627  nElectrons: 546.000000
SCF: Cycle:  1   F: -2891.996784900273724   dF: +1.321e-07   |Residual|: 4.700e-04   |deigs|: 1.291e-05  t[s]:  19204.98
	FillingsUpdate:  mu: +0.909858417  nElectrons: 546.000000
SCF: Cycle:  2   F: -2891.996786610586241   dF: -1.710e-06   |Residual|: 1.232e-04   |deigs|: 6.037e-06  t[s]:  19273.12
	FillingsUpdate:  mu: +0.909858449  nElectrons: 546.000000
SCF: Cycle:  3   F: -2891.996786652864103   dF: -4.228e-08   |Residual|: 5.875e-05   |deigs|: 9.247e-07  t[s]:  19340.20
	FillingsUpdate:  mu: +0.909858548  nElectrons: 546.000000
SCF: Cycle:  4   F: -2891.996786657941357   dF: -5.077e-09   |Residual|: 2.763e-05   |deigs|: 8.263e-07  t[s]:  19411.01
	FillingsUpdate:  mu: +0.909858549  nElectrons: 546.000000
SCF: Cycle:  5   F: -2891.996786662615705   dF: -4.674e-09   |Residual|: 1.002e-05   |deigs|: 3.424e-07  t[s]:  19480.89
SCF: Converged (|Delta E|<1.000000e-08 for 2 iters).

Setting wave functions to eigenvectors of Hamiltonian

# Ionic positions in lattice coordinates:
ion Re   0.109295876153327   0.222770520109058   0.127002841609834 1
ion Re   0.233694819996087   0.130012608474564   0.359850678922978 1
ion Re   0.112986109618436   0.222268273424902   0.627487573746555 1
ion Re   0.226737431611740   0.116533422484666   0.885614655382252 1
ion Re   0.109278765909440   0.549964001318212   0.127002955580082 1
ion Re   0.224202529162955   0.443739853880928   0.379071837971491 1
ion Re   0.112879901267497   0.553943694435189   0.627534030483545 1
ion Re   0.223375406940262   0.443251725087607   0.875376435754997 1
ion Re   0.112389328657442   0.887815593872685   0.123201524077883 1
ion Re   0.233564060167240   0.766850627264461   0.360019486848156 1
ion Re   0.112368966236752   0.887810667352832   0.672665730608778 1
ion Re   0.226654335020878   0.773342754908424   0.885554122174234 1
ion Re   0.450369110809902   0.222727812493595   0.126845657140916 1
ion Re   0.560252061827885   0.111698861838515   0.378983274100759 1
ion Re   0.446175224921897   0.222317605384508   0.627528582444941 1
ion Re   0.557375873738738   0.110167564717437   0.874796764388692 1
ion Re   0.445710700845739   0.554512125185745   0.125322334747224 1
ion Re   0.556726850964705   0.443777706774644   0.379065840642191 1
ion Re   0.445690804784975   0.554577846208557   0.627176502099966 1
ion Re   0.556780690091151   0.443335229413813   0.875428441489641 1
ion Re   0.450264810751231   0.890975690063124   0.127003890737985 1
ion Re   0.556675669112968   0.776111858680379   0.378965256394324 1
ion Re   0.446199174845785   0.887214415616107   0.627491756688176 1
ion Re   0.556780596175083   0.776661819760684   0.875494202257729 1
ion Re   0.779024168725148   0.221135560011231   0.125294716727548 1
ion Re   0.888716243559480   0.111691609802838   0.378916437143899 1
ion Re   0.778994829048183   0.221180004532016   0.627822342132777 1
ion Re   0.889814731583799   0.110207587633212   0.874879875371998 1
ion Re   0.777527196108223   0.549984260304738   0.127006765581925 1
ion Re   0.888674764482549   0.440082698344806   0.378870803369776 1
ion Re   0.777961257138109   0.554008645525768   0.627532469400749 1
ion Re   0.889800777620887   0.442642052402142   0.874963088082342 1
ion Re   0.777496937174382   0.890928862870477   0.127047436069596 1
ion Re   0.870656426946834   0.766910866151158   0.360053897029251 1
ion Re   0.777909044416433   0.887251626701378   0.627552437856904 1
ion Re   0.883562474487359   0.773327660632934   0.885603720421404 1
ion O   0.112672049096500   0.888056286336669   0.457321634518503 1

# Forces in Lattice coordinates:
force Re  -0.000919497630706   0.000573064996049  -0.000066116100640 1
force Re  -0.002030086582748  -0.001158028130860   0.000630547222876 1
force Re   0.000219950239380   0.000684418715182   0.000694693738921 1
force Re   0.000918382589887  -0.001210660478497   0.000199042882043 1
force Re   0.000006435017507  -0.000420241656504   0.000290871465203 1
force Re   0.000499276204230  -0.000434759803887  -0.000630891049187 1
force Re   0.000934566359751   0.000230251004526  -0.000386164046957 1
force Re   0.001275785597053   0.000248563496520  -0.000198272014851 1
force Re   0.000627861345862  -0.000106313783812   0.000643769154776 1
force Re  -0.002047757874235   0.000669857999426  -0.000489515462486 1
force Re   0.000084937687879  -0.000010404785431   0.000270503729293 1
force Re   0.000399481840554   0.001080983845099  -0.000005291066230 1
force Re  -0.000834855590032   0.001296311746729   0.001045192579104 1
force Re  -0.000736020495070  -0.000323029118399  -0.001213883467153 1
force Re   0.000448837831402  -0.001319879425304  -0.000045350217208 1
force Re   0.000479963383962   0.000328507983246   0.000675084169838 1
force Re  -0.000117836966997  -0.000032272294150   0.000994145344064 1
force Re  -0.000225563021732  -0.000503599386161   0.000436824541721 1
force Re   0.000558809287656  -0.001008568395624   0.000535216933902 1
force Re   0.001347626177170  -0.000974007330503  -0.001444708908786 1
force Re   0.000618787337019  -0.000714282949387   0.000202933064226 1
force Re  -0.000460733567998   0.000421184905245   0.001023995683483 1
force Re  -0.000220375560797   0.000854039287233  -0.000011652784588 1
force Re   0.001220936633265  -0.000711692265903  -0.001421996626295 1
force Re   0.000249168243742   0.000756750208232   0.000443839024849 1
force Re  -0.001436877949201   0.000148822734963   0.001065881991275 1
force Re   0.000272331348272   0.000206476505708  -0.000679835828641 1
force Re   0.000725586838191   0.000451627792466  -0.000987735865194 1
force Re  -0.000481293903855  -0.000431019550079  -0.001297794310421 1
force Re  -0.001189418924363   0.001188885912850   0.000695331315912 1
force Re  -0.000019994590287   0.000581506409433  -0.000253006299228 1
force Re   0.001921607552558  -0.000076059010596  -0.001156804201443 1
force Re  -0.000371284215381   0.000235816188650  -0.000260215496326 1
force Re  -0.004090989671607  -0.000183512495009  -0.004329637502341 1
force Re   0.000533647124388  -0.000991632175828  -0.000423856819097 1
force Re   0.001093448044455   0.000199052961249   0.000737498096727 1
force O   0.000666981599205   0.000464377660900  -0.000636287339248 1

# Energy components:
   Eewald =    -2554.0969496218585846
       EH =      331.0635948751754540
     Eloc =     -620.7459315454184434
      Enl =     -571.5963422161739800
      Exc =     -944.0713148789109255
 Exc_core =      550.9481225621498197
       KE =      916.7670943659904879
-------------------------------------
     Etot =    -2891.7317264590460582
       TS =        0.2650602035696971
-------------------------------------
        F =    -2891.9967866626157047

IonicMinimize: Iter:  15  F: -2891.996786662615705  |grad|_K:  6.406e-05  alpha:  1.000e+00  linmin: -7.135e-01  t[s]:  19499.55
IonicMinimize: Converged (|grad|_K<1.000000e-04).

#--- Lowdin population analysis ---
# oxidation-state Re +0.011 +0.098 +0.004 +0.013 +0.011 -0.002 +0.003 +0.009 -0.004 +0.097 +0.122 +0.013 +0.011 +0.003 +0.003 +0.026 +0.052 -0.002 +0.016 +0.009 +0.011 -0.002 +0.003 +0.009 +0.009 +0.003 +0.020 +0.026 +0.011 +0.003 +0.003 +0.026 +0.011 +0.098 +0.004 +0.013
# oxidation-state O -0.068


Dumping '/data/rc652/Re/tet/Re_tet.Ecomponents' ... done
End date and time: Mon Jul  1 04:31:04 2024  (Duration: 0-5:25:10.30)
Done!
