--------------------------------------------------------------------------
[[63680,1],7]: A high-performance Open MPI point-to-point messaging module
was unable to find any relevant network interfaces:

Module: OpenFabrics (openib)
  Host: node3223

Another transport will be used instead, although this may result in
lower performance.
--------------------------------------------------------------------------

*************** JDFTx 1.7.0 (git hash 3664913) ***************

Start date and time: Fri Jul 12 15:21:22 2024
Executable jdftx with command-line: -i Mn3O4_ion.in
Running on hosts (process indices):  node3223.physics.cornell.edu (0-15)
Divided in process groups (process indices):  0 (0)  1 (1)  2 (2)  3 (3)  4 (4)  5 (5)  6 (6)  7 (7)  8 (8)  9 (9)  10 (10)  11 (11)  12 (12)  13 (13)  14 (14)  15 (15)
Resource initialization completed at t[s]:      0.01
Run totals: 16 processes, 32 threads, 0 GPUs


Input parsed successfully to the following command list (including defaults):

basis kpoint-dependent
coords-type Lattice
core-overlap-check vector
coulomb-interaction Periodic
davidson-band-ratio 1.1
dump End Ecomponents
dump-name /data/rc652/Mn3O4/ion/Mn3O4_ion.$VAR
elec-cutoff 20 100
elec-eigen-algo Davidson
elec-ex-corr gga-PBEsol
elec-smearing Fermi 0.01
electronic-minimize  \
	dirUpdateScheme      FletcherReeves \
	linminMethod         DirUpdateRecommended \
	nIterations          100 \
	history              15 \
	knormThreshold       0 \
	maxThreshold         no \
	energyDiffThreshold  1e-08 \
	nEnergyDiff          2 \
	alphaTstart          1 \
	alphaTmin            1e-10 \
	updateTestStepSize   yes \
	alphaTreduceFactor   0.1 \
	alphaTincreaseFactor 3 \
	nAlphaAdjustMax      3 \
	wolfeEnergy          0.0001 \
	wolfeGradient        0.9 \
	fdTest               no
electronic-scf  \
	nIterations	50 \
	energyDiffThreshold	1e-08 \
	residualThreshold	1e-07 \
	mixFraction	0.5 \
	qMetric	0.8 \
	history	10 \
	nEigSteps	2 \
	eigDiffThreshold	1e-08 \
	mixedVariable	Density \
	qKerker	0.8 \
	qKappa	-1 \
	verbose	no \
	mixFractionMag	1.5
exchange-regularization WignerSeitzTruncated
fluid None
fluid-ex-corr lda-TF lda-PZ
fluid-gummel-loop 10 1.000000e-05
fluid-minimize  \
	dirUpdateScheme      PolakRibiere \
	linminMethod         DirUpdateRecommended \
	nIterations          100 \
	history              15 \
	knormThreshold       0 \
	maxThreshold         no \
	energyDiffThreshold  0 \
	nEnergyDiff          2 \
	alphaTstart          1 \
	alphaTmin            1e-10 \
	updateTestStepSize   yes \
	alphaTreduceFactor   0.1 \
	alphaTincreaseFactor 3 \
	nAlphaAdjustMax      3 \
	wolfeEnergy          0.0001 \
	wolfeGradient        0.9 \
	fdTest               no
fluid-solvent H2O 55.338 ScalarEOS \
	epsBulk 78.4 \
	pMol 0.92466 \
	epsInf 1.77 \
	Pvap 1.06736e-10 \
	sigmaBulk 4.62e-05 \
	Rvdw 2.61727 \
	Res 1.42 \
	tauNuc 343133 \
	poleEl 15 7 1
forces-output-coords Positions
ion Mn   0.369450000000000   0.195420000000000   0.618060000000000 1
ion Mn   0.234730000000000   0.013340000000000   0.007320000000000 1
ion Mn   0.004830000000000   0.007590000000000  -0.007840000000000 1
ion Mn   0.255740000000000   0.260430000000000   0.000660000000000 1
ion Mn   0.133330000000000   0.324080000000000   0.363390000000000 1
ion Mn  -0.011760000000000   0.001000000000000   0.488780000000000 1
ion Mn   0.375580000000000   0.694260000000000   0.606950000000000 1
ion Mn   0.262660000000000   0.507310000000000   0.029960000000000 1
ion Mn  -0.012430000000000   0.498940000000000   0.004610000000000 1
ion Mn   0.237730000000000   0.761630000000000  -0.002660000000000 1
ion Mn   0.127030000000000   0.812560000000000   0.363360000000000 1
ion Mn  -0.020370000000000   0.500830000000000   0.501900000000000 1
ion Mn   0.884060000000000   0.194330000000000   0.637900000000000 1
ion Mn   0.757920000000000   0.007730000000000  -0.011610000000000 1
ion Mn   0.499500000000000   0.012180000000000  -0.001350000000000 1
ion Mn   0.744870000000000   0.251080000000000  -0.009760000000000 1
ion Mn   0.642320000000000   0.318320000000000   0.367740000000000 1
ion Mn   0.505260000000000   0.002640000000000   0.486950000000000 1
ion Mn   0.886440000000000   0.693690000000000   0.614490000000000 1
ion Mn   0.758060000000000   0.499050000000000   0.992400000000000 1
ion Mn   0.496830000000000   0.506940000000000   0.003920000000000 1
ion Mn   0.750110000000000   0.758740000000000   0.001520000000000 1
ion Mn   0.627940000000000   0.801100000000000   0.380600000000000 1
ion Mn   0.492030000000000   0.502530000000000   0.513630000000000 1
ion O   0.253480000000000   0.113090000000000   0.250780000000000 1
ion O   0.499340000000000   0.130200000000000   0.722430000000000 1
ion O   0.231920000000000   0.347520000000000   0.220530000000000 1
ion O   0.020940000000000   0.390330000000000   0.256620000000000 1
ion O   0.246130000000000   0.388180000000000   0.743210000000000 1
ion O   0.501860000000000   0.395130000000000   0.752990000000000 1
ion O   0.256400000000000   0.141290000000000   0.760830000000000 1
ion O   0.008520000000000   0.112110000000000   0.229890000000000 1
ion O   0.272750000000000   0.627740000000000   0.248470000000000 1
ion O   0.504010000000000   0.614820000000000   0.710240000000000 1
ion O   0.234060000000000   0.862940000000000   0.247340000000000 1
ion O  -0.006340000000000   0.883150000000000   0.279460000000000 1
ion O   0.234200000000000   0.879660000000000   0.756640000000000 1
ion O   0.514250000000000   0.870250000000000   0.780950000000000 1
ion O   0.246300000000000   0.649290000000000   0.765960000000000 1
ion O   0.001710000000000   0.607880000000000   0.228800000000000 1
ion O   0.765650000000000   0.111170000000000   0.253810000000000 1
ion O   0.985910000000000   0.103420000000000   0.718430000000000 1
ion O   0.763690000000000   0.355530000000000   0.251520000000000 1
ion O   0.499160000000000   0.394790000000000   0.281020000000000 1
ion O   0.741350000000000   0.365130000000000   0.741690000000000 1
ion O   1.003930000000000   0.362080000000000   0.777050000000000 1
ion O   0.762260000000000   0.148420000000000   0.762030000000000 1
ion O   0.502970000000000   0.115390000000000   0.236310000000000 1
ion O   0.742380000000000   0.616300000000000   0.245750000000000 1
ion O   0.999930000000000   0.614980000000000   0.730750000000000 1
ion O   0.721380000000000   0.862410000000000   0.226990000000000 1
ion O   0.489070000000000   0.875710000000000   0.266770000000000 1
ion O   0.763440000000000   0.890630000000000   0.736970000000000 1
ion O   0.993370000000000   0.868680000000000   0.762320000000000 1
ion O   0.752450000000000   0.642740000000000   0.770130000000000 1
ion O   0.504190000000000   0.633590000000000   0.239490000000000 1
ion-species GBRV/$ID_pbesol.uspp
ion-width 0
ionic-minimize  \
	dirUpdateScheme      L-BFGS \
	linminMethod         DirUpdateRecommended \
	nIterations          50 \
	history              15 \
	knormThreshold       0.0001 \
	maxThreshold         no \
	energyDiffThreshold  1e-06 \
	nEnergyDiff          2 \
	alphaTstart          1 \
	alphaTmin            1e-10 \
	updateTestStepSize   yes \
	alphaTreduceFactor   0.1 \
	alphaTincreaseFactor 3 \
	nAlphaAdjustMax      3 \
	wolfeEnergy          0.0001 \
	wolfeGradient        0.9 \
	fdTest               no
kpoint   0.500000000000   0.500000000000   0.500000000000  1.00000000000000
kpoint-folding 2 2 3 
latt-move-scale 1 1 1
latt-scale 1 1 1 
lattice  \
	  18.996924611577327  -11.256730330583641   -0.588029153100741  \
	  -1.701222257910445   17.859221739036563    0.894108843439288  \
	  -9.691146878742231   -2.127407412561407   10.723772297247571 
lattice-minimize  \
	dirUpdateScheme      L-BFGS \
	linminMethod         DirUpdateRecommended \
	nIterations          0 \
	history              15 \
	knormThreshold       0 \
	maxThreshold         no \
	energyDiffThreshold  1e-06 \
	nEnergyDiff          2 \
	alphaTstart          1 \
	alphaTmin            1e-10 \
	updateTestStepSize   yes \
	alphaTreduceFactor   0.1 \
	alphaTincreaseFactor 3 \
	nAlphaAdjustMax      3 \
	wolfeEnergy          0.0001 \
	wolfeGradient        0.9 \
	fdTest               no
lcao-params -1 1e-06 0.01
pcm-variant GLSSA13
perturb-minimize  \
	nIterations            0 \
	algorithm              MINRES \
	residualTol            0.0001 \
	residualDiffThreshold  0.0001 \
	CGBypass               no \
	recomputeResidual      no
spintype no-spin
subspace-rotation-factor 1 yes
symmetries automatic
symmetry-threshold 0.0001



---------- Setting up symmetries ----------

Non-trivial transmission matrix:
[   1   1   0  ]
[   0   1   0  ]
[   1   1   1  ]
with reduced lattice vectors:
[     18.408895      7.152165     -0.588029  ]
[     -0.807113     17.052108      0.894109  ]
[      1.032625     -1.094782     10.723772  ]

Found 2 point-group symmetries of the bravais lattice
Found 1 space-group symmetries with basis
Applied RMS atom displacement 0 bohrs to make symmetries exact.

---------- Initializing the Grid ----------
R = 
[      18.9969     -11.2567    -0.588029  ]
[     -1.70122      17.8592     0.894109  ]
[     -9.69115     -2.12741      10.7238  ]
unit cell volume = 3462.67
G =
[   0.350971   0.221313 0.00079296  ]
[  0.0173808   0.359317 -0.0290055  ]
[   0.320623   0.271284   0.580874  ]
Minimum fftbox size, Smin = [  100  96  52  ]
Chosen fftbox size, S = [  100  96  54  ]

---------- Initializing tighter grid for wavefunction operations ----------
R = 
[      18.9969     -11.2567    -0.588029  ]
[     -1.70122      17.8592     0.894109  ]
[     -9.69115     -2.12741      10.7238  ]
unit cell volume = 3462.67
G =
[   0.350971   0.221313 0.00079296  ]
[  0.0173808   0.359317 -0.0290055  ]
[   0.320623   0.271284   0.580874  ]
Minimum fftbox size, Smin = [  88  88  44  ]
Chosen fftbox size, S = [  90  90  48  ]

---------- Exchange Correlation functional ----------
Initalized PBEsol GGA exchange.
Initalized PBEsol GGA correlation.

---------- Setting up pseudopotentials ----------
Width of ionic core gaussian charges (only for fluid interactions / plotting) set to 0

Reading pseudopotential file '/home/rc652/build/pseudopotentials/GBRV/mn_pbesol.uspp':
  Title: Mn.  Created by USPP 7.3.6 on 22-9-15
  Reference state energy: -105.045521.  15 valence electrons in orbitals:
    |300>  occupation: 2  eigenvalue: -3.291699
    |310>  occupation: 6  eigenvalue: -2.146878
    |400>  occupation: 1.5  eigenvalue: -0.308679
    |320>  occupation: 5  eigenvalue: -0.392872
    |410>  occupation: 0  eigenvalue: -0.151407
  lMax: 2  lLocal: 3  QijEcut: 6
  6 projectors sampled on a log grid with 585 points:
    l: 0  eig: -3.291699  rCut: 1.45
    l: 0  eig: -0.308679  rCut: 1.45
    l: 1  eig: -2.146878  rCut: 1.45
    l: 1  eig: -0.151407  rCut: 1.45
    l: 2  eig: -0.392872  rCut: 1.7
    l: 2  eig: 0.500000  rCut: 1.7
  Partial core density with radius 0.65
  Transforming core density to a uniform radial grid of dG=0.02 with 2354 points.
  Transforming local potential to a uniform radial grid of dG=0.02 with 2354 points.
  Transforming nonlocal projectors to a uniform radial grid of dG=0.02 with 432 points.
  Transforming density augmentations to a uniform radial grid of dG=0.02 with 2354 points.
  Transforming atomic orbitals to a uniform radial grid of dG=0.02 with 432 points.
  Core radius for overlap checks: 1.70 bohrs.

Reading pseudopotential file '/home/rc652/build/pseudopotentials/GBRV/o_pbesol.uspp':
  Title: O.  Created by USPP 7.3.6 on 3-2-2014
  Reference state energy: -15.849885.  6 valence electrons in orbitals:
    |200>  occupation: 2  eigenvalue: -0.873214
    |210>  occupation: 4  eigenvalue: -0.330058
  lMax: 2  lLocal: 2  QijEcut: 6
  5 projectors sampled on a log grid with 511 points:
    l: 0  eig: -0.873214  rCut: 1.25
    l: 0  eig: 0.000000  rCut: 1.25
    l: 1  eig: -0.330058  rCut: 1.25
    l: 1  eig: 0.000000  rCut: 1.25
    l: 2  eig: 1.000000  rCut: 1.25
  Partial core density with radius 0.7
  Transforming core density to a uniform radial grid of dG=0.02 with 2354 points.
  Transforming local potential to a uniform radial grid of dG=0.02 with 2354 points.
  Transforming nonlocal projectors to a uniform radial grid of dG=0.02 with 432 points.
  Transforming density augmentations to a uniform radial grid of dG=0.02 with 2354 points.
  Transforming atomic orbitals to a uniform radial grid of dG=0.02 with 432 points.
  Core radius for overlap checks: 1.25 bohrs.

Initialized 2 species with 56 total atoms.

Folded 1 k-points by 2x2x3 to 12 k-points.

---------- Setting up k-points, bands, fillings ----------
Adding inversion symmetry to k-mesh for non-inversion-symmetric unit cell.
Reduced to 6 k-points under symmetry. 
Computing the number of bands and number of electrons
Calculating initial fillings.
nElectrons: 552.000000   nBands: 440   nStates: 6

----- Setting up reduced wavefunction bases (one per k-point) -----
average nbasis = 14793.167 , ideal nbasis = 14792.775

---------- Setting up ewald sum ----------
Optimum gaussian width for ewald sums = 3.055551 bohr.
Real space sum over 539 unit cells with max indices [  3  3  5  ]
Reciprocal space sum over 9375 terms with max indices [  12  12  7  ]

---------- Allocating electronic variables ----------
Initializing wave functions:  linear combination of atomic orbitals
Mn pseudo-atom occupations:   s ( 2 0 )  p ( 6 0 )  d ( 7 )
O pseudo-atom occupations:   s ( 2 )  p ( 4 )
	FillingsUpdate:  mu: +0.550976204  nElectrons: 552.000000
LCAOMinimize: Iter:   0  F: -2891.9332273080726736  |grad|_K:  2.120e-02  alpha:  1.000e+00
	FillingsUpdate:  mu: +0.907250156  nElectrons: 552.000000
LCAOMinimize: Iter:   1  F: -2927.0987410286470549  |grad|_K:  3.474e-02  alpha:  3.554e-01  linmin:  3.285e-01  cgtest: -4.701e-01  t[s]:     62.38
LCAOMinimize: 	Bad step direction: g.d > 0.
LCAOMinimize: 	Undoing step.
LCAOMinimize: 	Step failed: resetting search direction.
	FillingsUpdate:  mu: +0.907250156  nElectrons: 552.000000
LCAOMinimize: Iter:   2  F: -2927.0987410286470549  |grad|_K:  3.474e-02  alpha:  0.000e+00
LCAOMinimize: 	Step increased F by 3.991488e+01, reducing alpha to 1.242246e-02.
	FillingsUpdate:  mu: +0.886717849  nElectrons: 552.000000
LCAOMinimize: Iter:   3  F: -2944.8972721631298555  |grad|_K:  3.282e-02  alpha:  1.242e-02  linmin: -3.886e-01  cgtest:  9.058e-01  t[s]:    116.53
LCAOMinimize: 	Wrong curvature in test step, increasing alphaT to 3.726739e-02.
	FillingsUpdate:  mu: +0.874472356  nElectrons: 552.000000
LCAOMinimize: Iter:   4  F: -2961.2780086381580986  |grad|_K:  3.040e-02  alpha: -9.606e-01  linmin: -4.236e-01  cgtest:  9.140e-01  t[s]:    137.20
LCAOMinimize: 	Step increased F by 1.773950e+02, reducing alpha to 3.849691e-02.
	FillingsUpdate:  mu: +0.859687559  nElectrons: 552.000000
LCAOMinimize: Iter:   5  F: -2995.9237053135416318  |grad|_K:  2.028e-02  alpha:  3.850e-02  linmin: -3.005e-01  cgtest:  7.025e-01  t[s]:    174.15
LCAOMinimize: Encountered beta<0, resetting CG.
	FillingsUpdate:  mu: +0.654395159  nElectrons: 552.000000
LCAOMinimize: Iter:   6  F: -3008.1377318840145563  |grad|_K:  2.201e-02  alpha:  5.541e-02  linmin:  6.041e-02  cgtest:  1.139e-02  t[s]:    197.29
	FillingsUpdate:  mu: +0.638602746  nElectrons: 552.000000
LCAOMinimize: Iter:   7  F: -3015.6768449105570653  |grad|_K:  1.392e-02  alpha:  3.224e-02  linmin:  5.119e-03  cgtest:  2.607e-01  t[s]:    218.60
	FillingsUpdate:  mu: +0.591414933  nElectrons: 552.000000
LCAOMinimize: Iter:   8  F: -3018.5640506868794546  |grad|_K:  6.155e-03  alpha:  2.503e-02  linmin:  2.174e-02  cgtest: -2.684e-02  t[s]:    241.15
	FillingsUpdate:  mu: +0.609007066  nElectrons: 552.000000
LCAOMinimize: Iter:   9  F: -3019.0205858439840085  |grad|_K:  2.573e-03  alpha:  2.125e-02  linmin:  7.580e-03  cgtest:  3.732e-02  t[s]:    263.57
	FillingsUpdate:  mu: +0.609965882  nElectrons: 552.000000
LCAOMinimize: Iter:  10  F: -3019.1455160566779341  |grad|_K:  2.330e-03  alpha:  3.309e-02  linmin:  9.643e-03  cgtest:  7.697e-04  t[s]:    285.48
	FillingsUpdate:  mu: +0.590377622  nElectrons: 552.000000
LCAOMinimize: Iter:  11  F: -3019.2705898369222268  |grad|_K:  1.865e-03  alpha:  4.095e-02  linmin:  2.445e-03  cgtest:  8.462e-02  t[s]:    306.45
	FillingsUpdate:  mu: +0.578982630  nElectrons: 552.000000
LCAOMinimize: Iter:  12  F: -3019.3379946764439410  |grad|_K:  1.153e-03  alpha:  3.356e-02  linmin: -3.065e-06  cgtest: -2.091e-02  t[s]:    327.93
	FillingsUpdate:  mu: +0.575688172  nElectrons: 552.000000
LCAOMinimize: Iter:  13  F: -3019.3524094329650325  |grad|_K:  4.613e-04  alpha:  1.847e-02  linmin: -1.083e-03  cgtest:  1.191e-02  t[s]:    349.24
	FillingsUpdate:  mu: +0.574113133  nElectrons: 552.000000
LCAOMinimize: Iter:  14  F: -3019.3565593146176980  |grad|_K:  3.162e-04  alpha:  3.343e-02  linmin:  1.655e-03  cgtest: -1.049e-02  t[s]:    370.59
	FillingsUpdate:  mu: +0.573344208  nElectrons: 552.000000
LCAOMinimize: Iter:  15  F: -3019.3585306017989751  |grad|_K:  3.207e-04  alpha:  3.393e-02  linmin:  4.110e-04  cgtest:  8.268e-03  t[s]:    393.56
	FillingsUpdate:  mu: +0.571839896  nElectrons: 552.000000
LCAOMinimize: Iter:  16  F: -3019.3614639538245683  |grad|_K:  2.970e-04  alpha:  4.909e-02  linmin:  9.868e-04  cgtest: -4.808e-03  t[s]:    415.69
	FillingsUpdate:  mu: +0.570991537  nElectrons: 552.000000
LCAOMinimize: Iter:  17  F: -3019.3630139124184097  |grad|_K:  1.968e-04  alpha:  3.019e-02  linmin: -1.370e-04  cgtest:  1.694e-02  t[s]:    436.89
	FillingsUpdate:  mu: +0.570982366  nElectrons: 552.000000
LCAOMinimize: Iter:  18  F: -3019.3636961219222030  |grad|_K:  1.543e-04  alpha:  3.018e-02  linmin:  3.366e-04  cgtest: -2.780e-03  t[s]:    459.98
	FillingsUpdate:  mu: +0.571343276  nElectrons: 552.000000
LCAOMinimize: Iter:  19  F: -3019.3642542253919601  |grad|_K:  1.650e-04  alpha:  4.026e-02  linmin:  2.956e-04  cgtest:  3.787e-03  t[s]:    481.42
	FillingsUpdate:  mu: +0.572271783  nElectrons: 552.000000
LCAOMinimize: Iter:  20  F: -3019.3651613653150889  |grad|_K:  1.732e-04  alpha:  5.735e-02  linmin:  3.945e-04  cgtest:  2.132e-03  t[s]:    502.72
	FillingsUpdate:  mu: +0.572846755  nElectrons: 552.000000
LCAOMinimize: Iter:  21  F: -3019.3656524063426332  |grad|_K:  1.146e-04  alpha:  2.809e-02  linmin: -2.036e-04  cgtest:  1.406e-02  t[s]:    525.30
	FillingsUpdate:  mu: +0.573054355  nElectrons: 552.000000
LCAOMinimize: Iter:  22  F: -3019.3658342847456879  |grad|_K:  5.295e-05  alpha:  2.368e-02  linmin:  6.729e-05  cgtest: -6.849e-03  t[s]:    547.13
	FillingsUpdate:  mu: +0.573196287  nElectrons: 552.000000
LCAOMinimize: Iter:  23  F: -3019.3659002685258201  |grad|_K:  5.584e-05  alpha:  4.035e-02  linmin:  5.223e-05  cgtest:  8.271e-04  t[s]:    569.08
	FillingsUpdate:  mu: +0.573352982  nElectrons: 552.000000
LCAOMinimize: Iter:  24  F: -3019.3659662837153519  |grad|_K:  5.192e-05  alpha:  3.630e-02  linmin:  3.580e-05  cgtest:  8.475e-04  t[s]:    590.20
	FillingsUpdate:  mu: +0.573472760  nElectrons: 552.000000
LCAOMinimize: Iter:  25  F: -3019.3660443459821181  |grad|_K:  4.250e-05  alpha:  4.966e-02  linmin:  8.397e-05  cgtest:  9.913e-04  t[s]:    612.12
	FillingsUpdate:  mu: +0.573487605  nElectrons: 552.000000
LCAOMinimize: Iter:  26  F: -3019.3660677027942256  |grad|_K:  2.484e-05  alpha:  2.217e-02  linmin: -5.512e-05  cgtest:  2.202e-03  t[s]:    632.91
	FillingsUpdate:  mu: +0.573469652  nElectrons: 552.000000
LCAOMinimize: Iter:  27  F: -3019.3660831998313370  |grad|_K:  2.553e-05  alpha:  4.303e-02  linmin:  7.769e-05  cgtest: -1.141e-03  t[s]:    655.36
	FillingsUpdate:  mu: +0.573435151  nElectrons: 552.000000
LCAOMinimize: Iter:  28  F: -3019.3660991129081594  |grad|_K:  2.780e-05  alpha:  4.186e-02  linmin:  2.566e-05  cgtest:  1.155e-03  t[s]:    677.40
	FillingsUpdate:  mu: +0.573370262  nElectrons: 552.000000
LCAOMinimize: Iter:  29  F: -3019.3661208762687238  |grad|_K:  2.118e-05  alpha:  4.826e-02  linmin:  7.175e-05  cgtest:  1.341e-04  t[s]:    698.28
	FillingsUpdate:  mu: +0.573332210  nElectrons: 552.000000
LCAOMinimize: Iter:  30  F: -3019.3661264802244659  |grad|_K:  1.141e-05  alpha:  2.142e-02  linmin: -3.582e-05  cgtest:  1.346e-03  t[s]:    720.46
LCAOMinimize: None of the convergence criteria satisfied after 30 iterations.


---- Citations for features of the code used in this run ----

   Software package:
      R. Sundararaman, K. Letchworth-Weaver, K.A. Schwarz, D. Gunceler, Y. Ozhabes and T.A. Arias, 'JDFTx: software for joint density-functional theory', SoftwareX 6, 278 (2017)

   gga-PBEsol exchange-correlation functional:
      J.P. Perdew et al., Phys. Rev. Lett. 100, 136406 (2008)

   Pseudopotentials:
      KF Garrity, JW Bennett, KM Rabe and D Vanderbilt, Comput. Mater. Sci. 81, 446 (2014)

This list may not be complete. Please suggest additional citations or
report any other bugs at https://github.com/shankar1729/jdftx/issues

Initialization completed successfully at t[s]:    728.66


-------- Electronic minimization -----------
Will mix electronic density at each iteration.
	FillingsUpdate:  mu: +0.573332210  nElectrons: 552.000000
	FillingsUpdate:  mu: +0.568784313  nElectrons: 552.000000
SCF: Cycle:  0   F: -3019.985047392940487   dF: -6.189e-01   |Residual|: 8.643e-01   |deigs|: 4.326e-02  t[s]:    811.97
	FillingsUpdate:  mu: +0.520693166  nElectrons: 552.000000
SCF: Cycle:  1   F: -3013.782718477089020   dF: +6.202e+00   |Residual|: 1.475e+00   |deigs|: 3.919e-02  t[s]:    872.42
	FillingsUpdate:  mu: +0.532469580  nElectrons: 552.000000
SCF: Cycle:  2   F: -2990.934941126813555   dF: +2.285e+01   |Residual|: 3.063e+00   |deigs|: 1.884e-02  t[s]:    940.24
	FillingsUpdate:  mu: +0.539736146  nElectrons: 552.000000
SCF: Cycle:  3   F: -3016.668619933083392   dF: -2.573e+01   |Residual|: 1.001e+00   |deigs|: 1.625e-02  t[s]:   1005.67
	FillingsUpdate:  mu: +0.538574986  nElectrons: 552.000000
SCF: Cycle:  4   F: -3017.153192293297707   dF: -4.846e-01   |Residual|: 9.304e-01   |deigs|: 3.502e-03  t[s]:   1074.33
	FillingsUpdate:  mu: +0.533946565  nElectrons: 552.000000
SCF: Cycle:  5   F: -3018.675221097440044   dF: -1.522e+00   |Residual|: 7.287e-01   |deigs|: 4.055e-03  t[s]:   1139.87
	FillingsUpdate:  mu: +0.533606953  nElectrons: 552.000000
SCF: Cycle:  6   F: -3020.480923816978247   dF: -1.806e+00   |Residual|: 1.395e-01   |deigs|: 1.876e-03  t[s]:   1211.39
	FillingsUpdate:  mu: +0.533968991  nElectrons: 552.000000
SCF: Cycle:  7   F: -3020.320227634924777   dF: +1.607e-01   |Residual|: 2.392e-01   |deigs|: 9.150e-04  t[s]:   1277.70
	FillingsUpdate:  mu: +0.534253816  nElectrons: 552.000000
SCF: Cycle:  8   F: -3020.527152608784490   dF: -2.069e-01   |Residual|: 6.899e-02   |deigs|: 8.073e-04  t[s]:   1330.99
	FillingsUpdate:  mu: +0.534332803  nElectrons: 552.000000
SCF: Cycle:  9   F: -3020.300721550287562   dF: +2.264e-01   |Residual|: 2.415e-01   |deigs|: 5.931e-04  t[s]:   1400.41
	FillingsUpdate:  mu: +0.534340857  nElectrons: 552.000000
SCF: Cycle: 10   F: -3020.524143318765709   dF: -2.234e-01   |Residual|: 6.460e-02   |deigs|: 5.678e-04  t[s]:   1455.21
	FillingsUpdate:  mu: +0.534365705  nElectrons: 552.000000
SCF: Cycle: 11   F: -3020.520419840974228   dF: +3.723e-03   |Residual|: 7.195e-02   |deigs|: 3.694e-04  t[s]:   1499.76
	FillingsUpdate:  mu: +0.534508095  nElectrons: 552.000000
SCF: Cycle: 12   F: -3020.526883195121172   dF: -6.463e-03   |Residual|: 5.309e-02   |deigs|: 2.724e-04  t[s]:   1541.73
	FillingsUpdate:  mu: +0.534554969  nElectrons: 552.000000
SCF: Cycle: 13   F: -3020.537276815334735   dF: -1.039e-02   |Residual|: 1.509e-02   |deigs|: 2.352e-04  t[s]:   1583.27
	FillingsUpdate:  mu: +0.534464596  nElectrons: 552.000000
SCF: Cycle: 14   F: -3020.535825056773774   dF: +1.452e-03   |Residual|: 2.546e-02   |deigs|: 1.593e-04  t[s]:   1623.55
	FillingsUpdate:  mu: +0.534507038  nElectrons: 552.000000
SCF: Cycle: 15   F: -3020.537068703796194   dF: -1.244e-03   |Residual|: 1.570e-02   |deigs|: 1.274e-04  t[s]:   1670.54
	FillingsUpdate:  mu: +0.534578013  nElectrons: 552.000000
SCF: Cycle: 16   F: -3020.537727174021256   dF: -6.585e-04   |Residual|: 9.153e-03   |deigs|: 1.049e-04  t[s]:   1711.32
	FillingsUpdate:  mu: +0.534572677  nElectrons: 552.000000
SCF: Cycle: 17   F: -3020.537772105218210   dF: -4.493e-05   |Residual|: 8.627e-03   |deigs|: 6.536e-05  t[s]:   1755.72
	FillingsUpdate:  mu: +0.534572007  nElectrons: 552.000000
SCF: Cycle: 18   F: -3020.537837769832549   dF: -6.566e-05   |Residual|: 7.222e-03   |deigs|: 4.744e-05  t[s]:   1799.23
	FillingsUpdate:  mu: +0.534549890  nElectrons: 552.000000
SCF: Cycle: 19   F: -3020.537951671272367   dF: -1.139e-04   |Residual|: 4.199e-03   |deigs|: 3.705e-05  t[s]:   1839.74
	FillingsUpdate:  mu: +0.534551812  nElectrons: 552.000000
SCF: Cycle: 20   F: -3020.538000014085355   dF: -4.834e-05   |Residual|: 2.389e-03   |deigs|: 2.397e-05  t[s]:   1883.44
	FillingsUpdate:  mu: +0.534578874  nElectrons: 552.000000
SCF: Cycle: 21   F: -3020.537980204690939   dF: +1.981e-05   |Residual|: 3.004e-03   |deigs|: 2.636e-05  t[s]:   1927.51
	FillingsUpdate:  mu: +0.534582053  nElectrons: 552.000000
SCF: Cycle: 22   F: -3020.538004741198165   dF: -2.454e-05   |Residual|: 2.001e-03   |deigs|: 1.758e-05  t[s]:   1966.95
	FillingsUpdate:  mu: +0.534571757  nElectrons: 552.000000
SCF: Cycle: 23   F: -3020.537981015162131   dF: +2.373e-05   |Residual|: 3.055e-03   |deigs|: 1.961e-05  t[s]:   2011.28
	FillingsUpdate:  mu: +0.534572540  nElectrons: 552.000000
SCF: Cycle: 24   F: -3020.538012547916878   dF: -3.153e-05   |Residual|: 1.420e-03   |deigs|: 1.582e-05  t[s]:   2050.28
	FillingsUpdate:  mu: +0.534573487  nElectrons: 552.000000
SCF: Cycle: 25   F: -3020.538001082761639   dF: +1.147e-05   |Residual|: 2.421e-03   |deigs|: 1.371e-05  t[s]:   2091.16
	FillingsUpdate:  mu: +0.534570948  nElectrons: 552.000000
SCF: Cycle: 26   F: -3020.538010592517821   dF: -9.510e-06   |Residual|: 1.642e-03   |deigs|: 1.303e-05  t[s]:   2133.85
	FillingsUpdate:  mu: +0.534569941  nElectrons: 552.000000
SCF: Cycle: 27   F: -3020.538015102403733   dF: -4.510e-06   |Residual|: 1.082e-03   |deigs|: 1.030e-05  t[s]:   2176.63
	FillingsUpdate:  mu: +0.534571799  nElectrons: 552.000000
SCF: Cycle: 28   F: -3020.538016899670765   dF: -1.797e-06   |Residual|: 9.709e-04   |deigs|: 8.062e-06  t[s]:   2215.94
	FillingsUpdate:  mu: +0.534573164  nElectrons: 552.000000
SCF: Cycle: 29   F: -3020.538016157863240   dF: +7.418e-07   |Residual|: 1.012e-03   |deigs|: 6.081e-06  t[s]:   2257.90
	FillingsUpdate:  mu: +0.534576326  nElectrons: 552.000000
SCF: Cycle: 30   F: -3020.538019028424515   dF: -2.871e-06   |Residual|: 5.221e-04   |deigs|: 4.804e-06  t[s]:   2298.36
	FillingsUpdate:  mu: +0.534576610  nElectrons: 552.000000
SCF: Cycle: 31   F: -3020.538019346902274   dF: -3.185e-07   |Residual|: 4.151e-04   |deigs|: 3.089e-06  t[s]:   2336.23
	FillingsUpdate:  mu: +0.534576481  nElectrons: 552.000000
SCF: Cycle: 32   F: -3020.538019020466436   dF: +3.264e-07   |Residual|: 5.296e-04   |deigs|: 2.975e-06  t[s]:   2376.78
	FillingsUpdate:  mu: +0.534575208  nElectrons: 552.000000
SCF: Cycle: 33   F: -3020.538019855875973   dF: -8.354e-07   |Residual|: 1.889e-04   |deigs|: 2.426e-06  t[s]:   2417.58
	FillingsUpdate:  mu: +0.534575689  nElectrons: 552.000000
SCF: Cycle: 34   F: -3020.538019707954390   dF: +1.479e-07   |Residual|: 2.554e-04   |deigs|: 1.656e-06  t[s]:   2459.06
	FillingsUpdate:  mu: +0.534576470  nElectrons: 552.000000
SCF: Cycle: 35   F: -3020.538019682724553   dF: +2.523e-08   |Residual|: 2.806e-04   |deigs|: 1.802e-06  t[s]:   2506.97
	FillingsUpdate:  mu: +0.534576846  nElectrons: 552.000000
SCF: Cycle: 36   F: -3020.538019743893528   dF: -6.117e-08   |Residual|: 2.764e-04   |deigs|: 1.909e-06  t[s]:   2548.16
	FillingsUpdate:  mu: +0.534576994  nElectrons: 552.000000
SCF: Cycle: 37   F: -3020.538019679045647   dF: +6.485e-08   |Residual|: 2.997e-04   |deigs|: 1.939e-06  t[s]:   2592.30
	FillingsUpdate:  mu: +0.534577143  nElectrons: 552.000000
SCF: Cycle: 38   F: -3020.538019908536171   dF: -2.295e-07   |Residual|: 1.433e-04   |deigs|: 1.746e-06  t[s]:   2630.79
	FillingsUpdate:  mu: +0.534577027  nElectrons: 552.000000
SCF: Cycle: 39   F: -3020.538019919477392   dF: -1.094e-08   |Residual|: 1.487e-04   |deigs|: 1.186e-06  t[s]:   2671.04
	FillingsUpdate:  mu: +0.534576816  nElectrons: 552.000000
SCF: Cycle: 40   F: -3020.538019708437787   dF: +2.110e-07   |Residual|: 2.786e-04   |deigs|: 1.292e-06  t[s]:   2708.29
	FillingsUpdate:  mu: +0.534576517  nElectrons: 552.000000
SCF: Cycle: 41   F: -3020.538019902121960   dF: -1.937e-07   |Residual|: 1.649e-04   |deigs|: 1.175e-06  t[s]:   2749.22
	FillingsUpdate:  mu: +0.534576513  nElectrons: 552.000000
SCF: Cycle: 42   F: -3020.538019959788016   dF: -5.767e-08   |Residual|: 9.483e-05   |deigs|: 8.044e-07  t[s]:   2790.21
	FillingsUpdate:  mu: +0.534576669  nElectrons: 552.000000
SCF: Cycle: 43   F: -3020.538019960895326   dF: -1.107e-09   |Residual|: 9.742e-05   |deigs|: 6.559e-07  t[s]:   2828.92
	FillingsUpdate:  mu: +0.534576935  nElectrons: 552.000000
SCF: Cycle: 44   F: -3020.538019961619739   dF: -7.244e-10   |Residual|: 9.057e-05   |deigs|: 5.825e-07  t[s]:   2867.83
SCF: Converged (|Delta E|<1.000000e-08 for 2 iters).

Setting wave functions to eigenvectors of Hamiltonian

# Ionic positions in lattice coordinates:
ion Mn   0.369450000000000   0.195420000000000   0.618060000000000 1
ion Mn   0.234730000000000   0.013340000000000   0.007320000000000 1
ion Mn   0.004830000000000   0.007590000000000  -0.007840000000000 1
ion Mn   0.255740000000000   0.260430000000000   0.000660000000000 1
ion Mn   0.133330000000000   0.324080000000000   0.363390000000000 1
ion Mn  -0.011760000000000   0.001000000000000   0.488780000000000 1
ion Mn   0.375580000000000   0.694260000000000   0.606950000000000 1
ion Mn   0.262660000000000   0.507310000000000   0.029960000000000 1
ion Mn  -0.012430000000000   0.498940000000000   0.004610000000000 1
ion Mn   0.237730000000000   0.761630000000000  -0.002660000000000 1
ion Mn   0.127030000000000   0.812560000000000   0.363360000000000 1
ion Mn  -0.020370000000000   0.500830000000000   0.501900000000000 1
ion Mn   0.884060000000000   0.194330000000000   0.637900000000000 1
ion Mn   0.757920000000000   0.007730000000000  -0.011610000000000 1
ion Mn   0.499500000000000   0.012180000000000  -0.001350000000000 1
ion Mn   0.744870000000000   0.251080000000000  -0.009760000000000 1
ion Mn   0.642320000000000   0.318320000000000   0.367740000000000 1
ion Mn   0.505260000000000   0.002640000000000   0.486950000000000 1
ion Mn   0.886440000000000   0.693690000000000   0.614490000000000 1
ion Mn   0.758060000000000   0.499050000000000   0.992400000000000 1
ion Mn   0.496830000000000   0.506940000000000   0.003920000000000 1
ion Mn   0.750110000000000   0.758740000000000   0.001520000000000 1
ion Mn   0.627940000000000   0.801100000000000   0.380600000000000 1
ion Mn   0.492030000000000   0.502530000000000   0.513630000000000 1
ion O   0.253480000000000   0.113090000000000   0.250780000000000 1
ion O   0.499340000000000   0.130200000000000   0.722430000000000 1
ion O   0.231920000000000   0.347520000000000   0.220530000000000 1
ion O   0.020940000000000   0.390330000000000   0.256620000000000 1
ion O   0.246130000000000   0.388180000000000   0.743210000000000 1
ion O   0.501860000000000   0.395130000000000   0.752990000000000 1
ion O   0.256400000000000   0.141290000000000   0.760830000000000 1
ion O   0.008520000000000   0.112110000000000   0.229890000000000 1
ion O   0.272750000000000   0.627740000000000   0.248470000000000 1
ion O   0.504010000000000   0.614820000000000   0.710240000000000 1
ion O   0.234060000000000   0.862940000000000   0.247340000000000 1
ion O  -0.006340000000000   0.883150000000000   0.279460000000000 1
ion O   0.234200000000000   0.879660000000000   0.756640000000000 1
ion O   0.514250000000000   0.870250000000000   0.780950000000000 1
ion O   0.246300000000000   0.649290000000000   0.765960000000000 1
ion O   0.001710000000000   0.607880000000000   0.228800000000000 1
ion O   0.765650000000000   0.111170000000000   0.253810000000000 1
ion O   0.985910000000000   0.103420000000000   0.718430000000000 1
ion O   0.763690000000000   0.355530000000000   0.251520000000000 1
ion O   0.499160000000000   0.394790000000000   0.281020000000000 1
ion O   0.741350000000000   0.365130000000000   0.741690000000000 1
ion O   1.003930000000000   0.362080000000000   0.777050000000000 1
ion O   0.762260000000000   0.148420000000000   0.762030000000000 1
ion O   0.502970000000000   0.115390000000000   0.236310000000000 1
ion O   0.742380000000000   0.616300000000000   0.245750000000000 1
ion O   0.999930000000000   0.614980000000000   0.730750000000000 1
ion O   0.721380000000000   0.862410000000000   0.226990000000000 1
ion O   0.489070000000000   0.875710000000000   0.266770000000000 1
ion O   0.763440000000000   0.890630000000000   0.736970000000000 1
ion O   0.993370000000000   0.868680000000000   0.762320000000000 1
ion O   0.752450000000000   0.642740000000000   0.770130000000000 1
ion O   0.504190000000000   0.633590000000000   0.239490000000000 1

# Forces in Lattice coordinates:
force Mn   0.308962542239986   0.054038280374241   0.041979777088043 1
force Mn   1.820678909878710  -1.554513935816974  -1.018013439039671 1
force Mn   0.749228845136630  -0.972240484764654  -0.220226521666580 1
force Mn   0.417497486294547  -0.376220560188528  -0.244517373140845 1
force Mn  -0.716938460550484  -0.973989952685783   0.779198943549579 1
force Mn   0.482001153440229  -0.439236710622702  -0.197375995160954 1
force Mn  -0.674263111970516  -0.798174961743801   0.667255644684331 1
force Mn   0.526971365996028  -0.545607927077902  -0.450426154388801 1
force Mn   1.525784928475526  -1.401385891699295  -0.873853793821763 1
force Mn   0.878079709834266  -0.461570469254179  -0.191103614087372 1
force Mn  -3.023238461780833   0.236156879372627   1.525359997957963 1
force Mn   2.012204714020348  -1.242306455728747  -0.704758051528671 1
force Mn   0.234700661397898  -1.937235756143785  -0.367184396191504 1
force Mn   0.081774049550961  -0.495616658125102   0.075549876729556 1
force Mn   0.912870167072418  -0.905127679566960  -0.411074432547289 1
force Mn   0.567960293416586  -0.610258673720375  -0.283357307385196 1
force Mn  -1.319066353350392   0.496314137757414   0.256142451701968 1
force Mn  -0.460904717074974   0.432062264998380   0.390147400015255 1
force Mn  -0.692354661909895  -0.760828180935489   0.373878408189186 1
force Mn  -0.186351897937381   0.197334010915512   0.011209723517225 1
force Mn   0.116476432984763  -0.308136249715615   0.001926468481495 1
force Mn   0.014959156147488   0.132672641977432   0.052640396584187 1
force Mn  -1.626212083145661   2.726130690361936   0.370074699292236 1
force Mn   2.094638202663775  -1.778988296653277  -1.231803291379822 1
force O  -1.446405811279321   1.542351693912680   0.574518573978279 1
force O   0.320127876971015  -0.579938551133458   0.167913945077246 1
force O   1.215301036994210   0.446687061886173  -0.590640038525771 1
force O  -1.484462717400109   1.111404828094779   0.160442316825317 1
force O   0.200990350866711  -0.300816280540325   0.233668149015974 1
force O   0.281040837390378  -0.504321341432899   0.173389581842174 1
force O  -0.608145237131153  -0.116449504215367   0.279961336667097 1
force O  -1.055461267353247   0.979652652090457   0.426225484293711 1
force O  -0.775787877730266   0.613264655693711  -0.149806009930597 1
force O  -2.421826714743681   2.627733749593644   1.211382452444831 1
force O   2.520065496407506   0.195776712236017  -1.266801927933595 1
force O   0.597405489968546  -0.444251371429176  -0.383625005395672 1
force O   0.272025992246286   0.089621559318870   0.030526034467469 1
force O  -0.134078159007259   1.545784418974792  -0.081808680071166 1
force O   0.359497853210340  -0.671468969296951  -0.090855731069595 1
force O  -1.542693137137993   1.593842184901337   0.762378542584560 1
force O  -0.696746398817490   0.792738682094262  -0.042124855464485 1
force O  -0.146053337786608   0.637385029117789   0.263842258791798 1
force O  -0.156166546727144   0.468907505447790  -0.076768906133378 1
force O   0.677323595754922  -0.594699357936668  -0.375217552860491 1
force O  -0.071764533564844   0.206792438680132   0.198376218282267 1
force O   0.048363227816572   2.637001980536247   0.006610866302690 1
force O  -0.447062794516202  -0.661593641092366   0.245156504030579 1
force O  -0.798072842570666   0.731040928261773   0.283657640968807 1
force O   0.020459393030125   0.112362336880572  -0.492204568706839 1
force O  -0.951142627220111   0.798233381431478   0.762745655338395 1
force O   1.948848385417961  -0.031458687199163  -0.921419690009285 1
force O   0.568267362353410  -0.321382796603003  -0.362705653420063 1
force O  -0.287740890875588   0.000113032621823   0.711547760356579 1
force O  -0.127402931959265   1.425470555759309  -0.002751944199023 1
force O   0.330336156252455  -0.599267032658603  -0.050757894144588 1
force O  -0.270994270111818  -2.471850923461047   0.035854236272931 1

# Energy components:
   Eewald =    -2084.7984474200411569
       EH =      846.1683800533897966
     Eloc =    -2621.7944505705440861
      Enl =      496.1233709870325583
      Exc =     -431.0737036271814873
 Exc_core =       28.0814159399771768
       KE =      747.3405312904923221
-------------------------------------
     Etot =    -3019.9529033468752459
       TS =        0.5851166147443776
-------------------------------------
        F =    -3020.5380199616197388

IonicMinimize: Iter:   0  F: -3020.538019961619739  |grad|_K:  4.568e-02  t[s]:   2881.46

#--- Lowdin population analysis ---
# oxidation-state Mn +0.280 +0.218 +0.220 +0.242 +0.256 +0.260 +0.273 +0.212 +0.216 +0.215 +0.266 +0.225 +0.270 +0.219 +0.293 +0.214 +0.273 +0.251 +0.264 +0.262 +0.245 +0.247 +0.277 +0.240
# oxidation-state O -0.096 -0.194 -0.106 -0.172 -0.201 -0.185 -0.175 -0.176 -0.152 -0.125 -0.088 -0.212 -0.222 -0.167 -0.260 -0.114 -0.209 -0.150 -0.094 -0.228 -0.136 -0.140 -0.168 -0.148 -0.198 -0.114 -0.132 -0.193 -0.174 -0.130 -0.218 -0.094


-------- Electronic minimization -----------
Will mix electronic density at each iteration.
	FillingsUpdate:  mu: +0.534576935  nElectrons: 552.000000
	FillingsUpdate:  mu: +0.532705497  nElectrons: 552.000000
SCF: Cycle:  0   F: -2994.074246603950996   dF: +2.366e+01   |Residual|: 2.668e+00   |deigs|: 5.933e-03  t[s]:   2974.40
	FillingsUpdate:  mu: +0.517535773  nElectrons: 552.000000
SCF: Cycle:  1   F: -2827.772804815666404   dF: +1.663e+02   |Residual|: 7.911e+00   |deigs|: 1.433e-01  t[s]:   3035.75
	FillingsUpdate:  mu: +0.533540511  nElectrons: 552.000000
SCF: Cycle:  2   F: -2929.105808671861723   dF: -1.013e+02   |Residual|: 5.049e+00   |deigs|: 1.048e-01  t[s]:   3106.08
	FillingsUpdate:  mu: +0.537443138  nElectrons: 552.000000
SCF: Cycle:  3   F: -2988.448827580374655   dF: -5.934e+01   |Residual|: 3.032e+00   |deigs|: 2.921e-02  t[s]:   3170.53
	FillingsUpdate:  mu: +0.539385927  nElectrons: 552.000000
SCF: Cycle:  4   F: -2993.891329772843164   dF: -5.443e+00   |Residual|: 2.855e+00   |deigs|: 1.102e-02  t[s]:   3233.72
	FillingsUpdate:  mu: +0.535627683  nElectrons: 552.000000
SCF: Cycle:  5   F: -2984.391570770914313   dF: +9.500e+00   |Residual|: 3.087e+00   |deigs|: 6.912e-03  t[s]:   3301.26
	FillingsUpdate:  mu: +0.534790123  nElectrons: 552.000000
SCF: Cycle:  6   F: -2997.017964484564800   dF: -1.263e+01   |Residual|: 2.503e+00   |deigs|: 5.262e-03  t[s]:   3368.43
	FillingsUpdate:  mu: +0.535259165  nElectrons: 552.000000
SCF: Cycle:  7   F: -3014.257436281320679   dF: -1.724e+01   |Residual|: 1.397e+00   |deigs|: 6.597e-03  t[s]:   3434.54
	FillingsUpdate:  mu: +0.536000534  nElectrons: 552.000000
SCF: Cycle:  8   F: -3014.217848325621617   dF: +3.959e-02   |Residual|: 1.285e+00   |deigs|: 3.318e-03  t[s]:   3501.20
	FillingsUpdate:  mu: +0.535424628  nElectrons: 552.000000
SCF: Cycle:  9   F: -3019.097705232015414   dF: -4.880e+00   |Residual|: 6.938e-01   |deigs|: 3.732e-03  t[s]:   3568.86
	FillingsUpdate:  mu: +0.535119391  nElectrons: 552.000000
SCF: Cycle: 10   F: -3019.975034888939263   dF: -8.773e-01   |Residual|: 4.746e-01   |deigs|: 1.667e-03  t[s]:   3636.06
	FillingsUpdate:  mu: +0.534876996  nElectrons: 552.000000
SCF: Cycle: 11   F: -3019.612835281511707   dF: +3.622e-01   |Residual|: 5.568e-01   |deigs|: 9.379e-04  t[s]:   3691.37
	FillingsUpdate:  mu: +0.533941706  nElectrons: 552.000000
SCF: Cycle: 12   F: -3020.243701670329756   dF: -6.309e-01   |Residual|: 3.872e-01   |deigs|: 2.247e-03  t[s]:   3764.12
	FillingsUpdate:  mu: +0.533287446  nElectrons: 552.000000
SCF: Cycle: 13   F: -3020.153839946196513   dF: +8.986e-02   |Residual|: 3.686e-01   |deigs|: 1.399e-03  t[s]:   3829.31
	FillingsUpdate:  mu: +0.533372165  nElectrons: 552.000000
SCF: Cycle: 14   F: -3020.469258686705416   dF: -3.154e-01   |Residual|: 2.685e-01   |deigs|: 1.538e-03  t[s]:   3897.38
	FillingsUpdate:  mu: +0.533901516  nElectrons: 552.000000
SCF: Cycle: 15   F: -3020.625978381613095   dF: -1.567e-01   |Residual|: 1.488e-01   |deigs|: 7.279e-04  t[s]:   3961.66
	FillingsUpdate:  mu: +0.533955295  nElectrons: 552.000000
SCF: Cycle: 16   F: -3020.635760457488686   dF: -9.782e-03   |Residual|: 1.345e-01   |deigs|: 6.135e-04  t[s]:   4031.16
	FillingsUpdate:  mu: +0.533911125  nElectrons: 552.000000
SCF: Cycle: 17   F: -3020.606653172246297   dF: +2.911e-02   |Residual|: 1.688e-01   |deigs|: 5.362e-04  t[s]:   4073.47
	FillingsUpdate:  mu: +0.533803460  nElectrons: 552.000000
SCF: Cycle: 18   F: -3020.668645892607401   dF: -6.199e-02   |Residual|: 1.013e-01   |deigs|: 4.812e-04  t[s]:   4115.86
	FillingsUpdate:  mu: +0.533635907  nElectrons: 552.000000
SCF: Cycle: 19   F: -3020.652194843402413   dF: +1.645e-02   |Residual|: 1.262e-01   |deigs|: 3.796e-04  t[s]:   4158.61
	FillingsUpdate:  mu: +0.533456458  nElectrons: 552.000000
SCF: Cycle: 20   F: -3020.619939019957201   dF: +3.226e-02   |Residual|: 1.502e-01   |deigs|: 4.804e-04  t[s]:   4226.24
	FillingsUpdate:  mu: +0.533575062  nElectrons: 552.000000
SCF: Cycle: 21   F: -3020.675346088914921   dF: -5.541e-02   |Residual|: 8.880e-02   |deigs|: 4.132e-04  t[s]:   4264.69
	FillingsUpdate:  mu: +0.533657911  nElectrons: 552.000000
SCF: Cycle: 22   F: -3020.702334045496173   dF: -2.699e-02   |Residual|: 2.891e-02   |deigs|: 2.303e-04  t[s]:   4306.96
	FillingsUpdate:  mu: +0.533788758  nElectrons: 552.000000
SCF: Cycle: 23   F: -3020.703594821629395   dF: -1.261e-03   |Residual|: 2.248e-02   |deigs|: 2.025e-04  t[s]:   4352.82
	FillingsUpdate:  mu: +0.533811224  nElectrons: 552.000000
SCF: Cycle: 24   F: -3020.700616014966727   dF: +2.979e-03   |Residual|: 3.462e-02   |deigs|: 1.554e-04  t[s]:   4390.32
	FillingsUpdate:  mu: +0.533860913  nElectrons: 552.000000
SCF: Cycle: 25   F: -3020.698367477325519   dF: +2.249e-03   |Residual|: 4.567e-02   |deigs|: 2.521e-04  t[s]:   4434.43
	FillingsUpdate:  mu: +0.533810870  nElectrons: 552.000000
SCF: Cycle: 26   F: -3020.704824280602679   dF: -6.457e-03   |Residual|: 1.323e-02   |deigs|: 1.994e-04  t[s]:   4477.00
	FillingsUpdate:  mu: +0.533766131  nElectrons: 552.000000
SCF: Cycle: 27   F: -3020.704728908245670   dF: +9.537e-05   |Residual|: 1.399e-02   |deigs|: 8.372e-05  t[s]:   4518.25
	FillingsUpdate:  mu: +0.533748370  nElectrons: 552.000000
SCF: Cycle: 28   F: -3020.704926666520350   dF: -1.978e-04   |Residual|: 1.188e-02   |deigs|: 6.319e-05  t[s]:   4558.79
	FillingsUpdate:  mu: +0.533737887  nElectrons: 552.000000
SCF: Cycle: 29   F: -3020.705314718416503   dF: -3.881e-04   |Residual|: 5.140e-03   |deigs|: 5.108e-05  t[s]:   4603.14
	FillingsUpdate:  mu: +0.533756649  nElectrons: 552.000000
SCF: Cycle: 30   F: -3020.704927825345749   dF: +3.869e-04   |Residual|: 1.132e-02   |deigs|: 5.814e-05  t[s]:   4643.79
	FillingsUpdate:  mu: +0.533768041  nElectrons: 552.000000
SCF: Cycle: 31   F: -3020.705217936867029   dF: -2.901e-04   |Residual|: 7.089e-03   |deigs|: 5.202e-05  t[s]:   4685.33
	FillingsUpdate:  mu: +0.533774243  nElectrons: 552.000000
SCF: Cycle: 32   F: -3020.705173214884326   dF: +4.472e-05   |Residual|: 8.058e-03   |deigs|: 3.864e-05  t[s]:   4726.29
	FillingsUpdate:  mu: +0.533772426  nElectrons: 552.000000
SCF: Cycle: 33   F: -3020.705386923194055   dF: -2.137e-04   |Residual|: 2.097e-03   |deigs|: 2.787e-05  t[s]:   4766.72
	FillingsUpdate:  mu: +0.533749179  nElectrons: 552.000000
SCF: Cycle: 34   F: -3020.704907705047390   dF: +4.792e-04   |Residual|: 1.153e-02   |deigs|: 5.384e-05  t[s]:   4808.80
	FillingsUpdate:  mu: +0.533747180  nElectrons: 552.000000
SCF: Cycle: 35   F: -3020.705377395157939   dF: -4.697e-04   |Residual|: 2.761e-03   |deigs|: 4.813e-05  t[s]:   4851.23
	FillingsUpdate:  mu: +0.533756385  nElectrons: 552.000000
SCF: Cycle: 36   F: -3020.705371366651889   dF: +6.029e-06   |Residual|: 2.908e-03   |deigs|: 2.013e-05  t[s]:   4894.41
	FillingsUpdate:  mu: +0.533757502  nElectrons: 552.000000
SCF: Cycle: 37   F: -3020.705307937297221   dF: +6.343e-05   |Residual|: 5.360e-03   |deigs|: 2.360e-05  t[s]:   4937.06
	FillingsUpdate:  mu: +0.533765104  nElectrons: 552.000000
SCF: Cycle: 38   F: -3020.705355075383977   dF: -4.714e-05   |Residual|: 3.683e-03   |deigs|: 2.723e-05  t[s]:   4977.26
	FillingsUpdate:  mu: +0.533761188  nElectrons: 552.000000
SCF: Cycle: 39   F: -3020.705398963921198   dF: -4.389e-05   |Residual|: 1.257e-03   |deigs|: 1.640e-05  t[s]:   5016.90
	FillingsUpdate:  mu: +0.533762611  nElectrons: 552.000000
SCF: Cycle: 40   F: -3020.705400757169627   dF: -1.793e-06   |Residual|: 1.086e-03   |deigs|: 7.030e-06  t[s]:   5054.24
	FillingsUpdate:  mu: +0.533764711  nElectrons: 552.000000
SCF: Cycle: 41   F: -3020.705402320864323   dF: -1.564e-06   |Residual|: 8.379e-04   |deigs|: 5.661e-06  t[s]:   5095.96
	FillingsUpdate:  mu: +0.533764196  nElectrons: 552.000000
SCF: Cycle: 42   F: -3020.705403177329117   dF: -8.565e-07   |Residual|: 6.900e-04   |deigs|: 4.792e-06  t[s]:   5138.63
	FillingsUpdate:  mu: +0.533761690  nElectrons: 552.000000
SCF: Cycle: 43   F: -3020.705402792603763   dF: +3.847e-07   |Residual|: 7.204e-04   |deigs|: 4.146e-06  t[s]:   5180.00
	FillingsUpdate:  mu: +0.533762164  nElectrons: 552.000000
SCF: Cycle: 44   F: -3020.705402487100400   dF: +3.055e-07   |Residual|: 7.512e-04   |deigs|: 3.999e-06  t[s]:   5221.37
	FillingsUpdate:  mu: +0.533758969  nElectrons: 552.000000
SCF: Cycle: 45   F: -3020.705404181586800   dF: -1.694e-06   |Residual|: 3.997e-04   |deigs|: 4.726e-06  t[s]:   5262.20
	FillingsUpdate:  mu: +0.533761251  nElectrons: 552.000000
SCF: Cycle: 46   F: -3020.705403906396441   dF: +2.752e-07   |Residual|: 4.785e-04   |deigs|: 3.102e-06  t[s]:   5301.88
	FillingsUpdate:  mu: +0.533762131  nElectrons: 552.000000
SCF: Cycle: 47   F: -3020.705404240868575   dF: -3.345e-07   |Residual|: 3.813e-04   |deigs|: 2.299e-06  t[s]:   5340.67
	FillingsUpdate:  mu: +0.533762789  nElectrons: 552.000000
SCF: Cycle: 48   F: -3020.705404606816046   dF: -3.659e-07   |Residual|: 2.016e-04   |deigs|: 1.884e-06  t[s]:   5381.53
	FillingsUpdate:  mu: +0.533762286  nElectrons: 552.000000
SCF: Cycle: 49   F: -3020.705404244906276   dF: +3.619e-07   |Residual|: 3.499e-04   |deigs|: 1.857e-06  t[s]:   5420.11
Setting wave functions to eigenvectors of Hamiltonian

# Ionic positions in lattice coordinates:
ion Mn   0.370430419002681   0.195979495421659   0.619260773911536 1
ion Mn   0.234795512984833   0.011320697063566   0.002179055479531 1
ion Mn   0.004946946000885   0.006366158306678  -0.008849936108082 1
ion Mn   0.255702124768849   0.259915083056011  -0.000628166022049 1
ion Mn   0.132249395792867   0.322260996221439   0.366284948428655 1
ion Mn  -0.011589337701721   0.000505790936768   0.487942219957196 1
ion Mn   0.374544916994217   0.692695186869793   0.609318962681141 1
ion Mn   0.262151741987557   0.506337309006313   0.027146159163807 1
ion Mn  -0.012555733230639   0.497027907863074   0.000014098351173 1
ion Mn   0.238913638440614   0.761610009918676  -0.002447693426667 1
ion Mn   0.123477810593637   0.811109843594008   0.367587951457063 1
ion Mn  -0.018591701076779   0.500074808158668   0.500082457453155 1
ion Mn   0.881220369088852   0.190363235160017   0.633164937015369 1
ion Mn   0.757692083380392   0.006963970706395  -0.011453476424245 1
ion Mn   0.499630407841623   0.011050861752536  -0.003321736456711 1
ion Mn   0.744819342771009   0.250250004556703  -0.011260141189149 1
ion Mn   0.640212168654435   0.317927784851492   0.366932764598339 1
ion Mn   0.505639822794026   0.003400268696662   0.489327750367344 1
ion Mn   0.884642802103457   0.691794755995956   0.614593529013706 1
ion Mn   0.757862493053055   0.499212711193324   0.992259999131337 1
ion Mn   0.496741685357314   0.506490420118968   0.003840991741271 1
ion Mn   0.750458233209346   0.759088892801460   0.002140093820562 1
ion Mn   0.628203672151053   0.804827628621264   0.382764312717987 1
ion Mn   0.491959550655686   0.500146534796293   0.507259062125660 1
ion O   0.253217359063830   0.114995434293124   0.253457299597832 1
ion O   0.499860941901976   0.129695348094844   0.723811051802409 1
ion O   0.234106207676889   0.349195171289999   0.219710069861483 1
ion O   0.018946715513190   0.390805604846262   0.255440307506761 1
ion O   0.246872883419506   0.388153942366823   0.745150926902984 1
ion O   0.502391331788185   0.394730243602991   0.754409676742084 1
ion O   0.255405889893767   0.140643546484917   0.761262273578140 1
ion O   0.008159313934756   0.113224279916108   0.231709326022613 1
ion O   0.271142941280725   0.627749947730703   0.246091392177375 1
ion O   0.504276291037360   0.618421338969403   0.716706963758401 1
ion O   0.237541792635974   0.864926728030579   0.244365398565992 1
ion O  -0.006361632672526   0.882553089767081   0.277476946855037 1
ion O   0.235100795232047   0.880226800110124   0.757702295373043 1
ion O   0.515681523854210   0.873000616180895   0.781975254659104 1
ion O   0.246131744449494   0.648321312031039   0.765325465394047 1
ion O   0.001753161286947   0.610005862826521   0.232745005999052 1
ion O   0.764758770525247   0.111772806942682   0.252701694833043 1
ion O   0.987040591594207   0.104823984752410   0.720917234447226 1
ion O   0.763691294277315   0.356149450296477   0.251130805755417 1
ion O   0.499173485239610   0.394012178046362   0.279114828960940 1
ion O   0.741948318517262   0.365701351452003   0.743306546640228 1
ion O   1.007468524811105   0.367317425542359   0.780647633168540 1
ion O   0.760890643697905   0.146868008335989   0.761905831924988 1
ion O   0.502584697359072   0.116163832479300   0.237375222887309 1
ion O   0.741298673945240   0.615909928698249   0.242148346865346 1
ion O   1.000481466287039   0.616309433946437   0.735205704550026 1
ion O   0.723989141173547   0.863664078972485   0.224903154647635 1
ion O   0.489185519575563   0.875343361366346   0.265032033968565 1
ion O   0.764548384156963   0.891183730970556   0.741721684521461 1
ion O   0.994869638094699   0.871306029490010   0.763817494645046 1
ion O   0.752403518785305   0.641927173488641   0.769822995960664 1
ion O   0.500401706046341   0.628447603010556   0.235860213639280 1

# Forces in Lattice coordinates:
force Mn   0.252255350049891   0.012222551918615   0.102436595772543 1
force Mn   1.282685490742347  -1.089929279588569  -0.639092947662760 1
force Mn   0.550396313873854  -0.705169119885870  -0.103860191614182 1
force Mn   0.376499048062233  -0.396440534880221  -0.214112716290883 1
force Mn  -0.420102279047468  -0.811213880358800   0.481944381449699 1
force Mn   0.366046815890935  -0.360263818223564  -0.132819674152278 1
force Mn  -0.578061593700491  -0.485743995399664   0.548420957589061 1
force Mn   0.349728975127980  -0.434283100117226  -0.361579564757792 1
force Mn   1.073058405983131  -0.897877487101358  -0.610160597653102 1
force Mn   0.856763013840494  -0.524407664038050  -0.187199718410398 1
force Mn  -1.452281563825208   0.161531236622613   0.718760895406082 1
force Mn   1.675878447914959  -0.948894790242329  -0.500540130788761 1
force Mn   0.157014411539481  -0.692864565702374  -0.268191235022462 1
force Mn   0.043834993646420  -0.449378213623980   0.104071610509697 1
force Mn   0.752788030932884  -0.763992869620701  -0.318084857556793 1
force Mn   0.452150752661528  -0.513769004984379  -0.218676393261239 1
force Mn  -1.101554064242027   0.446893632204263   0.193410167284097 1
force Mn  -0.432870245030293   0.319252927137874   0.356116632142118 1
force Mn  -0.758835441986202  -0.325786146126788   0.334430924233668 1
force Mn  -0.186684379746227   0.184763365402729   0.021996599729145 1
force Mn   0.174429464242915  -0.282055514251857  -0.057530592969787 1
force Mn   0.012785114116967   0.082548136720463   0.029016207705122 1
force Mn  -1.306387199286284   1.671605831347309   0.142529323543389 1
force Mn   1.014753036469778  -0.636128650371280  -0.657226054079395 1
force O  -0.931611812904744   1.051184018698867   0.214483252930987 1
force O   0.270501339291058  -0.517064017290875   0.167544341353178 1
force O   0.649341098436297   0.594227888019846  -0.304982651017294 1
force O  -1.200690166119733   0.810936730756587   0.174041557097758 1
force O   0.202358769888481  -0.305166317499949   0.209428481058757 1
force O   0.286237919834251  -0.390615239133555   0.117570174695492 1
force O  -0.498116084963626  -0.166043903191506   0.222647394410043 1
force O  -0.850616875242692   0.769837025729628   0.329986125370920 1
force O  -0.742310120490016   0.559958967406381  -0.090005337549143 1
force O  -1.362485368398770   1.400239131183352   0.731017220096290 1
force O   1.038819148069459   0.344272336685714  -0.521748373514227 1
force O   0.538126180386550  -0.376094084763633  -0.354719984471586 1
force O   0.264006219013388   0.083988298166645   0.035556431750715 1
force O  -0.200303566880205   1.248926430750446  -0.105138265776358 1
force O   0.342198490649845  -0.636832022146711  -0.091117125050455 1
force O  -1.048693079697900   1.000678223320560   0.499674115731531 1
force O  -0.636035496660529   0.708512739270152  -0.077861176311437 1
force O   0.015592079202745   0.441310241245630   0.203374760731085 1
force O  -0.241700434463757   0.466989219847017  -0.039157103337634 1
force O   0.744279593205831  -0.675410222003696  -0.385509980974715 1
force O  -0.041237449817296   0.193517097206494   0.163242764438755 1
force O  -0.037013451283518   1.598319221382924  -0.041244703188272 1
force O  -0.341783641744923  -0.648859690532206   0.189639323681470 1
force O  -0.659118767304638   0.555506673702068   0.209181293228919 1
force O   0.041855867012854   0.116551551359509  -0.422444027653176 1
force O  -0.537931275149408   0.372451688485038   0.555003692102536 1
force O   1.494675154606200  -0.060397654681113  -0.642274466178679 1
force O   0.503317519494755  -0.213700379015747  -0.322119474499204 1
force O  -0.225643915698394  -0.045474950614484   0.614312406377294 1
force O  -0.016322402243378   0.947982823104004  -0.075298317528657 1
force O   0.279021981251097  -0.564337056069875  -0.048452775431325 1
force O  -0.194685818013945  -1.294831144925552   0.103168844161950 1

# Energy components:
   Eewald =    -2088.9033734479489794
       EH =      842.5501130299510351
     Eloc =    -2613.5915705004458687
      Enl =      496.0646658234074380
      Exc =     -430.8940649391256557
 Exc_core =       28.0812957660046649
       KE =      746.5806661645865461
-------------------------------------
     Etot =    -3020.1122681035708410
       TS =        0.5934410504540693
-------------------------------------
        F =    -3020.7057091540250440

IonicMinimize: Iter:   1  F: -3020.705709154025044  |grad|_K:  2.985e-02  alpha:  5.937e-01  linmin: -9.639e-01  t[s]:   5435.52

#--- Lowdin population analysis ---
# oxidation-state Mn +0.287 +0.229 +0.226 +0.248 +0.268 +0.261 +0.291 +0.227 +0.229 +0.228 +0.284 +0.238 +0.284 +0.223 +0.293 +0.220 +0.279 +0.258 +0.273 +0.266 +0.252 +0.251 +0.294 +0.249
# oxidation-state O -0.118 -0.190 -0.120 -0.178 -0.193 -0.187 -0.177 -0.183 -0.162 -0.161 -0.142 -0.203 -0.209 -0.176 -0.256 -0.133 -0.201 -0.148 -0.106 -0.212 -0.136 -0.181 -0.166 -0.158 -0.199 -0.128 -0.142 -0.194 -0.167 -0.141 -0.217 -0.126


-------- Electronic minimization -----------
Will mix electronic density at each iteration.
	FillingsUpdate:  mu: +0.533762286  nElectrons: 552.000000
	FillingsUpdate:  mu: +0.529883334  nElectrons: 552.000000
SCF: Cycle:  0   F: -2977.815712887792415   dF: +3.861e+01   |Residual|: 3.448e+00   |deigs|: 8.568e-03  t[s]:   5529.94
	FillingsUpdate:  mu: +0.521525385  nElectrons: 552.000000
SCF: Cycle:  1   F: -2817.215695885047353   dF: +1.606e+02   |Residual|: 8.894e+00   |deigs|: 1.822e-01  t[s]:   5600.23
	FillingsUpdate:  mu: +0.534409435  nElectrons: 552.000000
SCF: Cycle:  2   F: -2901.507920430834474   dF: -8.429e+01   |Residual|: 5.960e+00   |deigs|: 1.359e-01  t[s]:   5667.07
	FillingsUpdate:  mu: +0.538118694  nElectrons: 552.000000
SCF: Cycle:  3   F: -2963.020849296200595   dF: -6.151e+01   |Residual|: 4.036e+00   |deigs|: 3.632e-02  t[s]:   5735.76
	FillingsUpdate:  mu: +0.536353707  nElectrons: 552.000000
SCF: Cycle:  4   F: -2986.538177997869752   dF: -2.352e+01   |Residual|: 3.145e+00   |deigs|: 1.872e-02  t[s]:   5808.25
	FillingsUpdate:  mu: +0.537288819  nElectrons: 552.000000
SCF: Cycle:  5   F: -2978.355523988371715   dF: +8.183e+00   |Residual|: 3.528e+00   |deigs|: 1.221e-02  t[s]:   5875.83
	FillingsUpdate:  mu: +0.534320419  nElectrons: 552.000000
SCF: Cycle:  6   F: -2988.870229601959181   dF: -1.051e+01   |Residual|: 3.029e+00   |deigs|: 1.082e-02  t[s]:   5942.26
	FillingsUpdate:  mu: +0.534538130  nElectrons: 552.000000
SCF: Cycle:  7   F: -3014.949333590331207   dF: -2.608e+01   |Residual|: 1.355e+00   |deigs|: 1.346e-02  t[s]:   6011.28
	FillingsUpdate:  mu: +0.537597371  nElectrons: 552.000000
SCF: Cycle:  8   F: -3007.950201230361017   dF: +6.999e+00   |Residual|: 1.934e+00   |deigs|: 9.381e-03  t[s]:   6081.46
	FillingsUpdate:  mu: +0.536471018  nElectrons: 552.000000
SCF: Cycle:  9   F: -3015.801397174895101   dF: -7.851e+00   |Residual|: 1.211e+00   |deigs|: 5.344e-03  t[s]:   6154.96
	FillingsUpdate:  mu: +0.535898126  nElectrons: 552.000000
SCF: Cycle: 10   F: -3018.232104190144582   dF: -2.431e+00   |Residual|: 8.988e-01   |deigs|: 1.762e-03  t[s]:   6224.20
	FillingsUpdate:  mu: +0.535364433  nElectrons: 552.000000
SCF: Cycle: 11   F: -3017.091126797904053   dF: +1.141e+00   |Residual|: 1.036e+00   |deigs|: 1.838e-03  t[s]:   6285.44
	FillingsUpdate:  mu: +0.533214333  nElectrons: 552.000000
SCF: Cycle: 12   F: -3020.535333657098363   dF: -3.444e+00   |Residual|: 3.501e-01   |deigs|: 4.728e-03  t[s]:   6354.45
	FillingsUpdate:  mu: +0.533777414  nElectrons: 552.000000
SCF: Cycle: 13   F: -3017.980704801528645   dF: +2.555e+00   |Residual|: 9.057e-01   |deigs|: 2.155e-03  t[s]:   6424.07
	FillingsUpdate:  mu: +0.533590835  nElectrons: 552.000000
SCF: Cycle: 14   F: -3020.768482328308437   dF: -2.788e+00   |Residual|: 1.482e-01   |deigs|: 2.218e-03  t[s]:   6493.09
	FillingsUpdate:  mu: +0.532946761  nElectrons: 552.000000
SCF: Cycle: 15   F: -3019.893162321243835   dF: +8.753e-01   |Residual|: 5.017e-01   |deigs|: 1.018e-03  t[s]:   6561.47
	FillingsUpdate:  mu: +0.532540993  nElectrons: 552.000000
SCF: Cycle: 16   F: -3020.802392362448245   dF: -9.092e-01   |Residual|: 1.064e-01   |deigs|: 1.183e-03  t[s]:   6629.86
	FillingsUpdate:  mu: +0.533022474  nElectrons: 552.000000
SCF: Cycle: 17   F: -3020.755037594062287   dF: +4.735e-02   |Residual|: 1.623e-01   |deigs|: 6.229e-04  t[s]:   6670.62
	FillingsUpdate:  mu: +0.533206685  nElectrons: 552.000000
SCF: Cycle: 18   F: -3020.836968466650887   dF: -8.193e-02   |Residual|: 4.980e-02   |deigs|: 4.491e-04  t[s]:   6708.76
	FillingsUpdate:  mu: +0.533384792  nElectrons: 552.000000
SCF: Cycle: 19   F: -3020.764875806778491   dF: +7.209e-02   |Residual|: 1.570e-01   |deigs|: 3.788e-04  t[s]:   6750.36
	FillingsUpdate:  mu: +0.533217163  nElectrons: 552.000000
SCF: Cycle: 20   F: -3020.821101473866293   dF: -5.623e-02   |Residual|: 8.291e-02   |deigs|: 3.100e-04  t[s]:   6792.53
	FillingsUpdate:  mu: +0.533298499  nElectrons: 552.000000
SCF: Cycle: 21   F: -3020.840850137061352   dF: -1.975e-02   |Residual|: 3.298e-02   |deigs|: 2.634e-04  t[s]:   6834.34
	FillingsUpdate:  mu: +0.533214697  nElectrons: 552.000000
SCF: Cycle: 22   F: -3020.835842687533386   dF: +5.007e-03   |Residual|: 5.208e-02   |deigs|: 2.313e-04  t[s]:   6876.95
	FillingsUpdate:  mu: +0.533172089  nElectrons: 552.000000
SCF: Cycle: 23   F: -3020.843260698044560   dF: -7.418e-03   |Residual|: 2.079e-02   |deigs|: 1.991e-04  t[s]:   6920.11
	FillingsUpdate:  mu: +0.533111228  nElectrons: 552.000000
SCF: Cycle: 24   F: -3020.842393403302140   dF: +8.673e-04   |Residual|: 2.823e-02   |deigs|: 1.356e-04  t[s]:   6960.27
	FillingsUpdate:  mu: +0.533113408  nElectrons: 552.000000
SCF: Cycle: 25   F: -3020.838391201720697   dF: +4.002e-03   |Residual|: 4.222e-02   |deigs|: 1.519e-04  t[s]:   7001.48
	FillingsUpdate:  mu: +0.533148950  nElectrons: 552.000000
SCF: Cycle: 26   F: -3020.842225007291290   dF: -3.834e-03   |Residual|: 2.693e-02   |deigs|: 1.370e-04  t[s]:   7041.98
	FillingsUpdate:  mu: +0.533195515  nElectrons: 552.000000
SCF: Cycle: 27   F: -3020.842486760310294   dF: -2.618e-04   |Residual|: 2.634e-02   |deigs|: 1.177e-04  t[s]:   7085.24
	FillingsUpdate:  mu: +0.533204206  nElectrons: 552.000000
SCF: Cycle: 28   F: -3020.844195381644568   dF: -1.709e-03   |Residual|: 1.454e-02   |deigs|: 1.076e-04  t[s]:   7128.58
	FillingsUpdate:  mu: +0.533213428  nElectrons: 552.000000
SCF: Cycle: 29   F: -3020.844612365394369   dF: -4.170e-04   |Residual|: 9.185e-03   |deigs|: 7.542e-05  t[s]:   7167.08
	FillingsUpdate:  mu: +0.533206674  nElectrons: 552.000000
SCF: Cycle: 30   F: -3020.844800519735145   dF: -1.882e-04   |Residual|: 6.475e-03   |deigs|: 4.134e-05  t[s]:   7207.95
	FillingsUpdate:  mu: +0.533189453  nElectrons: 552.000000
SCF: Cycle: 31   F: -3020.844772376428864   dF: +2.814e-05   |Residual|: 6.609e-03   |deigs|: 3.259e-05  t[s]:   7247.99
	FillingsUpdate:  mu: +0.533189560  nElectrons: 552.000000
SCF: Cycle: 32   F: -3020.844773820343107   dF: -1.444e-06   |Residual|: 6.467e-03   |deigs|: 3.598e-05  t[s]:   7291.49
	FillingsUpdate:  mu: +0.533175394  nElectrons: 552.000000
SCF: Cycle: 33   F: -3020.844882368871367   dF: -1.085e-04   |Residual|: 3.767e-03   |deigs|: 3.008e-05  t[s]:   7332.82
	FillingsUpdate:  mu: +0.533183924  nElectrons: 552.000000
SCF: Cycle: 34   F: -3020.844875857252646   dF: +6.512e-06   |Residual|: 4.021e-03   |deigs|: 2.548e-05  t[s]:   7374.90
	FillingsUpdate:  mu: +0.533191146  nElectrons: 552.000000
SCF: Cycle: 35   F: -3020.844790260320224   dF: +8.560e-05   |Residual|: 6.644e-03   |deigs|: 3.126e-05  t[s]:   7416.37
	FillingsUpdate:  mu: +0.533194586  nElectrons: 552.000000
SCF: Cycle: 36   F: -3020.844916946199646   dF: -1.267e-04   |Residual|: 2.060e-03   |deigs|: 2.602e-05  t[s]:   7460.19
	FillingsUpdate:  mu: +0.533196874  nElectrons: 552.000000
SCF: Cycle: 37   F: -3020.844923395971364   dF: -6.450e-06   |Residual|: 1.597e-03   |deigs|: 9.934e-06  t[s]:   7502.27
	FillingsUpdate:  mu: +0.533191702  nElectrons: 552.000000
SCF: Cycle: 38   F: -3020.844874568485466   dF: +4.883e-05   |Residual|: 3.994e-03   |deigs|: 1.577e-05  t[s]:   7545.44
	FillingsUpdate:  mu: +0.533189699  nElectrons: 552.000000
SCF: Cycle: 39   F: -3020.844918936938484   dF: -4.437e-05   |Residual|: 1.927e-03   |deigs|: 1.512e-05  t[s]:   7587.05
	FillingsUpdate:  mu: +0.533182714  nElectrons: 552.000000
SCF: Cycle: 40   F: -3020.844841808139790   dF: +7.713e-05   |Residual|: 4.739e-03   |deigs|: 2.230e-05  t[s]:   7627.23
	FillingsUpdate:  mu: +0.533185321  nElectrons: 552.000000
SCF: Cycle: 41   F: -3020.844914232104657   dF: -7.242e-05   |Residual|: 2.319e-03   |deigs|: 2.047e-05  t[s]:   7669.09
	FillingsUpdate:  mu: +0.533183802  nElectrons: 552.000000
SCF: Cycle: 42   F: -3020.844929474802484   dF: -1.524e-05   |Residual|: 7.370e-04   |deigs|: 8.226e-06  t[s]:   7710.05
	FillingsUpdate:  mu: +0.533189066  nElectrons: 552.000000
SCF: Cycle: 43   F: -3020.844925389143555   dF: +4.086e-06   |Residual|: 1.189e-03   |deigs|: 6.434e-06  t[s]:   7747.40
	FillingsUpdate:  mu: +0.533191797  nElectrons: 552.000000
SCF: Cycle: 44   F: -3020.844930379488687   dF: -4.990e-06   |Residual|: 5.541e-04   |deigs|: 5.166e-06  t[s]:   7789.89
	FillingsUpdate:  mu: +0.533190789  nElectrons: 552.000000
SCF: Cycle: 45   F: -3020.844930473583190   dF: -9.409e-08   |Residual|: 5.031e-04   |deigs|: 3.578e-06  t[s]:   7827.70
	FillingsUpdate:  mu: +0.533189118  nElectrons: 552.000000
SCF: Cycle: 46   F: -3020.844930007964649   dF: +4.656e-07   |Residual|: 6.407e-04   |deigs|: 3.488e-06  t[s]:   7869.96
	FillingsUpdate:  mu: +0.533188287  nElectrons: 552.000000
SCF: Cycle: 47   F: -3020.844931150533739   dF: -1.143e-06   |Residual|: 3.014e-04   |deigs|: 2.858e-06  t[s]:   7909.19
	FillingsUpdate:  mu: +0.533188418  nElectrons: 552.000000
SCF: Cycle: 48   F: -3020.844931141374673   dF: +9.159e-09   |Residual|: 2.936e-04   |deigs|: 1.776e-06  t[s]:   7946.16
	FillingsUpdate:  mu: +0.533188788  nElectrons: 552.000000
SCF: Cycle: 49   F: -3020.844931217979592   dF: -7.660e-08   |Residual|: 2.466e-04   |deigs|: 1.686e-06  t[s]:   7986.14
Setting wave functions to eigenvectors of Hamiltonian

# Ionic positions in lattice coordinates:
ion Mn   0.372551569541724   0.197031129070085   0.622860850103955 1
ion Mn   0.235539286326792   0.008879472272505  -0.003017684389170 1
ion Mn   0.005623516536961   0.004850568734031  -0.008903820265126 1
ion Mn   0.255442072836241   0.258560282197015  -0.003285558677674 1
ion Mn   0.130389433883141   0.319050567263955   0.368849201716226 1
ion Mn  -0.011297515050119  -0.000356033510129   0.486943134609677 1
ion Mn   0.373220734116260   0.690905501342226   0.613960629590445 1
ion Mn   0.260707636923695   0.504420934617362   0.021805154039078 1
ion Mn  -0.012344209686423   0.494948955013691  -0.005860801514788 1
ion Mn   0.241245150995976   0.761107931653291  -0.002295478641373 1
ion Mn   0.121137727678654   0.810363993244153   0.370321700341355 1
ion Mn  -0.014372779027655   0.499605023634272   0.499277125072896 1
ion Mn   0.879854547575462   0.188931692536257   0.629048209449099 1
ion Mn   0.757270835788000   0.005442047726444  -0.010526527063627 1
ion Mn   0.499953869971996   0.009042323816831  -0.006357466009993 1
ion Mn   0.744673092270361   0.248721616779074  -0.013712935974510 1
ion Mn   0.636393569695295   0.317341384181894   0.365119753870681 1
ion Mn   0.506005241532219   0.004437684019466   0.493759855031156 1
ion Mn   0.881381369947615   0.689661077647303   0.615099107872818 1
ion Mn   0.757434725045538   0.499553491034953   0.992140801601381 1
ion Mn   0.496621999780561   0.505604721912574   0.002794173935214 1
ion Mn   0.750843346920002   0.759481796322476   0.002774929159161 1
ion Mn   0.625292036851481   0.807326435305782   0.380572687166993 1
ion Mn   0.492324490493234   0.499636522755867   0.502296707606236 1
ion O   0.251864333660001   0.116993463149421   0.253120058890973 1
ion O   0.500905168640766   0.128714426501377   0.726837636861119 1
ion O   0.237479624322218   0.352845200296466   0.220714707193022 1
ion O   0.015539821310476   0.391259080439381   0.254136004655844 1
ion O   0.248377383665830   0.387973997108238   0.749034794275454 1
ion O   0.503657214899683   0.394299342015156   0.756836419730725 1
ion O   0.253329877518222   0.139057668036291   0.761564831300123 1
ion O   0.007351120067167   0.114944022880025   0.234393744648544 1
ion O   0.267970812449546   0.627823516144321   0.242101214965451 1
ion O   0.504610797804134   0.621522850523627   0.723653836674659 1
ion O   0.240230519619673   0.867476144524075   0.244059637134527 1
ion O  -0.006388257531931   0.881471584614878   0.273389027213831 1
ion O   0.237127136211001   0.881488605947998   0.760184726165211 1
ion O   0.517055071866691   0.877166449721163   0.782028174243156 1
ion O   0.245734194953888   0.646226689339969   0.763850576629812 1
ion O   0.001319543078603   0.612198224414337   0.237106826220875 1
ion O   0.762556428711688   0.112747015197781   0.249427487867726 1
ion O   0.989671632470586   0.107267900204896   0.725713164642743 1
ion O   0.763292969094732   0.357375296613029   0.250434408919441 1
ion O   0.499331946761348   0.391949325052528   0.274682254529703 1
ion O   0.743230812590260   0.366919099991934   0.746379322204253 1
ion O   1.010358751224915   0.372494356951554   0.782875889217834 1
ion O   0.758175884891673   0.143562373007440   0.761181781466399 1
ion O   0.501500873440293   0.117130691086506   0.238447728845801 1
ion O   0.739555286179965   0.615404648360557   0.235710939419880 1
ion O   1.001689113347956   0.617587921758949   0.742098302485682 1
ion O   0.728480819084582   0.865683326083923   0.223020049320286 1
ion O   0.489684161735405   0.875060588584728   0.261907003911005 1
ion O   0.766627818109098   0.892037581922466   0.750654548900301 1
ion O   0.996708937855126   0.874590897456505   0.764480929545714 1
ion O   0.752033262872353   0.640067386343475   0.768890214934075 1
ion O   0.497565188147038   0.624381206155630   0.234510008355720 1

# Forces in Lattice coordinates:
force Mn   0.179397480217371  -0.054246863968118   0.100653684489108 1
force Mn   0.817996721472956  -0.720688724033969  -0.319060382950170 1
force Mn   0.301909448239454  -0.375493438083743   0.020163696130293 1
force Mn   0.181668534319315  -0.302193021502782  -0.100559642144967 1
force Mn  -0.286405331895985  -0.494871575501958   0.243041374777745 1
force Mn   0.223394406721925  -0.269100676396884  -0.059932022236376 1
force Mn  -0.418628179317256  -0.170405803249130   0.340841772965925 1
force Mn   0.127604451764717  -0.220429336130010  -0.225100336558034 1
force Mn   0.685932069482127  -0.418321337109723  -0.374075824546073 1
force Mn   0.663416200554579  -0.448005896621297  -0.104246877174401 1
force Mn  -0.729167571414685   0.092103563102842   0.374808923234967 1
force Mn   1.194900608928278  -0.619373448355415  -0.290194548472027 1
force Mn   0.038644991212506  -0.206809912492709  -0.156773660522363 1
force Mn  -0.001151762381250  -0.344406834091049   0.130797644269418 1
force Mn   0.518507029690831  -0.563683546512991  -0.189927303608662 1
force Mn   0.264618172994386  -0.351803660960982  -0.101115609052731 1
force Mn  -0.815034422201458   0.369989207478557   0.131270728031735 1
force Mn  -0.332311939702151   0.144362768988035   0.272815879221896 1
force Mn  -0.702316219345805  -0.062285006028715   0.255115120066966 1
force Mn  -0.179376202849848   0.154862255661769   0.039918030146053 1
force Mn   0.167470354785073  -0.220332060686221  -0.068423037088469 1
force Mn   0.056330827648832  -0.007634040031148  -0.015314517847547 1
force Mn  -0.758210137740908   1.047935294006496   0.027984587432626 1
force Mn   0.512824306086426  -0.173732665866020  -0.362142386336689 1
force O  -0.540832298226606   0.705803934077202   0.016412037332139 1
force O   0.169043534623475  -0.397004494278627   0.164044260787424 1
force O   0.282052438118864   0.609125018799133  -0.117171736818767 1
force O  -0.828780188896726   0.427922558537035   0.179183670354644 1
force O   0.209956356159597  -0.314898412135755   0.144721947010000 1
force O   0.281294631559133  -0.246349341085907   0.045894721523064 1
force O  -0.302932087439055  -0.235291276419456   0.116330756686404 1
force O  -0.584949397501617   0.473060363070945   0.216038431169353 1
force O  -0.662816838384025   0.450309081293250  -0.015317686857980 1
force O  -0.744617038740359   0.699497890632658   0.460693381242582 1
force O   0.558741344895848   0.341236230761085  -0.281851798102054 1
force O   0.427214438551532  -0.246874697148181  -0.307435965044319 1
force O   0.287592444230898   0.031132834847050   0.012344050886002 1
force O  -0.247498308199261   0.890886340928301  -0.119220025415968 1
force O   0.298098000584465  -0.577657041743716  -0.075576136780873 1
force O  -0.628725498611003   0.486094432424067   0.279533841400347 1
force O  -0.556808977005622   0.603596390146905  -0.094798043004411 1
force O   0.136865150028652   0.280809479153243   0.133304688740377 1
force O  -0.274082247167885   0.466452814676621  -0.012565033140759 1
force O   0.633909563828801  -0.591210763307530  -0.322393366032605 1
force O   0.004441054749193   0.159237850096630   0.099169350801542 1
force O  -0.064333336949007   1.058573589543889  -0.073897030078715 1
force O  -0.110978151156777  -0.633782517897263   0.078337710195502 1
force O  -0.466704619742884   0.299479346746917   0.123312517436685 1
force O   0.075627327555204   0.125793853981231  -0.311172629447392 1
force O  -0.230164507544726   0.098477800162774   0.331383169733415 1
force O   0.902310921701379  -0.021136391732875  -0.307073619082570 1
force O   0.318019641869736  -0.005013554561939  -0.254655229587658 1
force O  -0.154495062114522  -0.157235042648290   0.373835936341977 1
force O   0.105897087389996   0.476635584588395  -0.153637226426301 1
force O   0.202845724490824  -0.478521774582499  -0.038027943056496 1
force O  -0.123104438588468  -0.693325745182698   0.126094533549987 1

# Energy components:
   Eewald =    -2092.3979751445913280
       EH =      839.5277710329652336
     Eloc =    -2606.6836529520242038
      Enl =      496.0466713373002676
      Exc =     -430.7499103497834199
 Exc_core =       28.0813183378080247
       KE =      745.9344050651153566
-------------------------------------
     Etot =    -3020.2413726732102077
       TS =        0.6031406792766285
-------------------------------------
        F =    -3020.8445133524869561

IonicMinimize: Iter:   2  F: -3020.844513352486956  |grad|_K:  1.939e-02  alpha:  5.243e-01  linmin: -9.852e-01  t[s]:   8001.71

#--- Lowdin population analysis ---
# oxidation-state Mn +0.295 +0.237 +0.235 +0.253 +0.282 +0.263 +0.306 +0.236 +0.241 +0.239 +0.296 +0.248 +0.294 +0.231 +0.292 +0.229 +0.287 +0.263 +0.286 +0.269 +0.254 +0.255 +0.308 +0.254
# oxidation-state O -0.141 -0.183 -0.137 -0.188 -0.185 -0.188 -0.176 -0.188 -0.181 -0.177 -0.170 -0.194 -0.200 -0.183 -0.244 -0.151 -0.197 -0.152 -0.129 -0.203 -0.140 -0.194 -0.168 -0.172 -0.203 -0.148 -0.156 -0.193 -0.172 -0.148 -0.215 -0.141


-------- Electronic minimization -----------
Will mix electronic density at each iteration.
	FillingsUpdate:  mu: +0.533188788  nElectrons: 552.000000
	FillingsUpdate:  mu: +0.530974526  nElectrons: 552.000000
SCF: Cycle:  0   F: -2976.316367111116506   dF: +4.090e+01   |Residual|: 3.372e+00   |deigs|: 7.308e-03  t[s]:   8100.19
	FillingsUpdate:  mu: +0.531510154  nElectrons: 552.000000
SCF: Cycle:  1   F: -2822.353292436731863   dF: +1.540e+02   |Residual|: 8.764e+00   |deigs|: 1.800e-01  t[s]:   8161.89
	FillingsUpdate:  mu: +0.524365437  nElectrons: 552.000000
SCF: Cycle:  2   F: -2880.070007795919992   dF: -5.772e+01   |Residual|: 6.081e+00   |deigs|: 1.324e-01  t[s]:   8230.70
	FillingsUpdate:  mu: +0.532620110  nElectrons: 552.000000
SCF: Cycle:  3   F: -2965.890397947485326   dF: -8.582e+01   |Residual|: 3.907e+00   |deigs|: 3.792e-02  t[s]:   8299.88
	FillingsUpdate:  mu: +0.538343619  nElectrons: 552.000000
SCF: Cycle:  4   F: -2982.668018428998039   dF: -1.678e+01   |Residual|: 3.373e+00   |deigs|: 2.557e-02  t[s]:   8359.46
	FillingsUpdate:  mu: +0.539283294  nElectrons: 552.000000
SCF: Cycle:  5   F: -3004.326855825677740   dF: -2.166e+01   |Residual|: 2.279e+00   |deigs|: 1.472e-02  t[s]:   8425.79
	FillingsUpdate:  mu: +0.534708504  nElectrons: 552.000000
SCF: Cycle:  6   F: -2979.670139092036607   dF: +2.466e+01   |Residual|: 3.201e+00   |deigs|: 1.294e-02  t[s]:   8491.62
	FillingsUpdate:  mu: +0.533376321  nElectrons: 552.000000
SCF: Cycle:  7   F: -3002.873536570612941   dF: -2.320e+01   |Residual|: 2.373e+00   |deigs|: 9.333e-03  t[s]:   8559.76
	FillingsUpdate:  mu: +0.534913190  nElectrons: 552.000000
SCF: Cycle:  8   F: -3012.949072938436984   dF: -1.008e+01   |Residual|: 1.510e+00   |deigs|: 5.854e-03  t[s]:   8621.36
	FillingsUpdate:  mu: +0.535336656  nElectrons: 552.000000
SCF: Cycle:  9   F: -3009.258150108872087   dF: +3.691e+00   |Residual|: 1.814e+00   |deigs|: 3.479e-03  t[s]:   8688.78
	FillingsUpdate:  mu: +0.534342470  nElectrons: 552.000000
SCF: Cycle: 10   F: -3017.808108525968692   dF: -8.550e+00   |Residual|: 1.005e+00   |deigs|: 5.373e-03  t[s]:   8756.86
	FillingsUpdate:  mu: +0.534157657  nElectrons: 552.000000
SCF: Cycle: 11   F: -3018.958530532171608   dF: -1.150e+00   |Residual|: 7.900e-01   |deigs|: 1.579e-03  t[s]:   8822.04
	FillingsUpdate:  mu: +0.533559602  nElectrons: 552.000000
SCF: Cycle: 12   F: -3020.526695128301071   dF: -1.568e+00   |Residual|: 3.772e-01   |deigs|: 2.692e-03  t[s]:   8888.67
	FillingsUpdate:  mu: +0.533371202  nElectrons: 552.000000
SCF: Cycle: 13   F: -3020.678919043134556   dF: -1.522e-01   |Residual|: 3.216e-01   |deigs|: 8.633e-04  t[s]:   8959.87
	FillingsUpdate:  mu: +0.533255625  nElectrons: 552.000000
SCF: Cycle: 14   F: -3020.544839698865417   dF: +1.341e-01   |Residual|: 3.489e-01   |deigs|: 7.140e-04  t[s]:   9020.36
	FillingsUpdate:  mu: +0.533011504  nElectrons: 552.000000
SCF: Cycle: 15   F: -3019.865630638803395   dF: +6.792e-01   |Residual|: 5.160e-01   |deigs|: 1.442e-03  t[s]:   9084.49
	FillingsUpdate:  mu: +0.532604371  nElectrons: 552.000000
SCF: Cycle: 16   F: -3018.311686258581176   dF: +1.554e+00   |Residual|: 8.720e-01   |deigs|: 1.675e-03  t[s]:   9145.18
	FillingsUpdate:  mu: +0.532734769  nElectrons: 552.000000
SCF: Cycle: 17   F: -3019.507201147353044   dF: -1.196e+00   |Residual|: 5.985e-01   |deigs|: 1.806e-03  t[s]:   9214.94
	FillingsUpdate:  mu: +0.533138745  nElectrons: 552.000000
SCF: Cycle: 18   F: -3018.744839513602983   dF: +7.624e-01   |Residual|: 7.740e-01   |deigs|: 1.644e-03  t[s]:   9282.17
	FillingsUpdate:  mu: +0.532846633  nElectrons: 552.000000
SCF: Cycle: 19   F: -3020.762664992329064   dF: -2.018e+00   |Residual|: 2.165e-01   |deigs|: 2.259e-03  t[s]:   9344.57
	FillingsUpdate:  mu: +0.532966589  nElectrons: 552.000000
SCF: Cycle: 20   F: -3019.615052083217051   dF: +1.148e+00   |Residual|: 6.275e-01   |deigs|: 1.250e-03  t[s]:   9407.89
	FillingsUpdate:  mu: +0.532849090  nElectrons: 552.000000
SCF: Cycle: 21   F: -3020.699752783108579   dF: -1.085e+00   |Residual|: 2.499e-01   |deigs|: 1.507e-03  t[s]:   9476.46
	FillingsUpdate:  mu: +0.533084649  nElectrons: 552.000000
SCF: Cycle: 22   F: -3019.932962744581801   dF: +7.668e-01   |Residual|: 4.882e-01   |deigs|: 7.165e-04  t[s]:   9541.92
	FillingsUpdate:  mu: +0.533030921  nElectrons: 552.000000
SCF: Cycle: 23   F: -3020.800978559935174   dF: -8.680e-01   |Residual|: 1.989e-01   |deigs|: 8.487e-04  t[s]:   9608.37
	FillingsUpdate:  mu: +0.533104722  nElectrons: 552.000000
SCF: Cycle: 24   F: -3020.797608509070869   dF: +3.370e-03   |Residual|: 1.947e-01   |deigs|: 6.958e-04  t[s]:   9673.49
	FillingsUpdate:  mu: +0.533056729  nElectrons: 552.000000
SCF: Cycle: 25   F: -3020.888864350276435   dF: -9.126e-02   |Residual|: 1.169e-01   |deigs|: 5.962e-04  t[s]:   9712.25
	FillingsUpdate:  mu: +0.533042162  nElectrons: 552.000000
SCF: Cycle: 26   F: -3020.878711895143624   dF: +1.015e-02   |Residual|: 1.143e-01   |deigs|: 4.028e-04  t[s]:   9754.36
	FillingsUpdate:  mu: +0.533008058  nElectrons: 552.000000
SCF: Cycle: 27   F: -3020.860023775863738   dF: +1.869e-02   |Residual|: 1.474e-01   |deigs|: 3.139e-04  t[s]:   9795.97
	FillingsUpdate:  mu: +0.532969068  nElectrons: 552.000000
SCF: Cycle: 28   F: -3020.764287520992639   dF: +9.574e-02   |Residual|: 2.099e-01   |deigs|: 3.354e-04  t[s]:   9852.12
	FillingsUpdate:  mu: +0.532978276  nElectrons: 552.000000
[...]
ion O   0.516356697268516   0.130281836571840   0.758855048616753 1
ion O   0.256135638786155   0.381158078432178   0.231181574016735 1
ion O   0.002209749713337   0.383843917983590   0.273177594054694 1
ion O   0.256721272595097   0.378997967059844   0.778704121311395 1
ion O   0.516714040283878   0.390812372180473   0.759764795040993 1
ion O   0.222291360057170   0.112368069093223   0.730680107118776 1
ion O   0.002128213134392   0.121045164191840   0.227137260955487 1
ion O   0.221225127939430   0.611939815711846   0.210944781288192 1
ion O   0.516387458848571   0.630607189765302   0.769470830037289 1
ion O   0.254324844731774   0.877423074592728   0.230744665649700 1
ion O   0.002002483440797   0.884655002084992   0.226867420163722 1
ion O   0.255430784651259   0.880115692584652   0.778117226090056 1
ion O   0.516477516142167   0.890273962441854   0.769943465396981 1
ion O   0.258232368994153   0.630887843509530   0.749643215515402 1
ion O   0.001551072846400   0.620258506205755   0.272706263154353 1
ion O   0.745910580280543   0.125474304386424   0.217483564780886 1
ion O   1.000081560410931   0.121282956003808   0.725309235577410 1
ion O   0.775600585941171   0.389044031103664   0.265776554815661 1
ion O   0.487631576412536   0.380605972840344   0.240732362965277 1
ion O   0.740732504370351   0.371434138115357   0.727814140043372 1
ion O   0.998674881907497   0.381411524165428   0.769173365522508 1
ion O   0.745031293349147   0.122136200854664   0.767309647278641 1
ion O   0.485790283869772   0.110460895581283   0.239468623249802 1
ion O   0.746615126365011   0.623340593894215   0.218522946377364 1
ion O   0.998763941321967   0.620114829237894   0.770305817539284 1
ion O   0.741613348022232   0.872214272640981   0.249083557173810 1
ion O   0.486222591733153   0.879652780376565   0.228985362497666 1
ion O   0.775657431987391   0.888877298137730   0.779555552074019 1
ion O   0.999136832040363   0.882002692600662   0.724638498615338 1
ion O   0.746385315561610   0.625796690954491   0.769621078857123 1
ion O   0.485848009193971   0.610944830165202   0.229523006140497 1

# Forces in Lattice coordinates:
force Mn  -0.005994126691439   0.011406858530512   0.000097680954366 1
force Mn   0.003082133968703  -0.000194238809015   0.002854564583035 1
force Mn  -0.008017722364746   0.004388767775674   0.004472422053578 1
force Mn  -0.005685669379608   0.003836730046466   0.001469032853841 1
force Mn  -0.007914077954555   0.011580220489422   0.000129307839350 1
force Mn  -0.005591768541772   0.006276883096364  -0.000313093750596 1
force Mn  -0.000642057970413  -0.004168688612025   0.000255337665832 1
force Mn   0.006228926536608  -0.002201191876658  -0.001877784785769 1
force Mn  -0.001047845469405   0.003538854550325  -0.001341673782743 1
force Mn  -0.005382035279512  -0.000242360337567   0.000962007501355 1
force Mn  -0.002630970679609   0.002265421866800  -0.000952689093520 1
force Mn  -0.003291698819873   0.000965615905134  -0.001084140326741 1
force Mn  -0.002981600128319   0.010061317479045   0.003028699393435 1
force Mn  -0.003644101288500   0.003763527767823   0.001402193330923 1
force Mn  -0.001499839681181   0.004287195858985  -0.000892987160513 1
force Mn  -0.001687166879187  -0.002811822955785  -0.001316586923753 1
force Mn  -0.005902346316291   0.027321882430347  -0.002549592622403 1
force Mn  -0.001358816125213   0.003905481325821  -0.001204286722269 1
force Mn  -0.000983546547608   0.004974066095668  -0.001150995024093 1
force Mn  -0.007864203563599   0.008339567487476  -0.002503657351823 1
force Mn  -0.000890592926860  -0.000555220770877  -0.002239355489030 1
force Mn  -0.007455797526344  -0.001334740224586   0.001447362358951 1
force Mn  -0.008649463616881  -0.002469986834084  -0.002273236817913 1
force Mn  -0.006331279277069   0.004183046476322   0.001834721409046 1
force O  -0.005702093747794   0.005799103470481  -0.001458930261263 1
force O   0.005101416555043  -0.006013899615152   0.000109885599829 1
force O  -0.004660417433546  -0.000256542241207   0.000281340653249 1
force O   0.001284558233207  -0.001533539552555  -0.002344319748257 1
force O  -0.006325178156094   0.002797966795043  -0.001770488668360 1
force O   0.000592401054188  -0.007140658204837   0.000736766769983 1
force O  -0.000684526512563   0.006402546622829  -0.004432167846068 1
force O  -0.005256587792055  -0.007224526733008   0.001812290582374 1
force O  -0.003251540996936   0.003315120611541   0.000273257328915 1
force O  -0.003579866004484   0.002956051943492  -0.000314215797850 1
force O  -0.004908623098568   0.008487312157157   0.000337933308437 1
force O  -0.008073795141683   0.007646339509538   0.002099686852676 1
force O  -0.005100828456778   0.005609394078520   0.000896081448272 1
force O  -0.003505701743605   0.002996458921267  -0.000176658527739 1
force O   0.003728318421913   0.000492648288210  -0.003776159288361 1
force O   0.000024398495966   0.000240436707251  -0.000884268593902 1
force O  -0.003146829289656   0.003942378180922  -0.003465141801467 1
force O  -0.010175126462654   0.009538670894441   0.001605393816703 1
force O  -0.015007834949657  -0.000935046574432   0.004911107051691 1
force O   0.004198951129349  -0.006692226272934  -0.001209652301735 1
force O  -0.002884227844740   0.001537898496990  -0.001926645038541 1
force O  -0.001934144446275  -0.001350774103037  -0.001107892033895 1
force O  -0.003971991785551   0.004161031375353   0.001957226627484 1
force O  -0.004169259037594  -0.017426044101360   0.002187964969874 1
force O  -0.005122560270877   0.004832847090905  -0.000977665266325 1
force O   0.004402600920409  -0.002376541259506  -0.003097971926639 1
force O  -0.003158691533386   0.006788775517005   0.000028481175793 1
force O  -0.002767693479458   0.001566358375231  -0.000586276413149 1
force O  -0.004433567825444   0.008633046384773   0.003157961391722 1
force O  -0.004526551622168  -0.000249864602963   0.000065121274945 1
force O  -0.002405229903478   0.002733378506345  -0.001363619243542 1
force O  -0.001562579053003   0.009207889608839   0.001597213838106 1

# Energy components:
   Eewald =    -2091.1857771670602233
       EH =      840.7484685844218575
     Eloc =    -2608.1797180151088469
      Enl =      495.6727658459468557
      Exc =     -430.4411433149352888
 Exc_core =       28.0806672362140048
       KE =      744.8346234750877102
-------------------------------------
     Etot =    -3020.4701133554335684
       TS =        0.6067614988980958
-------------------------------------
        F =    -3021.0768748543318907

IonicMinimize: Iter:  35  F: -3021.076874854331891  |grad|_K:  2.414e-04  alpha:  1.000e+00  linmin:  2.165e-01  t[s]:  86409.74

#--- Lowdin population analysis ---
# oxidation-state Mn +0.278 +0.255 +0.249 +0.257 +0.335 +0.247 +0.283 +0.254 +0.248 +0.256 +0.335 +0.249 +0.339 +0.253 +0.269 +0.255 +0.284 +0.268 +0.339 +0.254 +0.269 +0.254 +0.288 +0.268
# oxidation-state O -0.157 -0.181 -0.201 -0.177 -0.200 -0.184 -0.185 -0.175 -0.184 -0.184 -0.200 -0.177 -0.201 -0.184 -0.155 -0.175 -0.203 -0.176 -0.185 -0.192 -0.152 -0.176 -0.205 -0.191 -0.203 -0.175 -0.152 -0.195 -0.185 -0.176 -0.204 -0.193


-------- Electronic minimization -----------
Will mix electronic density at each iteration.
	FillingsUpdate:  mu: +0.530162041  nElectrons: 552.000000
	FillingsUpdate:  mu: +0.530170249  nElectrons: 552.000000
SCF: Cycle:  0   F: -3021.075988859633981   dF: +8.864e-04   |Residual|: 1.223e-02   |deigs|: 1.592e-07  t[s]:  86481.59
	FillingsUpdate:  mu: +0.530186714  nElectrons: 552.000000
SCF: Cycle:  1   F: -3020.939290545348740   dF: +1.367e-01   |Residual|: 1.620e-01   |deigs|: 3.946e-04  t[s]:  86522.57
	FillingsUpdate:  mu: +0.530164801  nElectrons: 552.000000
SCF: Cycle:  2   F: -3021.076459337605229   dF: -1.372e-01   |Residual|: 1.037e-02   |deigs|: 3.918e-04  t[s]:  86565.37
	FillingsUpdate:  mu: +0.530164755  nElectrons: 552.000000
SCF: Cycle:  3   F: -3021.076810275168555   dF: -3.509e-04   |Residual|: 4.561e-03   |deigs|: 3.062e-05  t[s]:  86607.85
	FillingsUpdate:  mu: +0.530172833  nElectrons: 552.000000
SCF: Cycle:  4   F: -3021.076847339228152   dF: -3.706e-05   |Residual|: 3.696e-03   |deigs|: 1.867e-05  t[s]:  86649.52
	FillingsUpdate:  mu: +0.530171194  nElectrons: 552.000000
SCF: Cycle:  5   F: -3021.076886621209724   dF: -3.928e-05   |Residual|: 1.472e-03   |deigs|: 1.326e-05  t[s]:  86692.44
	FillingsUpdate:  mu: +0.530165505  nElectrons: 552.000000
SCF: Cycle:  6   F: -3021.076866850402894   dF: +1.977e-05   |Residual|: 2.742e-03   |deigs|: 1.114e-05  t[s]:  86737.07
	FillingsUpdate:  mu: +0.530165090  nElectrons: 552.000000
SCF: Cycle:  7   F: -3021.076893004483736   dF: -2.615e-05   |Residual|: 3.771e-04   |deigs|: 8.123e-06  t[s]:  86778.81
	FillingsUpdate:  mu: +0.530168374  nElectrons: 552.000000
SCF: Cycle:  8   F: -3021.076888201653674   dF: +4.803e-06   |Residual|: 1.238e-03   |deigs|: 5.339e-06  t[s]:  86819.25
	FillingsUpdate:  mu: +0.530170144  nElectrons: 552.000000
SCF: Cycle:  9   F: -3021.076893244693565   dF: -5.043e-06   |Residual|: 2.663e-04   |deigs|: 4.121e-06  t[s]:  86861.00
	FillingsUpdate:  mu: +0.530168858  nElectrons: 552.000000
SCF: Cycle: 10   F: -3021.076892468178357   dF: +7.765e-07   |Residual|: 5.160e-04   |deigs|: 2.143e-06  t[s]:  86899.88
	FillingsUpdate:  mu: +0.530167594  nElectrons: 552.000000
SCF: Cycle: 11   F: -3021.076893464641671   dF: -9.965e-07   |Residual|: 1.463e-04   |deigs|: 1.941e-06  t[s]:  86940.57
	FillingsUpdate:  mu: +0.530167354  nElectrons: 552.000000
SCF: Cycle: 12   F: -3021.076892463323020   dF: +1.001e-06   |Residual|: 5.458e-04   |deigs|: 2.051e-06  t[s]:  86981.59
	FillingsUpdate:  mu: +0.530168155  nElectrons: 552.000000
SCF: Cycle: 13   F: -3021.076893528807886   dF: -1.065e-06   |Residual|: 8.576e-05   |deigs|: 1.803e-06  t[s]:  87021.79
	FillingsUpdate:  mu: +0.530168135  nElectrons: 552.000000
SCF: Cycle: 14   F: -3021.076893547074633   dF: -1.827e-08   |Residual|: 4.083e-05   |deigs|: 3.397e-07  t[s]:  87055.10
	FillingsUpdate:  mu: +0.530168123  nElectrons: 552.000000
SCF: Cycle: 15   F: -3021.076893525923424   dF: +2.115e-08   |Residual|: 8.470e-05   |deigs|: 3.136e-07  t[s]:  87095.64
	FillingsUpdate:  mu: +0.530168022  nElectrons: 552.000000
SCF: Cycle: 16   F: -3021.076893545476196   dF: -1.955e-08   |Residual|: 4.689e-05   |deigs|: 3.221e-07  t[s]:  87135.22
	FillingsUpdate:  mu: +0.530168061  nElectrons: 552.000000
SCF: Cycle: 17   F: -3021.076893549798569   dF: -4.322e-09   |Residual|: 2.748e-05   |deigs|: 1.960e-07  t[s]:  87172.45
	FillingsUpdate:  mu: +0.530168090  nElectrons: 552.000000
SCF: Cycle: 18   F: -3021.076893551966805   dF: -2.168e-09   |Residual|: 1.877e-05   |deigs|: 1.222e-07  t[s]:  87205.13
SCF: Converged (|Delta E|<1.000000e-08 for 2 iters).

Setting wave functions to eigenvectors of Hamiltonian

# Ionic positions in lattice coordinates:
ion Mn   0.382721650968627   0.193989078767608   0.665858261833856 1
ion Mn   0.241387171689861   0.004899414398309  -0.000573253450633 1
ion Mn   0.021362975192433   0.012811109953189  -0.008203493075183 1
ion Mn   0.243608095169447   0.240978783042423   0.000156220035959 1
ion Mn   0.136391147723087   0.318872261705283   0.384802725886382 1
ion Mn  -0.020872521738131  -0.008166878530329   0.451856928566812 1
ion Mn   0.381218545953100   0.693325279858098   0.597982650845366 1
ion Mn   0.241281362217274   0.505147618383570  -0.018927519545059 1
ion Mn  -0.022043547444836   0.490283816091362   0.001629978247756 1
ion Mn   0.241956248459083   0.739708286176304  -0.017020924915838 1
ion Mn   0.134120032713473   0.818239717905120   0.383973038668308 1
ion Mn   0.020502875545648   0.511776096367532   0.546362342195838 1
ion Mn   0.863258759388941   0.183279679617110   0.610870828671305 1
ion Mn   0.759699389562516  -0.003430585463922   0.016128137410243 1
ion Mn   0.500293530234833   0.004180628704983  -0.007245389057406 1
ion Mn   0.759929021119183   0.265132195991559  -0.002425548394647 1
ion Mn   0.612396947140100   0.307430848620577   0.326678312893266 1
ion Mn   0.499058120301382   0.000309914067746   0.502970761837838 1
ion Mn   0.863929905790109   0.683878530466327   0.611814175948112 1
ion Mn   0.759640684544109   0.496512347400366   0.997508347640700 1
ion Mn   0.501440301698228   0.502216368527066  -0.005445802515635 1
ion Mn   0.759934760016984   0.765380389376205   0.016431442010693 1
ion Mn   0.613623520554110   0.808743513641226   0.391053343561412 1
ion Mn   0.500704111659059   0.504031822996692   0.504309734210283 1
ion O   0.259170462511203   0.131536269631395   0.265334432307262 1
ion O   0.516429289181630   0.130262447829571   0.758989855631897 1
ion O   0.256062193640644   0.381077724643883   0.231147742969242 1
ion O   0.002194004354783   0.383806883502835   0.273054695038381 1
ion O   0.256647437348643   0.378981785286630   0.778539887855133 1
ion O   0.516743579988010   0.390772663392494   0.759845514965794 1
ion O   0.222313173733614   0.112427415806082   0.730545290407552 1
ion O   0.002057782680474   0.120916001105952   0.227092167626684 1
ion O   0.221267398470995   0.611943492597835   0.211004056070336 1
ion O   0.516397783327507   0.630595760208572   0.769485127969491 1
ion O   0.254333702709006   0.877504976390335   0.230818335092100 1
ion O   0.001984116405568   0.884668729447239   0.226909415837957 1
ion O   0.255438825299190   0.880142731988038   0.778172560750601 1
ion O   0.516501752410560   0.890295152635902   0.769900861660632 1
ion O   0.258268002188147   0.630869013505100   0.749602021539060 1
ion O   0.001567993364752   0.620210403883304   0.272716203534291 1
ion O   0.745886195197677   0.125476572341179   0.217413847354120 1
ion O   1.000087235526234   0.121356927499970   0.725413224239743 1
ion O   0.775474013317583   0.388927217862921   0.265805905791621 1
ion O   0.487630688111066   0.380557243069958   0.240667967353881 1
ion O   0.740693779179470   0.371397982791646   0.727784807415003 1
ion O   0.998722307171726   0.381402720328667   0.769201045707862 1
ion O   0.745072870757902   0.122175311149927   0.767382632085756 1
ion O   0.485688544503340   0.110294413240935   0.239422979525445 1
ion O   0.746572268388686   0.623350237925193   0.218472536138619 1
ion O   0.998792665358289   0.620090799091861   0.770239033274898 1
ion O   0.741634901522378   0.872280791703111   0.249102181127180 1
ion O   0.486179503195428   0.879638341437735   0.228956578492280 1
ion O   0.775705118860147   0.888970132992981   0.779634838057283 1
ion O   0.999123852290043   0.881978737802106   0.724613919161979 1
ion O   0.746363362362337   0.625777968643392   0.769529872853597 1
ion O   0.485972108184350   0.611052912198845   0.229745162654593 1

# Forces in Lattice coordinates:
force Mn  -0.001877505231840   0.002465722316208  -0.000228318824133 1
force Mn  -0.001062024372114   0.002172591598190   0.000645952782383 1
force Mn  -0.006366583681134   0.004171595535126   0.001898627191757 1
force Mn  -0.005406096549328   0.003621769023582   0.000948406302447 1
force Mn  -0.005943233181002   0.004414664878720  -0.000672836829538 1
force Mn  -0.006100602369762   0.005009871124587   0.001128124506884 1
force Mn  -0.002262824277874   0.000798732328041   0.000068224487121 1
force Mn   0.001503681700525   0.001000482610106  -0.001700358852161 1
force Mn  -0.001245211725959   0.003045113747942  -0.001191282067332 1
force Mn  -0.003043019542043   0.001185666452405  -0.000316544572042 1
force Mn  -0.004294490449161   0.003682003647593  -0.000144361820869 1
force Mn  -0.002426608031178   0.001403000784537  -0.001604332645484 1
force Mn  -0.003238642338504   0.004987942481320   0.000871724923248 1
force Mn  -0.004239999258455   0.002323691432128   0.001277117268025 1
force Mn  -0.002197348823146   0.002217506481181  -0.000563144588931 1
force Mn  -0.002413978377469   0.001609104694174  -0.000537130957024 1
force Mn  -0.005166904259444   0.009467445925477  -0.000582801312841 1
force Mn  -0.000829557844908   0.001391226491953  -0.000397644485957 1
force Mn  -0.001000463687117   0.003489772957079  -0.001072953819014 1
force Mn  -0.005253342600960   0.005829522939771  -0.001527498499782 1
force Mn  -0.001757083240788   0.000146256120027  -0.001447676551183 1
force Mn  -0.005828642369835   0.001763315632607   0.000598390007615 1
force Mn  -0.006545568116414   0.001549571615988   0.000152448231020 1
force Mn  -0.005093646301969   0.002801840956023   0.001711320062719 1
force O  -0.004025644221698   0.004062833460031  -0.000539132469638 1
force O  -0.001816927985561   0.000428547252448  -0.000057076474439 1
force O  -0.002085881115985   0.000371905777275  -0.000678341472800 1
force O  -0.002608854503296   0.001311232363187  -0.001589194124792 1
force O  -0.005330304683596   0.001732350950058  -0.000253639584484 1
force O  -0.000532860349679  -0.001722671664105  -0.000298216326930 1
force O  -0.003101688026407   0.004427627320112  -0.001726644864081 1
force O  -0.005288365530008   0.000626808294044   0.001723619828186 1
force O  -0.002870012674534   0.002530651794158  -0.000347715514292 1
force O  -0.003174248418341   0.002487912204332  -0.000179256958632 1
force O  -0.004116212094403   0.005349137363082   0.000496691073227 1
force O  -0.006570206091202   0.005497289164369   0.001954137071827 1
force O  -0.004152303475844   0.004188161231240  -0.000053733621693 1
force O  -0.003408797564529   0.000710381066529  -0.000084512191918 1
force O  -0.000168463778206   0.000821677213081  -0.001771478513090 1
force O  -0.001834502667002   0.002167440212367  -0.000975283278573 1
force O  -0.003351042359926   0.003543064942395  -0.000612007595506 1
force O  -0.007391742692504   0.005894644216959   0.001197063099832 1
force O  -0.007275777572109   0.000732421969006   0.000743314753506 1
force O  -0.003363550606586   0.000511992898366  -0.000000698613501 1
force O  -0.002421998258932   0.002037675345871  -0.001313089150471 1
force O  -0.001576167677335   0.001734488951256  -0.000914510748127 1
force O  -0.002342194054288   0.002827865239595   0.000905986940312 1
force O  -0.002471507868035  -0.003078268598673   0.000375788694299 1
force O  -0.004218061359737   0.003803730153868  -0.000597273997173 1
force O   0.001797915586355  -0.001050581578055  -0.002463068879244 1
force O  -0.003453479929131   0.004717805072782   0.000291765446542 1
force O  -0.002520378960081   0.001392296701871  -0.000595489405678 1
force O  -0.005200147343190   0.005591570287198   0.001804123311353 1
force O  -0.004485896025038   0.002825635848880   0.000572387529646 1
force O  -0.002380680472003   0.003006634951548  -0.001108835720334 1
force O   0.000269102373611   0.002258208065291   0.000227813655089 1

# Energy components:
   Eewald =    -2091.2006700456377075
       EH =      840.7363622865437947
     Eloc =    -2608.1540172688155508
      Enl =      495.6738435299896537
      Exc =     -430.4415560621889085
 Exc_core =       28.0806719821880435
       KE =      744.8352962364538143
-------------------------------------
     Etot =    -3020.4700693414665693
       TS =        0.6068242105000432
-------------------------------------
        F =    -3021.0768935519668048

IonicMinimize: Iter:  36  F: -3021.076893551966805  |grad|_K:  9.694e-05  alpha:  1.000e+00  linmin: -5.098e-01  t[s]:  87218.60
IonicMinimize: Converged (|grad|_K<1.000000e-04).

#--- Lowdin population analysis ---
# oxidation-state Mn +0.278 +0.255 +0.249 +0.257 +0.335 +0.247 +0.282 +0.254 +0.248 +0.256 +0.335 +0.249 +0.339 +0.253 +0.269 +0.255 +0.284 +0.268 +0.339 +0.254 +0.269 +0.254 +0.288 +0.268
# oxidation-state O -0.157 -0.181 -0.200 -0.177 -0.200 -0.183 -0.185 -0.175 -0.184 -0.183 -0.200 -0.177 -0.201 -0.184 -0.155 -0.175 -0.203 -0.176 -0.185 -0.192 -0.152 -0.176 -0.205 -0.191 -0.203 -0.175 -0.152 -0.195 -0.185 -0.176 -0.204 -0.193


Dumping '/data/rc652/Mn3O4/ion/Mn3O4_ion.Ecomponents' ... done
End date and time: Sat Jul 13 15:35:07 2024  (Duration: 1-0:13:45.38)
Done!
