--------------------------------------------------------------------------
[[31515,1],6]: A high-performance Open MPI point-to-point messaging module
was unable to find any relevant network interfaces:

Module: OpenFabrics (openib)
  Host: node3215

Another transport will be used instead, although this may result in
lower performance.
--------------------------------------------------------------------------

*************** JDFTx 1.7.0 (git hash 3664913) ***************

Start date and time: Fri Jul 12 15:23:16 2024
Executable jdftx with command-line: -i Mn3O4_vac.in
Running on hosts (process indices):  node3215.physics.cornell.edu (0-15)
Divided in process groups (process indices):  0 (0)  1 (1)  2 (2)  3 (3)  4 (4)  5 (5)  6 (6)  7 (7)  8 (8)  9 (9)  10 (10)  11 (11)  12 (12)  13 (13)  14 (14)  15 (15)
Resource initialization completed at t[s]:      0.00
Run totals: 16 processes, 32 threads, 0 GPUs


Input parsed successfully to the following command list (including defaults):

basis kpoint-dependent
coords-type Lattice
core-overlap-check vector
coulomb-interaction Periodic
davidson-band-ratio 1.1
dump End Ecomponents
dump-name /data/rc652/Mn3O4/vac/Mn3O4_vac.$VAR
elec-cutoff 20 100
elec-eigen-algo Davidson
elec-ex-corr gga-PBEsol
elec-smearing Fermi 0.01
electronic-minimize  \
	dirUpdateScheme      FletcherReeves \
	linminMethod         DirUpdateRecommended \
	nIterations          100 \
	history              15 \
	knormThreshold       0 \
	maxThreshold         no \
	energyDiffThreshold  1e-08 \
	nEnergyDiff          2 \
	alphaTstart          1 \
	alphaTmin            1e-10 \
	updateTestStepSize   yes \
	alphaTreduceFactor   0.1 \
	alphaTincreaseFactor 3 \
	nAlphaAdjustMax      3 \
	wolfeEnergy          0.0001 \
	wolfeGradient        0.9 \
	fdTest               no
electronic-scf  \
	nIterations	50 \
	energyDiffThreshold	1e-08 \
	residualThreshold	1e-07 \
	mixFraction	0.5 \
	qMetric	0.8 \
	history	10 \
	nEigSteps	2 \
	eigDiffThreshold	1e-08 \
	mixedVariable	Density \
	qKerker	0.8 \
	qKappa	-1 \
	verbose	no \
	mixFractionMag	1.5
exchange-regularization WignerSeitzTruncated
fluid None
fluid-ex-corr lda-TF lda-PZ
fluid-gummel-loop 10 1.000000e-05
fluid-minimize  \
	dirUpdateScheme      PolakRibiere \
	linminMethod         DirUpdateRecommended \
	nIterations          100 \
	history              15 \
	knormThreshold       0 \
	maxThreshold         no \
	energyDiffThreshold  0 \
	nEnergyDiff          2 \
	alphaTstart          1 \
	alphaTmin            1e-10 \
	updateTestStepSize   yes \
	alphaTreduceFactor   0.1 \
	alphaTincreaseFactor 3 \
	nAlphaAdjustMax      3 \
	wolfeEnergy          0.0001 \
	wolfeGradient        0.9 \
	fdTest               no
fluid-solvent H2O 55.338 ScalarEOS \
	epsBulk 78.4 \
	pMol 0.92466 \
	epsInf 1.77 \
	Pvap 1.06736e-10 \
	sigmaBulk 4.62e-05 \
	Rvdw 2.61727 \
	Res 1.42 \
	tauNuc 343133 \
	poleEl 15 7 1
forces-output-coords Positions
ion Mn   0.389960000000000   0.184260000000000   0.615320000000000 1
ion Mn   0.249780000000000  -0.004440000000000   0.016160000000000 1
ion Mn   0.006380000000000   0.006920000000000  -0.005270000000000 1
ion Mn   0.244570000000000   0.248580000000000  -0.007120000000000 1
ion Mn   0.114180000000000   0.298600000000000   0.379270000000000 1
ion Mn  -0.018040000000000   0.001730000000000   0.499010000000000 1
ion Mn   0.381980000000000   0.674710000000000   0.646190000000000 1
ion Mn   0.260270000000000   0.497930000000000  -0.001710000000000 1
ion Mn  -0.011320000000000   0.486670000000000  -0.004800000000000 1
ion Mn   0.268630000000000   0.752230000000000   0.000820000000000 1
ion Mn   0.121560000000000   0.800610000000000   0.364890000000000 1
ion Mn  -0.000520000000000   0.487290000000000   0.506790000000000 1
ion Mn   0.873660000000000   0.185960000000000   0.614780000000000 1
ion Mn   0.747600000000000  -0.009760000000000  -0.010230000000000 1
ion Mn   0.485370000000000  -0.006290000000000   0.001230000000000 1
ion Mn   0.750830000000000   0.239620000000000  -0.009920000000000 1
ion Mn   0.631910000000000   0.302430000000000   0.366230000000000 1
ion Mn   0.510390000000000   0.012020000000000   0.496670000000000 1
ion Mn   0.866570000000000   0.693310000000000   0.622740000000000 1
ion Mn   0.724980000000000   0.514900000000000   1.000740000000000 1
ion Mn   0.498630000000000   0.503670000000000  -0.006740000000000 1
ion Mn   0.757280000000000   0.738270000000000   0.005380000000000 1
ion Mn   0.632890000000000   0.824050000000000   0.373400000000000 1
ion Mn   0.485560000000000   0.503450000000000   0.503860000000000 1
ion O   0.258320000000000   0.119260000000000   0.238390000000000 1
ion O   0.501610000000000   0.123670000000000   0.747110000000000 1
ion O   0.241460000000000   0.365380000000000   0.224550000000000 1
ion O   0.003530000000000   0.378710000000000   0.286670000000000 1
ion O   0.246990000000000   0.395260000000000   0.758210000000000 1
ion O   0.492180000000000   0.353090000000000   0.770390000000000 1
ion O   0.247050000000000   0.153350000000000   0.781400000000000 1
ion O   0.000700000000000   0.125650000000000   0.235520000000000 1
ion O   0.245640000000000   0.587870000000000   0.244610000000000 1
ion O   0.490980000000000   0.635340000000000   0.733630000000000 1
ion O   0.242430000000000   0.859300000000000   0.246030000000000 1
ion O   0.008750000000000   0.893030000000000   0.273890000000000 1
ion O   0.234960000000000   0.908770000000000   0.752800000000000 1
ion O   0.497890000000000   0.856470000000000   0.753120000000000 1
ion O   0.245990000000000   0.653200000000000   0.756820000000000 1
ion O   0.017340000000000   0.618450000000000   0.235190000000000 1
ion O   0.752510000000000   0.115020000000000   0.245410000000000 1
ion O   1.005690000000000   0.137440000000000   0.730970000000000 1
ion O   0.737220000000000   0.357040000000000   0.232450000000000 1
ion O   0.496880000000000   0.382570000000000   0.284920000000000 1
ion O   0.747050000000000   0.383090000000000   0.738680000000000 1
ion O   0.983170000000000   0.370410000000000   0.763360000000000 1
ion O   0.761690000000000   0.139370000000000   0.774000000000000 1
ion O   0.500950000000000   0.129120000000000   0.237440000000000 1
ion O   0.740460000000000   0.623930000000000   0.232470000000000 1
ion O   0.981510000000000   0.602290000000000   0.724650000000000 1
ion O   0.737870000000000   0.868480000000000   0.246540000000000 1
ion O   0.509170000000000   0.887270000000000   0.265210000000000 1
ion O   1.009810000000000   0.890390000000000   0.774630000000000 1
ion O   0.742920000000000   0.639080000000000   0.774460000000000 1
ion O   0.531520000000000   0.644210000000000   0.236920000000000 1
ion-species GBRV/$ID_pbesol.uspp
ion-width 0
ionic-minimize  \
	dirUpdateScheme      L-BFGS \
	linminMethod         DirUpdateRecommended \
	nIterations          50 \
	history              15 \
	knormThreshold       0.0001 \
	maxThreshold         no \
	energyDiffThreshold  1e-06 \
	nEnergyDiff          2 \
	alphaTstart          1 \
	alphaTmin            1e-10 \
	updateTestStepSize   yes \
	alphaTreduceFactor   0.1 \
	alphaTincreaseFactor 3 \
	nAlphaAdjustMax      3 \
	wolfeEnergy          0.0001 \
	wolfeGradient        0.9 \
	fdTest               no
kpoint   0.500000000000   0.500000000000   0.500000000000  1.00000000000000
kpoint-folding 2 2 3 
latt-move-scale 1 1 1
latt-scale 1 1 1 
lattice  \
	  18.996924611577327  -11.256730330583641   -0.588029153100741  \
	  -1.701222257910445   17.859221739036563    0.894108843439288  \
	  -9.691146878742231   -2.127407412561407   10.723772297247571 
lattice-minimize  \
	dirUpdateScheme      L-BFGS \
	linminMethod         DirUpdateRecommended \
	nIterations          0 \
	history              15 \
	knormThreshold       0 \
	maxThreshold         no \
	energyDiffThreshold  1e-06 \
	nEnergyDiff          2 \
	alphaTstart          1 \
	alphaTmin            1e-10 \
	updateTestStepSize   yes \
	alphaTreduceFactor   0.1 \
	alphaTincreaseFactor 3 \
	nAlphaAdjustMax      3 \
	wolfeEnergy          0.0001 \
	wolfeGradient        0.9 \
	fdTest               no
lcao-params -1 1e-06 0.01
pcm-variant GLSSA13
perturb-minimize  \
	nIterations            0 \
	algorithm              MINRES \
	residualTol            0.0001 \
	residualDiffThreshold  0.0001 \
	CGBypass               no \
	recomputeResidual      no
spintype no-spin
subspace-rotation-factor 1 yes
symmetries automatic
symmetry-threshold 0.0001



---------- Setting up symmetries ----------

Non-trivial transmission matrix:
[   1   1   0  ]
[   0   1   0  ]
[   1   1   1  ]
with reduced lattice vectors:
[     18.408895      7.152165     -0.588029  ]
[     -0.807113     17.052108      0.894109  ]
[      1.032625     -1.094782     10.723772  ]

Found 2 point-group symmetries of the bravais lattice
Found 1 space-group symmetries with basis
Applied RMS atom displacement 0 bohrs to make symmetries exact.

---------- Initializing the Grid ----------
R = 
[      18.9969     -11.2567    -0.588029  ]
[     -1.70122      17.8592     0.894109  ]
[     -9.69115     -2.12741      10.7238  ]
unit cell volume = 3462.67
G =
[   0.350971   0.221313 0.00079296  ]
[  0.0173808   0.359317 -0.0290055  ]
[   0.320623   0.271284   0.580874  ]
Minimum fftbox size, Smin = [  100  96  52  ]
Chosen fftbox size, S = [  100  96  54  ]

---------- Initializing tighter grid for wavefunction operations ----------
R = 
[      18.9969     -11.2567    -0.588029  ]
[     -1.70122      17.8592     0.894109  ]
[     -9.69115     -2.12741      10.7238  ]
unit cell volume = 3462.67
G =
[   0.350971   0.221313 0.00079296  ]
[  0.0173808   0.359317 -0.0290055  ]
[   0.320623   0.271284   0.580874  ]
Minimum fftbox size, Smin = [  88  88  44  ]
Chosen fftbox size, S = [  90  90  48  ]

---------- Exchange Correlation functional ----------
Initalized PBEsol GGA exchange.
Initalized PBEsol GGA correlation.

---------- Setting up pseudopotentials ----------
Width of ionic core gaussian charges (only for fluid interactions / plotting) set to 0

Reading pseudopotential file '/home/rc652/build/pseudopotentials/GBRV/mn_pbesol.uspp':
  Title: Mn.  Created by USPP 7.3.6 on 22-9-15
  Reference state energy: -105.045521.  15 valence electrons in orbitals:
    |300>  occupation: 2  eigenvalue: -3.291699
    |310>  occupation: 6  eigenvalue: -2.146878
    |400>  occupation: 1.5  eigenvalue: -0.308679
    |320>  occupation: 5  eigenvalue: -0.392872
    |410>  occupation: 0  eigenvalue: -0.151407
  lMax: 2  lLocal: 3  QijEcut: 6
  6 projectors sampled on a log grid with 585 points:
    l: 0  eig: -3.291699  rCut: 1.45
    l: 0  eig: -0.308679  rCut: 1.45
    l: 1  eig: -2.146878  rCut: 1.45
    l: 1  eig: -0.151407  rCut: 1.45
    l: 2  eig: -0.392872  rCut: 1.7
    l: 2  eig: 0.500000  rCut: 1.7
  Partial core density with radius 0.65
  Transforming core density to a uniform radial grid of dG=0.02 with 2354 points.
  Transforming local potential to a uniform radial grid of dG=0.02 with 2354 points.
  Transforming nonlocal projectors to a uniform radial grid of dG=0.02 with 432 points.
  Transforming density augmentations to a uniform radial grid of dG=0.02 with 2354 points.
  Transforming atomic orbitals to a uniform radial grid of dG=0.02 with 432 points.
  Core radius for overlap checks: 1.70 bohrs.

Reading pseudopotential file '/home/rc652/build/pseudopotentials/GBRV/o_pbesol.uspp':
  Title: O.  Created by USPP 7.3.6 on 3-2-2014
  Reference state energy: -15.849885.  6 valence electrons in orbitals:
    |200>  occupation: 2  eigenvalue: -0.873214
    |210>  occupation: 4  eigenvalue: -0.330058
  lMax: 2  lLocal: 2  QijEcut: 6
  5 projectors sampled on a log grid with 511 points:
    l: 0  eig: -0.873214  rCut: 1.25
    l: 0  eig: 0.000000  rCut: 1.25
    l: 1  eig: -0.330058  rCut: 1.25
    l: 1  eig: 0.000000  rCut: 1.25
    l: 2  eig: 1.000000  rCut: 1.25
  Partial core density with radius 0.7
  Transforming core density to a uniform radial grid of dG=0.02 with 2354 points.
  Transforming local potential to a uniform radial grid of dG=0.02 with 2354 points.
  Transforming nonlocal projectors to a uniform radial grid of dG=0.02 with 432 points.
  Transforming density augmentations to a uniform radial grid of dG=0.02 with 2354 points.
  Transforming atomic orbitals to a uniform radial grid of dG=0.02 with 432 points.
  Core radius for overlap checks: 1.25 bohrs.

Initialized 2 species with 55 total atoms.

Folded 1 k-points by 2x2x3 to 12 k-points.

---------- Setting up k-points, bands, fillings ----------
Adding inversion symmetry to k-mesh for non-inversion-symmetric unit cell.
Reduced to 6 k-points under symmetry. 
Computing the number of bands and number of electrons
Calculating initial fillings.
nElectrons: 546.000000   nBands: 436   nStates: 6

----- Setting up reduced wavefunction bases (one per k-point) -----
average nbasis = 14793.167 , ideal nbasis = 14792.775

---------- Setting up ewald sum ----------
Optimum gaussian width for ewald sums = 3.064741 bohr.
Real space sum over 539 unit cells with max indices [  3  3  5  ]
Reciprocal space sum over 9375 terms with max indices [  12  12  7  ]

---------- Allocating electronic variables ----------
Initializing wave functions:  linear combination of atomic orbitals
Mn pseudo-atom occupations:   s ( 2 0 )  p ( 6 0 )  d ( 7 )
O pseudo-atom occupations:   s ( 2 )  p ( 4 )
	FillingsUpdate:  mu: +0.527763811  nElectrons: 546.000000
LCAOMinimize: Iter:   0  F: -2877.3317790371324918  |grad|_K:  2.130e-02  alpha:  1.000e+00
	FillingsUpdate:  mu: +1.055145937  nElectrons: 546.000000
LCAOMinimize: Iter:   1  F: -2912.2995356501514834  |grad|_K:  4.021e-02  alpha:  3.446e-01  linmin:  2.267e-01  cgtest: -3.992e-01  t[s]:     61.59
LCAOMinimize: 	Bad step direction: g.d > 0.
LCAOMinimize: 	Undoing step.
LCAOMinimize: 	Step failed: resetting search direction.
	FillingsUpdate:  mu: +1.055145937  nElectrons: 546.000000
LCAOMinimize: Iter:   2  F: -2912.2995356501514834  |grad|_K:  4.021e-02  alpha:  0.000e+00
LCAOMinimize: 	Step increased F by 5.569918e+01, reducing alpha to 1.176047e-02.
	FillingsUpdate:  mu: +0.933018262  nElectrons: 546.000000
LCAOMinimize: Iter:   3  F: -2933.6806237105624859  |grad|_K:  3.562e-02  alpha:  1.176e-02  linmin: -3.618e-01  cgtest:  9.026e-01  t[s]:    116.75
LCAOMinimize: Encountered beta<0, resetting CG.
LCAOMinimize: 	Predicted alpha/alphaT>3.000000, increasing alphaT to 3.528142e-02.
LCAOMinimize: 	Predicted alpha/alphaT>3.000000, increasing alphaT to 1.058443e-01.
	FillingsUpdate:  mu: +0.652511143  nElectrons: 546.000000
LCAOMinimize: Iter:   4  F: -2979.6873335866057459  |grad|_K:  2.459e-02  alpha:  4.442e-02  linmin:  1.037e-02  cgtest:  1.538e-01  t[s]:    149.65
	FillingsUpdate:  mu: +0.561731661  nElectrons: 546.000000
LCAOMinimize: Iter:   5  F: -2994.8317221288439214  |grad|_K:  1.609e-02  alpha:  4.450e-02  linmin:  1.053e-01  cgtest:  1.183e-02  t[s]:    171.17
	FillingsUpdate:  mu: +0.573871885  nElectrons: 546.000000
LCAOMinimize: Iter:   6  F: -3000.4859546323054929  |grad|_K:  1.497e-02  alpha:  5.364e-02  linmin:  7.125e-02  cgtest: -2.937e-03  t[s]:    193.94
	FillingsUpdate:  mu: +0.604085739  nElectrons: 546.000000
LCAOMinimize: Iter:   7  F: -3002.0517834982824752  |grad|_K:  8.658e-03  alpha:  1.472e-02  linmin: -2.558e-02  cgtest:  6.845e-01  t[s]:    216.11
LCAOMinimize: Encountered beta<0, resetting CG.
	FillingsUpdate:  mu: +0.578547639  nElectrons: 546.000000
LCAOMinimize: Iter:   8  F: -3002.9388925880866736  |grad|_K:  2.264e-03  alpha:  2.078e-02  linmin:  2.611e-02  cgtest: -7.511e-02  t[s]:    238.65
	FillingsUpdate:  mu: +0.575243932  nElectrons: 546.000000
LCAOMinimize: Iter:   9  F: -3002.9969138090232263  |grad|_K:  1.002e-03  alpha:  2.014e-02  linmin:  1.369e-03  cgtest:  6.745e-02  t[s]:    260.50
LCAOMinimize: 	Predicted alpha/alphaT>3.000000, increasing alphaT to 6.041130e-02.
	FillingsUpdate:  mu: +0.570658963  nElectrons: 546.000000
LCAOMinimize: Iter:  10  F: -3003.0323124013066263  |grad|_K:  1.378e-03  alpha:  6.161e-02  linmin:  5.706e-04  cgtest: -1.588e-03  t[s]:    287.05
	FillingsUpdate:  mu: +0.565116097  nElectrons: 546.000000
LCAOMinimize: Iter:  11  F: -3003.0805979609126553  |grad|_K:  7.336e-04  alpha:  4.445e-02  linmin:  1.735e-04  cgtest: -3.197e-02  t[s]:    308.81
	FillingsUpdate:  mu: +0.563019857  nElectrons: 546.000000
LCAOMinimize: Iter:  12  F: -3003.0879751779752951  |grad|_K:  2.686e-04  alpha:  2.380e-02  linmin: -1.466e-03  cgtest:  5.896e-03  t[s]:    331.31
	FillingsUpdate:  mu: +0.562697946  nElectrons: 546.000000
LCAOMinimize: Iter:  13  F: -3003.0890644756032088  |grad|_K:  1.917e-04  alpha:  2.629e-02  linmin:  3.848e-04  cgtest: -4.601e-03  t[s]:    352.95
LCAOMinimize: 	Predicted alpha/alphaT>3.000000, increasing alphaT to 7.886493e-02.
	FillingsUpdate:  mu: +0.563468281  nElectrons: 546.000000
LCAOMinimize: Iter:  14  F: -3003.0922138982059550  |grad|_K:  3.756e-04  alpha:  1.506e-01  linmin:  1.027e-03  cgtest:  5.416e-03  t[s]:    380.99
	FillingsUpdate:  mu: +0.564494038  nElectrons: 546.000000
LCAOMinimize: Iter:  15  F: -3003.0951676083700477  |grad|_K:  1.995e-04  alpha:  3.608e-02  linmin: -3.034e-03  cgtest:  9.189e-02  t[s]:    403.24
	FillingsUpdate:  mu: +0.564635586  nElectrons: 546.000000
LCAOMinimize: Iter:  16  F: -3003.0956443771642626  |grad|_K:  7.434e-05  alpha:  2.052e-02  linmin: -2.215e-04  cgtest: -5.328e-02  t[s]:    425.38
	FillingsUpdate:  mu: +0.564848182  nElectrons: 546.000000
LCAOMinimize: Iter:  17  F: -3003.0957936027875803  |grad|_K:  9.384e-05  alpha:  4.712e-02  linmin:  9.951e-05  cgtest:  4.788e-03  t[s]:    447.35
	FillingsUpdate:  mu: +0.565563772  nElectrons: 546.000000
LCAOMinimize: Iter:  18  F: -3003.0961742048020824  |grad|_K:  8.301e-05  alpha:  7.560e-02  linmin:  3.548e-04  cgtest:  4.111e-03  t[s]:    469.79
	FillingsUpdate:  mu: +0.565757118  nElectrons: 546.000000
LCAOMinimize: Iter:  19  F: -3003.0962774866388827  |grad|_K:  3.296e-05  alpha:  2.621e-02  linmin: -2.992e-04  cgtest:  1.507e-02  t[s]:    492.67
	FillingsUpdate:  mu: +0.565743978  nElectrons: 546.000000
LCAOMinimize: Iter:  20  F: -3003.0962961860163887  |grad|_K:  3.109e-05  alpha:  3.001e-02  linmin:  4.100e-05  cgtest: -1.741e-03  t[s]:    514.89
LCAOMinimize: 	Predicted alpha/alphaT>3.000000, increasing alphaT to 9.004323e-02.
	FillingsUpdate:  mu: +0.565589792  nElectrons: 546.000000
LCAOMinimize: Iter:  21  F: -3003.0963749321476826  |grad|_K:  4.874e-05  alpha:  1.423e-01  linmin:  1.199e-04  cgtest:  3.592e-03  t[s]:    543.25
	FillingsUpdate:  mu: +0.565509685  nElectrons: 546.000000
LCAOMinimize: Iter:  22  F: -3003.0964176099628276  |grad|_K:  1.912e-05  alpha:  3.131e-02  linmin: -5.440e-04  cgtest:  1.055e-02  t[s]:    564.60
	FillingsUpdate:  mu: +0.565497481  nElectrons: 546.000000
LCAOMinimize: Iter:  23  F: -3003.0964215787294052  |grad|_K:  7.793e-06  alpha:  1.892e-02  linmin: -3.013e-05  cgtest: -5.544e-03  t[s]:    586.80
LCAOMinimize: 	Predicted alpha/alphaT>3.000000, increasing alphaT to 5.675240e-02.
	FillingsUpdate:  mu: +0.565521199  nElectrons: 546.000000
LCAOMinimize: Iter:  24  F: -3003.0964245437198770  |grad|_K:  1.301e-05  alpha:  8.522e-02  linmin:  2.920e-05  cgtest:  7.749e-04  t[s]:    614.53
	FillingsUpdate:  mu: +0.565558311  nElectrons: 546.000000
LCAOMinimize: Iter:  25  F: -3003.0964290095457727  |grad|_K:  8.164e-06  alpha:  4.609e-02  linmin: -1.473e-05  cgtest:  1.759e-03  t[s]:    636.72
	FillingsUpdate:  mu: +0.565557874  nElectrons: 546.000000
LCAOMinimize: Iter:  26  F: -3003.0964299345000654  |grad|_K:  3.551e-06  alpha:  2.422e-02  linmin:  1.016e-05  cgtest: -2.782e-04  t[s]:    659.32
	FillingsUpdate:  mu: +0.565546829  nElectrons: 546.000000
LCAOMinimize: Iter:  27  F: -3003.0964303127552739  |grad|_K:  5.219e-06  alpha:  5.239e-02  linmin:  2.280e-04  cgtest: -1.088e-03  t[s]:    680.57
LCAOMinimize: Converged (|Delta F|<1.000000e-06 for 2 iters).


---- Citations for features of the code used in this run ----

   Software package:
      R. Sundararaman, K. Letchworth-Weaver, K.A. Schwarz, D. Gunceler, Y. Ozhabes and T.A. Arias, 'JDFTx: software for joint density-functional theory', SoftwareX 6, 278 (2017)

   gga-PBEsol exchange-correlation functional:
      J.P. Perdew et al., Phys. Rev. Lett. 100, 136406 (2008)

   Pseudopotentials:
      KF Garrity, JW Bennett, KM Rabe and D Vanderbilt, Comput. Mater. Sci. 81, 446 (2014)

This list may not be complete. Please suggest additional citations or
report any other bugs at https://github.com/shankar1729/jdftx/issues

Initialization completed successfully at t[s]:    688.78


-------- Electronic minimization -----------
Will mix electronic density at each iteration.
	FillingsUpdate:  mu: +0.565546829  nElectrons: 546.000000
	FillingsUpdate:  mu: +0.561062551  nElectrons: 546.000000
SCF: Cycle:  0   F: -3003.722869675520087   dF: -6.264e-01   |Residual|: 8.576e-01   |deigs|: 4.328e-02  t[s]:    770.21
	FillingsUpdate:  mu: +0.513366799  nElectrons: 546.000000
SCF: Cycle:  1   F: -2996.543098405148157   dF: +7.180e+00   |Residual|: 1.584e+00   |deigs|: 3.878e-02  t[s]:    840.51
	FillingsUpdate:  mu: +0.525386388  nElectrons: 546.000000
SCF: Cycle:  2   F: -2979.532828445514497   dF: +1.701e+01   |Residual|: 2.801e+00   |deigs|: 1.874e-02  t[s]:    909.48
	FillingsUpdate:  mu: +0.533252498  nElectrons: 546.000000
SCF: Cycle:  3   F: -3000.276992518463885   dF: -2.074e+01   |Residual|: 1.040e+00   |deigs|: 1.626e-02  t[s]:    977.71
	FillingsUpdate:  mu: +0.531990557  nElectrons: 546.000000
SCF: Cycle:  4   F: -3001.007947855522616   dF: -7.310e-01   |Residual|: 8.945e-01   |deigs|: 4.872e-03  t[s]:   1044.55
	FillingsUpdate:  mu: +0.528437228  nElectrons: 546.000000
SCF: Cycle:  5   F: -3000.828516133031826   dF: +1.794e-01   |Residual|: 9.072e-01   |deigs|: 3.886e-03  t[s]:   1110.15
	FillingsUpdate:  mu: +0.527237787  nElectrons: 546.000000
SCF: Cycle:  6   F: -3004.172428703142486   dF: -3.344e+00   |Residual|: 1.970e-01   |deigs|: 3.133e-03  t[s]:   1179.87
	FillingsUpdate:  mu: +0.527476274  nElectrons: 546.000000
SCF: Cycle:  7   F: -3004.077157737628568   dF: +9.527e-02   |Residual|: 2.562e-01   |deigs|: 8.740e-04  t[s]:   1250.47
	FillingsUpdate:  mu: +0.527858856  nElectrons: 546.000000
SCF: Cycle:  8   F: -3004.266897472847631   dF: -1.897e-01   |Residual|: 7.693e-02   |deigs|: 8.396e-04  t[s]:   1308.75
	FillingsUpdate:  mu: +0.527870225  nElectrons: 546.000000
SCF: Cycle:  9   F: -3004.104064516095150   dF: +1.628e-01   |Residual|: 2.325e-01   |deigs|: 5.872e-04  t[s]:   1364.23
	FillingsUpdate:  mu: +0.527811493  nElectrons: 546.000000
SCF: Cycle: 10   F: -3004.246933605627873   dF: -1.429e-01   |Residual|: 9.494e-02   |deigs|: 5.374e-04  t[s]:   1406.67
	FillingsUpdate:  mu: +0.527837720  nElectrons: 546.000000
SCF: Cycle: 11   F: -3004.266921365748658   dF: -1.999e-02   |Residual|: 5.844e-02   |deigs|: 3.279e-04  t[s]:   1449.32
	FillingsUpdate:  mu: +0.527980698  nElectrons: 546.000000
SCF: Cycle: 12   F: -3004.263153949488697   dF: +3.767e-03   |Residual|: 6.759e-02   |deigs|: 3.144e-04  t[s]:   1492.07
	FillingsUpdate:  mu: +0.528038777  nElectrons: 546.000000
SCF: Cycle: 13   F: -3004.278213143949415   dF: -1.506e-02   |Residual|: 1.830e-02   |deigs|: 2.501e-04  t[s]:   1532.01
	FillingsUpdate:  mu: +0.527939904  nElectrons: 546.000000
SCF: Cycle: 14   F: -3004.276590513218707   dF: +1.623e-03   |Residual|: 2.690e-02   |deigs|: 1.824e-04  t[s]:   1573.38
	FillingsUpdate:  mu: +0.527972100  nElectrons: 546.000000
SCF: Cycle: 15   F: -3004.276223176378608   dF: +3.673e-04   |Residual|: 2.746e-02   |deigs|: 1.587e-04  t[s]:   1616.38
	FillingsUpdate:  mu: +0.528043826  nElectrons: 546.000000
SCF: Cycle: 16   F: -3004.277584498311171   dF: -1.361e-03   |Residual|: 1.984e-02   |deigs|: 1.458e-04  t[s]:   1658.10
	FillingsUpdate:  mu: +0.528046609  nElectrons: 546.000000
SCF: Cycle: 17   F: -3004.279225152028630   dF: -1.641e-03   |Residual|: 4.211e-03   |deigs|: 9.520e-05  t[s]:   1699.87
	FillingsUpdate:  mu: +0.528028465  nElectrons: 546.000000
SCF: Cycle: 18   F: -3004.279030643222541   dF: +1.945e-04   |Residual|: 8.356e-03   |deigs|: 5.232e-05  t[s]:   1741.91
	FillingsUpdate:  mu: +0.528023358  nElectrons: 546.000000
SCF: Cycle: 19   F: -3004.279272034090354   dF: -2.414e-04   |Residual|: 2.006e-03   |deigs|: 4.406e-05  t[s]:   1782.36
	FillingsUpdate:  mu: +0.528034783  nElectrons: 546.000000
SCF: Cycle: 20   F: -3004.279193067224242   dF: +7.897e-05   |Residual|: 5.154e-03   |deigs|: 3.205e-05  t[s]:   1825.57
	FillingsUpdate:  mu: +0.528053651  nElectrons: 546.000000
SCF: Cycle: 21   F: -3004.279251461857712   dF: -5.839e-05   |Residual|: 3.224e-03   |deigs|: 3.032e-05  t[s]:   1866.52
	FillingsUpdate:  mu: +0.528056395  nElectrons: 546.000000
SCF: Cycle: 22   F: -3004.279264905595483   dF: -1.344e-05   |Residual|: 2.336e-03   |deigs|: 2.043e-05  t[s]:   1908.45
	FillingsUpdate:  mu: +0.528053461  nElectrons: 546.000000
SCF: Cycle: 23   F: -3004.279248790569000   dF: +1.612e-05   |Residual|: 3.134e-03   |deigs|: 1.703e-05  t[s]:   1951.64
	FillingsUpdate:  mu: +0.528046260  nElectrons: 546.000000
SCF: Cycle: 24   F: -3004.279258853045121   dF: -1.006e-05   |Residual|: 2.814e-03   |deigs|: 1.898e-05  t[s]:   1993.08
	FillingsUpdate:  mu: +0.528046950  nElectrons: 546.000000
SCF: Cycle: 25   F: -3004.279270205512148   dF: -1.135e-05   |Residual|: 2.078e-03   |deigs|: 1.592e-05  t[s]:   2034.18
	FillingsUpdate:  mu: +0.528044110  nElectrons: 546.000000
SCF: Cycle: 26   F: -3004.279262249627209   dF: +7.956e-06   |Residual|: 2.398e-03   |deigs|: 1.393e-05  t[s]:   2075.48
	FillingsUpdate:  mu: +0.528044762  nElectrons: 546.000000
SCF: Cycle: 27   F: -3004.279282156347563   dF: -1.991e-05   |Residual|: 8.958e-04   |deigs|: 1.083e-05  t[s]:   2117.31
	FillingsUpdate:  mu: +0.528042869  nElectrons: 546.000000
SCF: Cycle: 28   F: -3004.279271810449700   dF: +1.035e-05   |Residual|: 1.859e-03   |deigs|: 1.087e-05  t[s]:   2160.00
	FillingsUpdate:  mu: +0.528049472  nElectrons: 546.000000
SCF: Cycle: 29   F: -3004.279282323717325   dF: -1.051e-05   |Residual|: 9.416e-04   |deigs|: 1.131e-05  t[s]:   2201.88
	FillingsUpdate:  mu: +0.528050967  nElectrons: 546.000000
SCF: Cycle: 30   F: -3004.279285414443621   dF: -3.091e-06   |Residual|: 2.329e-04   |deigs|: 4.680e-06  t[s]:   2242.63
	FillingsUpdate:  mu: +0.528050134  nElectrons: 546.000000
SCF: Cycle: 31   F: -3004.279284326799825   dF: +1.088e-06   |Residual|: 5.976e-04   |deigs|: 3.183e-06  t[s]:   2284.24
	FillingsUpdate:  mu: +0.528048939  nElectrons: 546.000000
SCF: Cycle: 32   F: -3004.279285275057646   dF: -9.483e-07   |Residual|: 3.035e-04   |deigs|: 3.144e-06  t[s]:   2327.39
	FillingsUpdate:  mu: +0.528049553  nElectrons: 546.000000
SCF: Cycle: 33   F: -3004.279285300096490   dF: -2.504e-08   |Residual|: 2.688e-04   |deigs|: 2.391e-06  t[s]:   2368.17
	FillingsUpdate:  mu: +0.528050472  nElectrons: 546.000000
SCF: Cycle: 34   F: -3004.279284608990110   dF: +6.911e-07   |Residual|: 4.892e-04   |deigs|: 2.417e-06  t[s]:   2410.68
	FillingsUpdate:  mu: +0.528051676  nElectrons: 546.000000
SCF: Cycle: 35   F: -3004.279285192862972   dF: -5.839e-07   |Residual|: 3.281e-04   |deigs|: 2.539e-06  t[s]:   2454.39
	FillingsUpdate:  mu: +0.528051402  nElectrons: 546.000000
SCF: Cycle: 36   F: -3004.279285122726378   dF: +7.014e-08   |Residual|: 3.507e-04   |deigs|: 2.202e-06  t[s]:   2495.33
	FillingsUpdate:  mu: +0.528051799  nElectrons: 546.000000
SCF: Cycle: 37   F: -3004.279285062743838   dF: +5.998e-08   |Residual|: 3.505e-04   |deigs|: 2.152e-06  t[s]:   2537.06
	FillingsUpdate:  mu: +0.528051865  nElectrons: 546.000000
SCF: Cycle: 38   F: -3004.279285416466337   dF: -3.537e-07   |Residual|: 1.977e-04   |deigs|: 1.827e-06  t[s]:   2578.77
	FillingsUpdate:  mu: +0.528051888  nElectrons: 546.000000
SCF: Cycle: 39   F: -3004.279285299608091   dF: +1.169e-07   |Residual|: 2.572e-04   |deigs|: 1.527e-06  t[s]:   2621.01
	FillingsUpdate:  mu: +0.528050858  nElectrons: 546.000000
SCF: Cycle: 40   F: -3004.279285397416515   dF: -9.781e-08   |Residual|: 2.134e-04   |deigs|: 1.842e-06  t[s]:   2662.20
	FillingsUpdate:  mu: +0.528050812  nElectrons: 546.000000
SCF: Cycle: 41   F: -3004.279285545600032   dF: -1.482e-07   |Residual|: 7.256e-05   |deigs|: 1.117e-06  t[s]:   2702.10
	FillingsUpdate:  mu: +0.528051386  nElectrons: 546.000000
SCF: Cycle: 42   F: -3004.279285489651556   dF: +5.595e-08   |Residual|: 1.454e-04   |deigs|: 9.154e-07  t[s]:   2744.57
	FillingsUpdate:  mu: +0.528051759  nElectrons: 546.000000
SCF: Cycle: 43   F: -3004.279285553029240   dF: -6.338e-08   |Residual|: 5.329e-05   |deigs|: 7.226e-07  t[s]:   2786.39
	FillingsUpdate:  mu: +0.528051705  nElectrons: 546.000000
SCF: Cycle: 44   F: -3004.279285551366684   dF: +1.663e-09   |Residual|: 5.544e-05   |deigs|: 4.569e-07  t[s]:   2823.83
	FillingsUpdate:  mu: +0.528051592  nElectrons: 546.000000
SCF: Cycle: 45   F: -3004.279285522592090   dF: +2.877e-08   |Residual|: 9.812e-05   |deigs|: 4.773e-07  t[s]:   2862.44
	FillingsUpdate:  mu: +0.528051536  nElectrons: 546.000000
SCF: Cycle: 46   F: -3004.279285554331182   dF: -3.174e-08   |Residual|: 4.815e-05   |deigs|: 4.629e-07  t[s]:   2902.23
	FillingsUpdate:  mu: +0.528051581  nElectrons: 546.000000
SCF: Cycle: 47   F: -3004.279285546143456   dF: +8.188e-09   |Residual|: 6.797e-05   |deigs|: 3.974e-07  t[s]:   2941.78
	FillingsUpdate:  mu: +0.528051620  nElectrons: 546.000000
SCF: Cycle: 48   F: -3004.279285552263900   dF: -6.120e-09   |Residual|: 5.029e-05   |deigs|: 3.913e-07  t[s]:   2982.21
	FillingsUpdate:  mu: +0.528051626  nElectrons: 546.000000
SCF: Cycle: 49   F: -3004.279285555394381   dF: -3.130e-09   |Residual|: 4.370e-05   |deigs|: 3.129e-07  t[s]:   3016.71
SCF: Converged (|Delta E|<1.000000e-08 for 2 iters).

Setting wave functions to eigenvectors of Hamiltonian

# Ionic positions in lattice coordinates:
ion Mn   0.389960000000000   0.184260000000000   0.615320000000000 1
ion Mn   0.249780000000000  -0.004440000000000   0.016160000000000 1
ion Mn   0.006380000000000   0.006920000000000  -0.005270000000000 1
ion Mn   0.244570000000000   0.248580000000000  -0.007120000000000 1
ion Mn   0.114180000000000   0.298600000000000   0.379270000000000 1
ion Mn  -0.018040000000000   0.001730000000000   0.499010000000000 1
ion Mn   0.381980000000000   0.674710000000000   0.646190000000000 1
ion Mn   0.260270000000000   0.497930000000000  -0.001710000000000 1
ion Mn  -0.011320000000000   0.486670000000000  -0.004800000000000 1
ion Mn   0.268630000000000   0.752230000000000   0.000820000000000 1
ion Mn   0.121560000000000   0.800610000000000   0.364890000000000 1
ion Mn  -0.000520000000000   0.487290000000000   0.506790000000000 1
ion Mn   0.873660000000000   0.185960000000000   0.614780000000000 1
ion Mn   0.747600000000000  -0.009760000000000  -0.010230000000000 1
ion Mn   0.485370000000000  -0.006290000000000   0.001230000000000 1
ion Mn   0.750830000000000   0.239620000000000  -0.009920000000000 1
ion Mn   0.631910000000000   0.302430000000000   0.366230000000000 1
ion Mn   0.510390000000000   0.012020000000000   0.496670000000000 1
ion Mn   0.866570000000000   0.693310000000000   0.622740000000000 1
ion Mn   0.724980000000000   0.514900000000000   1.000740000000000 1
ion Mn   0.498630000000000   0.503670000000000  -0.006740000000000 1
ion Mn   0.757280000000000   0.738270000000000   0.005380000000000 1
ion Mn   0.632890000000000   0.824050000000000   0.373400000000000 1
ion Mn   0.485560000000000   0.503450000000000   0.503860000000000 1
ion O   0.258320000000000   0.119260000000000   0.238390000000000 1
ion O   0.501610000000000   0.123670000000000   0.747110000000000 1
ion O   0.241460000000000   0.365380000000000   0.224550000000000 1
ion O   0.003530000000000   0.378710000000000   0.286670000000000 1
ion O   0.246990000000000   0.395260000000000   0.758210000000000 1
ion O   0.492180000000000   0.353090000000000   0.770390000000000 1
ion O   0.247050000000000   0.153350000000000   0.781400000000000 1
ion O   0.000700000000000   0.125650000000000   0.235520000000000 1
ion O   0.245640000000000   0.587870000000000   0.244610000000000 1
ion O   0.490980000000000   0.635340000000000   0.733630000000000 1
ion O   0.242430000000000   0.859300000000000   0.246030000000000 1
ion O   0.008750000000000   0.893030000000000   0.273890000000000 1
ion O   0.234960000000000   0.908770000000000   0.752800000000000 1
ion O   0.497890000000000   0.856470000000000   0.753120000000000 1
ion O   0.245990000000000   0.653200000000000   0.756820000000000 1
ion O   0.017340000000000   0.618450000000000   0.235190000000000 1
ion O   0.752510000000000   0.115020000000000   0.245410000000000 1
ion O   1.005690000000000   0.137440000000000   0.730970000000000 1
ion O   0.737220000000000   0.357040000000000   0.232450000000000 1
ion O   0.496880000000000   0.382570000000000   0.284920000000000 1
ion O   0.747050000000000   0.383090000000000   0.738680000000000 1
ion O   0.983170000000000   0.370410000000000   0.763360000000000 1
ion O   0.761690000000000   0.139370000000000   0.774000000000000 1
ion O   0.500950000000000   0.129120000000000   0.237440000000000 1
ion O   0.740460000000000   0.623930000000000   0.232470000000000 1
ion O   0.981510000000000   0.602290000000000   0.724650000000000 1
ion O   0.737870000000000   0.868480000000000   0.246540000000000 1
ion O   0.509170000000000   0.887270000000000   0.265210000000000 1
ion O   1.009810000000000   0.890390000000000   0.774630000000000 1
ion O   0.742920000000000   0.639080000000000   0.774460000000000 1
ion O   0.531520000000000   0.644210000000000   0.236920000000000 1

# Forces in Lattice coordinates:
force Mn  -2.214809710116583   0.519525844850623   0.188264362042803 1
force Mn  -0.377960385742002   0.264565217151216   0.272161866663987 1
force Mn  -0.499245207760922   0.110356311308013   0.165549456175450 1
force Mn  -0.890085389609105   1.347770040494833   0.680559066881039 1
force Mn   0.515783215038823   1.469608651139731  -0.137478428626782 1
force Mn   0.721934622375660  -0.602582043380176  -0.202841823611867 1
force Mn  -8.217622400860833   6.545540354310595   0.191959639838743 1
force Mn  -1.125715629268425   0.938451290660593   0.673777189054282 1
force Mn   0.018927117633272   0.123602150578925  -0.011492044049009 1
force Mn  -1.987816696303730   1.710204960763686   1.088438677230315 1
force Mn  -1.166247010656463   0.907093075683235   0.583077980347866 1
force Mn  -0.646374431573145   0.769014275280451   0.221304178739386 1
force Mn  -1.004916957935732   0.380566929388895   0.233901022126064 1
force Mn   0.253865097326841  -0.172737187306346  -0.104137004852141 1
force Mn   0.306190797259746  -0.236979326695396  -0.213036752629821 1
force Mn  -0.682910112981244   0.873954135519290   0.322370665039237 1
force Mn  -1.938551549326787   2.157119546718533   0.773329076098864 1
force Mn  -0.106447473900881  -0.281464098810917   0.134778132589879 1
force Mn   0.254068186873155  -0.418027962199211   0.160594773152557 1
force Mn   1.368880910028163  -1.554519552806934  -0.677784296306878 1
force Mn   0.330452451404122  -0.516560525017738  -0.025162919813528 1
force Mn  -1.525145615393343   2.318427605748206   0.734830196570778 1
force Mn  -1.424374234971717   0.005599566112929   1.225605800973359 1
force Mn   0.498464111084088  -0.350358117402193  -0.068059666847115 1
force O  -0.632912989239973   0.662897231260456   0.039292721694891 1
force O   2.025867207922781  -2.247725697588264   0.132554089505500 1
force O  -0.148081178330028   0.135675995475588   0.202261405420282 1
force O   0.018199477869042  -0.099119592840035  -0.345190927377782 1
force O   1.323299247053153  -1.317272562147575  -0.502126128558302 1
force O  -0.447163940129887   2.119403584878612   0.139925190316987 1
force O   1.675785194692048  -1.950112792228232  -0.852770902723142 1
force O  -0.098983757631983  -1.871384590356324  -0.058968062968894 1
force O  -0.646041425795309   0.901340636988897   0.063594458188214 1
force O   8.308814470228306  -7.406686666940035  -0.405180510789763 1
force O   1.050042077779716   0.143824834592258  -0.514079172625524 1
force O  -0.230717969254144   0.120540248558788  -0.193774477095944 1
force O   1.756533504068059  -1.536005853144097  -0.736475861750796 1
force O  -0.139010153225604   1.606606501389420  -0.012331177449814 1
force O   1.413552127478269  -1.876773136149402  -0.768584469573346 1
force O  -0.566195749221351  -0.275789793443056   0.269830405934353 1
force O  -0.222127423708005   0.146742581545472  -0.384768940532763 1
force O   0.714581078563409  -0.820551904424849   0.174913157474541 1
force O   1.804694554554659   0.176723851077030  -0.941490449626541 1
force O   0.141209175484910   0.038512436356120  -0.279286003314749 1
force O  -0.104552371995118  -0.235910953055534   0.469285664384793 1
force O   0.636974134449694   0.308899036946565  -0.291932027589871 1
force O   0.199619925313682  -0.778162689272464  -0.122865227319321 1
force O  -0.237618769825765  -1.509579916634086   0.103954925009453 1
force O  -1.015000015966129   0.661451277133961   0.784102902874580 1
force O   0.034501295903250   0.208342783521744   0.063734478215258 1
force O   2.505588653008592   0.058860343896487  -1.302062646634825 1
force O  -0.643085821669936   0.470363150508100  -0.021934660409061 1
force O   0.170463792497777  -0.051163862994710  -0.151167500922615 1
force O   1.763576595498852  -1.619571354823682  -1.119693029697677 1
force O  -0.750707512407958  -0.648820906055898   0.332241372681868 1

# Energy components:
   Eewald =    -2053.8224076810952283
       EH =      855.4545398178278219
     Eloc =    -2639.9762091086913642
      Enl =      493.9272445669461149
      Exc =     -427.4302880152730495
 Exc_core =       28.0183980635074477
       KE =      740.1379497852242366
-------------------------------------
     Etot =    -3003.6907725715536799
       TS =        0.5885129838406853
-------------------------------------
        F =    -3004.2792855553943809

IonicMinimize: Iter:   0  F: -3004.279285555394381  |grad|_K:  6.573e-02  t[s]:   3029.64

#--- Lowdin population analysis ---
# oxidation-state Mn +0.277 +0.228 +0.182 +0.248 +0.279 +0.232 +0.218 +0.218 +0.239 +0.272 +0.274 +0.241 +0.248 +0.151 +0.234 +0.231 +0.282 +0.226 +0.293 +0.225 +0.188 +0.142 +0.190 +0.225
# oxidation-state O -0.178 -0.127 -0.203 -0.153 -0.153 -0.102 -0.184 -0.132 -0.242 +0.066 -0.178 -0.221 -0.160 -0.202 -0.130 -0.177 -0.189 -0.126 -0.169 -0.241 -0.222 -0.154 -0.147 -0.105 -0.070 -0.247 -0.107 -0.133 -0.155 -0.075 -0.157


-------- Electronic minimization -----------
Will mix electronic density at each iteration.
	FillingsUpdate:  mu: +0.528051626  nElectrons: 546.000000
	FillingsUpdate:  mu: +0.528277142  nElectrons: 546.000000
SCF: Cycle:  0   F: -2989.072047703809858   dF: +1.443e+01   |Residual|: 1.788e+00   |deigs|: 2.011e-03  t[s]:   3126.01
	FillingsUpdate:  mu: +0.508204733  nElectrons: 546.000000
SCF: Cycle:  1   F: -2811.955516038621226   dF: +1.771e+02   |Residual|: 7.227e+00   |deigs|: 1.056e-01  t[s]:   3193.50
	FillingsUpdate:  mu: +0.529157761  nElectrons: 546.000000
SCF: Cycle:  2   F: -2935.055551894080963   dF: -1.231e+02   |Residual|: 4.163e+00   |deigs|: 7.945e-02  t[s]:   3262.67
	FillingsUpdate:  mu: +0.530128537  nElectrons: 546.000000
SCF: Cycle:  3   F: -2985.703806530310885   dF: -5.065e+01   |Residual|: 2.156e+00   |deigs|: 2.168e-02  t[s]:   3329.48
	FillingsUpdate:  mu: +0.530516470  nElectrons: 546.000000
SCF: Cycle:  4   F: -2989.183223711681876   dF: -3.479e+00   |Residual|: 2.075e+00   |deigs|: 4.273e-03  t[s]:   3400.48
	FillingsUpdate:  mu: +0.527823564  nElectrons: 546.000000
SCF: Cycle:  5   F: -2992.743473704254029   dF: -3.560e+00   |Residual|: 1.553e+00   |deigs|: 7.224e-03  t[s]:   3468.14
	FillingsUpdate:  mu: +0.527804620  nElectrons: 546.000000
SCF: Cycle:  6   F: -2993.531849099564624   dF: -7.884e-01   |Residual|: 1.700e+00   |deigs|: 2.385e-03  t[s]:   3533.50
	FillingsUpdate:  mu: +0.528362380  nElectrons: 546.000000
SCF: Cycle:  7   F: -3002.357053642716437   dF: -8.825e+00   |Residual|: 7.200e-01   |deigs|: 3.807e-03  t[s]:   3598.19
	FillingsUpdate:  mu: +0.528407795  nElectrons: 546.000000
SCF: Cycle:  8   F: -3002.895644792888561   dF: -5.386e-01   |Residual|: 6.300e-01   |deigs|: 1.037e-03  t[s]:   3661.36
	FillingsUpdate:  mu: +0.528161948  nElectrons: 546.000000
SCF: Cycle:  9   F: -3003.988656832017568   dF: -1.093e+00   |Residual|: 3.196e-01   |deigs|: 1.388e-03  t[s]:   3731.67
	FillingsUpdate:  mu: +0.528132602  nElectrons: 546.000000
SCF: Cycle: 10   F: -3004.160316680380220   dF: -1.717e-01   |Residual|: 2.698e-01   |deigs|: 5.387e-04  t[s]:   3798.92
	FillingsUpdate:  mu: +0.527580029  nElectrons: 546.000000
SCF: Cycle: 11   F: -3004.101644464402398   dF: +5.867e-02   |Residual|: 2.748e-01   |deigs|: 6.588e-04  t[s]:   3860.59
	FillingsUpdate:  mu: +0.527331407  nElectrons: 546.000000
SCF: Cycle: 12   F: -3004.342970804464585   dF: -2.413e-01   |Residual|: 1.352e-01   |deigs|: 7.589e-04  t[s]:   3925.75
	FillingsUpdate:  mu: +0.527668768  nElectrons: 546.000000
SCF: Cycle: 13   F: -3004.224375404660350   dF: +1.186e-01   |Residual|: 2.184e-01   |deigs|: 6.975e-04  t[s]:   3981.58
	FillingsUpdate:  mu: +0.527660220  nElectrons: 546.000000
SCF: Cycle: 14   F: -3004.407178401852434   dF: -1.828e-01   |Residual|: 3.272e-02   |deigs|: 6.259e-04  t[s]:   4023.08
	FillingsUpdate:  mu: +0.527457265  nElectrons: 546.000000
SCF: Cycle: 15   F: -3004.360884116576472   dF: +4.629e-02   |Residual|: 1.113e-01   |deigs|: 3.505e-04  t[s]:   4063.51
	FillingsUpdate:  mu: +0.527394405  nElectrons: 546.000000
SCF: Cycle: 16   F: -3004.406660089390243   dF: -4.578e-02   |Residual|: 3.397e-02   |deigs|: 3.013e-04  t[s]:   4105.47
	FillingsUpdate:  mu: +0.527429712  nElectrons: 546.000000
SCF: Cycle: 17   F: -3004.406312844753757   dF: +3.472e-04   |Residual|: 3.528e-02   |deigs|: 2.285e-04  t[s]:   4144.87
	FillingsUpdate:  mu: +0.527473539  nElectrons: 546.000000
SCF: Cycle: 18   F: -3004.408711407909777   dF: -2.399e-03   |Residual|: 2.464e-02   |deigs|: 1.703e-04  t[s]:   4185.53
	FillingsUpdate:  mu: +0.527541230  nElectrons: 546.000000
SCF: Cycle: 19   F: -3004.410015735683828   dF: -1.304e-03   |Residual|: 1.676e-02   |deigs|: 1.175e-04  t[s]:   4227.45
	FillingsUpdate:  mu: +0.527518183  nElectrons: 546.000000
SCF: Cycle: 20   F: -3004.405836016723697   dF: +4.180e-03   |Residual|: 3.932e-02   |deigs|: 1.998e-04  t[s]:   4269.82
	FillingsUpdate:  mu: +0.527514433  nElectrons: 546.000000
SCF: Cycle: 21   F: -3004.407472824458637   dF: -1.637e-03   |Residual|: 3.078e-02   |deigs|: 2.038e-04  t[s]:   4314.94
	FillingsUpdate:  mu: +0.527522710  nElectrons: 546.000000
SCF: Cycle: 22   F: -3004.410944643474068   dF: -3.472e-03   |Residual|: 4.441e-03   |deigs|: 1.129e-04  t[s]:   4356.58
	FillingsUpdate:  mu: +0.527473833  nElectrons: 546.000000
SCF: Cycle: 23   F: -3004.408242490259909   dF: +2.702e-03   |Residual|: 2.720e-02   |deigs|: 1.086e-04  t[s]:   4399.74
	FillingsUpdate:  mu: +0.527484519  nElectrons: 546.000000
SCF: Cycle: 24   F: -3004.410786966356227   dF: -2.544e-03   |Residual|: 6.777e-03   |deigs|: 9.954e-05  t[s]:   4441.32
	FillingsUpdate:  mu: +0.527483487  nElectrons: 546.000000
SCF: Cycle: 25   F: -3004.410867734440671   dF: -8.077e-05   |Residual|: 5.889e-03   |deigs|: 3.951e-05  t[s]:   4482.14
	FillingsUpdate:  mu: +0.527485165  nElectrons: 546.000000
SCF: Cycle: 26   F: -3004.410957915547442   dF: -9.018e-05   |Residual|: 3.733e-03   |deigs|: 3.667e-05  t[s]:   4522.89
	FillingsUpdate:  mu: +0.527503459  nElectrons: 546.000000
SCF: Cycle: 27   F: -3004.410946411264376   dF: +1.150e-05   |Residual|: 4.067e-03   |deigs|: 3.022e-05  t[s]:   4566.57
	FillingsUpdate:  mu: +0.527512799  nElectrons: 546.000000
SCF: Cycle: 28   F: -3004.410974025638097   dF: -2.761e-05   |Residual|: 2.965e-03   |deigs|: 2.354e-05  t[s]:   4607.14
	FillingsUpdate:  mu: +0.527508266  nElectrons: 546.000000
SCF: Cycle: 29   F: -3004.410991284568354   dF: -1.726e-05   |Residual|: 1.894e-03   |deigs|: 1.793e-05  t[s]:   4649.36
	FillingsUpdate:  mu: +0.527495775  nElectrons: 546.000000
SCF: Cycle: 30   F: -3004.410982379122743   dF: +8.905e-06   |Residual|: 2.691e-03   |deigs|: 1.657e-05  t[s]:   4691.90
	FillingsUpdate:  mu: +0.527494943  nElectrons: 546.000000
SCF: Cycle: 31   F: -3004.410986872487683   dF: -4.493e-06   |Residual|: 2.413e-03   |deigs|: 1.475e-05  t[s]:   4735.12
	FillingsUpdate:  mu: +0.527497406  nElectrons: 546.000000
SCF: Cycle: 32   F: -3004.410986859808418   dF: +1.268e-08   |Residual|: 2.322e-03   |deigs|: 1.512e-05  t[s]:   4779.11
	FillingsUpdate:  mu: +0.527498523  nElectrons: 546.000000
SCF: Cycle: 33   F: -3004.411004498256716   dF: -1.764e-05   |Residual|: 8.445e-04   |deigs|: 1.092e-05  t[s]:   4819.95
	FillingsUpdate:  mu: +0.527503575  nElectrons: 546.000000
SCF: Cycle: 34   F: -3004.410993870332732   dF: +1.063e-05   |Residual|: 1.933e-03   |deigs|: 9.914e-06  t[s]:   4863.36
	FillingsUpdate:  mu: +0.527506731  nElectrons: 546.000000
SCF: Cycle: 35   F: -3004.410992883589188   dF: +9.867e-07   |Residual|: 1.738e-03   |deigs|: 1.322e-05  t[s]:   4903.30
	FillingsUpdate:  mu: +0.527503407  nElectrons: 546.000000
SCF: Cycle: 36   F: -3004.411003891741075   dF: -1.101e-05   |Residual|: 9.496e-04   |deigs|: 9.357e-06  t[s]:   4946.23
	FillingsUpdate:  mu: +0.527502026  nElectrons: 546.000000
SCF: Cycle: 37   F: -3004.411005976091019   dF: -2.084e-06   |Residual|: 5.183e-04   |deigs|: 5.318e-06  t[s]:   4983.23
	FillingsUpdate:  mu: +0.527499122  nElectrons: 546.000000
SCF: Cycle: 38   F: -3004.411004497641898   dF: +1.478e-06   |Residual|: 8.094e-04   |deigs|: 4.595e-06  t[s]:   5026.07
	FillingsUpdate:  mu: +0.527498370  nElectrons: 546.000000
SCF: Cycle: 39   F: -3004.411006474567785   dF: -1.977e-06   |Residual|: 3.920e-04   |deigs|: 3.807e-06  t[s]:   5068.90
	FillingsUpdate:  mu: +0.527498637  nElectrons: 546.000000
SCF: Cycle: 40   F: -3004.411005162368838   dF: +1.312e-06   |Residual|: 6.561e-04   |deigs|: 3.887e-06  t[s]:   5108.28
	FillingsUpdate:  mu: +0.527500732  nElectrons: 546.000000
SCF: Cycle: 41   F: -3004.411005611599194   dF: -4.492e-07   |Residual|: 6.146e-04   |deigs|: 4.265e-06  t[s]:   5148.81
	FillingsUpdate:  mu: +0.527501307  nElectrons: 546.000000
SCF: Cycle: 42   F: -3004.411006855983487   dF: -1.244e-06   |Residual|: 2.216e-04   |deigs|: 2.956e-06  t[s]:   5191.50
	FillingsUpdate:  mu: +0.527500840  nElectrons: 546.000000
SCF: Cycle: 43   F: -3004.411006678251852   dF: +1.777e-07   |Residual|: 3.156e-04   |deigs|: 1.735e-06  t[s]:   5229.81
	FillingsUpdate:  mu: +0.527500827  nElectrons: 546.000000
SCF: Cycle: 44   F: -3004.411006397431265   dF: +2.808e-07   |Residual|: 4.350e-04   |deigs|: 2.378e-06  t[s]:   5273.52
	FillingsUpdate:  mu: +0.527500253  nElectrons: 546.000000
SCF: Cycle: 45   F: -3004.411005975112857   dF: +4.223e-07   |Residual|: 5.525e-04   |deigs|: 2.681e-06  t[s]:   5316.71
	FillingsUpdate:  mu: +0.527500204  nElectrons: 546.000000
SCF: Cycle: 46   F: -3004.411006931786233   dF: -9.567e-07   |Residual|: 1.823e-04   |deigs|: 2.247e-06  t[s]:   5359.51
	FillingsUpdate:  mu: +0.527500177  nElectrons: 546.000000
SCF: Cycle: 47   F: -3004.411006854969855   dF: +7.682e-08   |Residual|: 2.310e-04   |deigs|: 1.264e-06  t[s]:   5396.50
	FillingsUpdate:  mu: +0.527500674  nElectrons: 546.000000
SCF: Cycle: 48   F: -3004.411006646120768   dF: +2.088e-07   |Residual|: 3.273e-04   |deigs|: 1.973e-06  t[s]:   5436.28
	FillingsUpdate:  mu: +0.527500322  nElectrons: 546.000000
SCF: Cycle: 49   F: -3004.411006997784170   dF: -3.517e-07   |Residual|: 1.051e-04   |deigs|: 1.583e-06  t[s]:   5476.64
Setting wave functions to eigenvectors of Hamiltonian

# Ionic positions in lattice coordinates:
ion Mn   0.388239849614924   0.183664037816126   0.613954059957940 1
ion Mn   0.249806119318026  -0.004294015986753   0.016710088520852 1
ion Mn   0.006109195757533   0.006841808324687  -0.005223326664465 1
ion Mn   0.245021303041734   0.249474727096582  -0.005356840924767 1
ion Mn   0.115258305944795   0.299866079323651   0.380091659985700 1
ion Mn  -0.017827664617020   0.001538265979355   0.498833731087874 1
ion Mn   0.377337450646443   0.675648120783689   0.641899851397914 1
ion Mn   0.260287304937045   0.498406035835345  -0.000396453481147 1
ion Mn  -0.011253283367275   0.486766019365258  -0.004754259632096 1
ion Mn   0.268587326916318   0.753059174676562   0.002870744476142 1
ion Mn   0.121433976307563   0.800999140532979   0.365885195085903 1
ion Mn  -0.000560752356153   0.487652742143869   0.507175649065909 1
ion Mn   0.873094687191556   0.185869387781170   0.614662272105094 1
ion Mn   0.747661349867969  -0.009813634332788  -0.010367948318757 1
ion Mn   0.485344674498384  -0.006418679695031   0.000795636758321 1
ion Mn   0.750903320123157   0.240091575754685  -0.009225412301118 1
ion Mn   0.631823313894998   0.303458522867465   0.367631488493724 1
ion Mn   0.510281771848459   0.011828385923837   0.496820566230607 1
ion Mn   0.866771789307535   0.693204857407358   0.623251618935561 1
ion Mn   0.724896785439932   0.514088982174707   0.999353214379560 1
ion Mn   0.498676761795907   0.503438755107579  -0.006741201088620 1
ion Mn   0.757636026929312   0.739598564232610   0.007152617559121 1
ion Mn   0.632705016786779   0.823963575256892   0.375569622851306 1
ion Mn   0.485808729744723   0.503401519332473   0.503979523764835 1
ion O   0.258062979412581   0.119462434797649   0.238208470266289 1
ion O   0.502623308043931   0.123061335840876   0.748381583203510 1
ion O   0.241579098790831   0.365508255515136   0.225059105136136 1
ion O   0.003161856133740   0.378479079721087   0.285637301608149 1
ion O   0.247149030246304   0.394687200276111   0.757404420222449 1
ion O   0.492906925803071   0.354503744579627   0.771392140882436 1
ion O   0.246902892105170   0.152310949057885   0.779612396506395 1
ion O  -0.000359771909006   0.124196963253274   0.234340423530240 1
ion O   0.245509346748911   0.588253485123012   0.244602398640658 1
ion O   0.495085529945442   0.633710972619157   0.736971203358383 1
ion O   0.243018386337557   0.859664933422740   0.245634386563304 1
ion O   0.008393999226173   0.892914149305128   0.273160650480022 1
ion O   0.235205592580860   0.908131586398743   0.751630926935976 1
ion O   0.498519769617899   0.857581096969761   0.753731453159496 1
ion O   0.245705520979441   0.652129083738796   0.755056159868123 1
ion O   0.016919193731544   0.618105914637851   0.235285907707981 1
ion O   0.751988229401522   0.114834532087037   0.244147092587213 1
ion O   1.006159186548568   0.137268290155254   0.731777486685104 1
ion O   0.738140671215543   0.357586041230651   0.231567148575231 1
ion O   0.496762622045283   0.382532049194255   0.284266094859434 1
ion O   0.747292833664999   0.383095838747770   0.739826166320427 1
ion O   0.983653550461293   0.370804850979522   0.763286016207011 1
ion O   0.761387297573396   0.138835229714915   0.773459594281981 1
ion O   0.500089728708926   0.127945659936468   0.236774320635134 1
ion O   0.740558927640362   0.624309416208975   0.234077293341440 1
ion O   0.981706453852652   0.602492603764554   0.724970754172500 1
ion O   0.739063065096254   0.869102702520003   0.245237996830121 1
ion O   0.508750033447317   0.887295919113092   0.264746874113040 1
ion O   1.009803011141198   0.890362606086622   0.774333121303801 1
ion O   0.742757194293823   0.638196735894390   0.772144073645399 1
ion O   0.530800177541772   0.643532391407350   0.236834940127221 1

# Forces in Lattice coordinates:
force Mn  -1.948555828859510   0.405761915574908   0.271892906627896 1
force Mn  -0.293248427128293   0.219774927457715   0.204683439649598 1
force Mn  -0.493141466355066   0.111942266007556   0.151759024473154 1
force Mn  -0.635796185688204   1.105454073223564   0.538222434971315 1
force Mn   0.531607560800432   1.122998579303335  -0.165462831126119 1
force Mn   0.713548626942707  -0.571135675447959  -0.195276147805552 1
force Mn  -4.242523310233418   3.198984837519142  -0.015775819790393 1
force Mn  -0.964108326859690   0.797433409263955   0.581756592370008 1
force Mn   0.023199806231329   0.117552335203111  -0.015425036499392 1
force Mn  -1.723489281207239   1.445423237419785   0.910923274133445 1
force Mn  -1.045072136720581   0.847170417770208   0.518716431489499 1
force Mn  -0.620367992089786   0.739322490975138   0.197211027141877 1
force Mn  -0.877918139986866   0.296733017221017   0.202587877637599 1
force Mn   0.252262936912403  -0.180925227676960  -0.105642072340703 1
force Mn   0.305804841442209  -0.212364432707547  -0.214850858627931 1
force Mn  -0.636956210008790   0.834112127603277   0.297699425208571 1
force Mn  -1.731309594317914   1.940535073901182   0.632088945284506 1
force Mn  -0.115620795828412  -0.268405252312247   0.135657076729386 1
force Mn   0.269555005684669  -0.408975024867399   0.156607555721811 1
force Mn   1.231823129566248  -1.371526151354317  -0.588294280941307 1
force Mn   0.283844448558299  -0.418968903279407  -0.031989864281588 1
force Mn  -1.317826016845362   2.091024800337121   0.577201622366678 1
force Mn  -1.007037470071792  -0.050501622967468   1.000633726967209 1
force Mn   0.512827013430583  -0.378201032487522  -0.093826715690515 1
force O  -0.614947664487714   0.658017722347573   0.019647594510282 1
force O   1.682715836542945  -1.875145547559004   0.114881824086439 1
force O  -0.166104850215427   0.176038796868548   0.202403141368528 1
force O  -0.007293087579036  -0.067314458259281  -0.327490902742784 1
force O   1.178727517482637  -1.171149992259989  -0.405483067484730 1
force O  -0.392015346221274   1.854377569219738   0.097877133259432 1
force O   1.452992581692011  -1.732527477116491  -0.735116655676744 1
force O  -0.118528235468699  -1.543496738821619  -0.031718864439550 1
force O  -0.652564168222822   0.899544973969365   0.065992896398404 1
force O   4.454979174925684  -4.067742303081264  -0.167187490522348 1
force O   0.937851158697636   0.142732644152492  -0.457679458323747 1
force O  -0.216898515343142   0.096334428787620  -0.192693384438188 1
force O   1.642364387360521  -1.457413962082063  -0.657051581556144 1
force O  -0.122258911094639   1.498973962626243  -0.011862149322397 1
force O   1.080549529042316  -1.588879114070307  -0.575315320667038 1
force O  -0.582245820059368  -0.222267301778086   0.273799135959689 1
force O  -0.225004134788244   0.152452358024721  -0.361343811956639 1
force O   0.622507050090524  -0.737643324380120   0.175326429216416 1
force O   1.558923496087036   0.178960597439568  -0.805753556042903 1
force O   0.161966067331996   0.028101594281285  -0.280934626754389 1
force O  -0.113204142059121  -0.222392208491248   0.468795145075145 1
force O   0.637079427255053   0.276437668199742  -0.288011965979699 1
force O   0.140562104017710  -0.722198050762893  -0.092505539708158 1
force O  -0.204006567526737  -1.280829431734842   0.102797479938040 1
force O  -0.835337124253528   0.514491560699847   0.664630906555376 1
force O   0.036665302566318   0.206574298111756   0.067151859442434 1
force O   2.056118538274879   0.062517095152438  -1.072806984657163 1
force O  -0.587241597498658   0.422393689483074  -0.027636708308906 1
force O   0.170976685684608  -0.053075380483833  -0.150735203270818 1
force O   1.428760677316944  -1.341146447824828  -0.908360272394138 1
force O  -0.759300182840118  -0.589682336493897   0.334181562883801 1

# Energy components:
   Eewald =    -2057.0625231638264268
       EH =      852.6014952023725755
     Eloc =    -2633.5486821137301376
      Enl =      493.8609053311820958
      Exc =     -427.3010679136064027
 Exc_core =       28.0185422385388208
       KE =      739.6127992890218366
-------------------------------------
     Etot =    -3003.8185311300476314
       TS =        0.5923843737745027
-------------------------------------
        F =    -3004.4109155038222525

IonicMinimize: Iter:   1  F: -3004.410915503822253  |grad|_K:  4.609e-02  alpha:  2.232e-01  linmin: -9.700e-01  t[s]:   5491.49

#--- Lowdin population analysis ---
# oxidation-state Mn +0.284 +0.231 +0.184 +0.249 +0.286 +0.237 +0.255 +0.222 +0.240 +0.272 +0.274 +0.242 +0.252 +0.154 +0.238 +0.234 +0.288 +0.230 +0.296 +0.231 +0.202 +0.158 +0.201 +0.242
# oxidation-state O -0.174 -0.137 -0.198 -0.155 -0.155 -0.108 -0.196 -0.142 -0.233 -0.035 -0.179 -0.218 -0.162 -0.195 -0.133 -0.180 -0.190 -0.129 -0.176 -0.240 -0.218 -0.155 -0.149 -0.112 -0.077 -0.245 -0.117 -0.132 -0.157 -0.088 -0.157


-------- Electronic minimization -----------
Will mix electronic density at each iteration.
	FillingsUpdate:  mu: +0.527500322  nElectrons: 546.000000
	FillingsUpdate:  mu: +0.526047077  nElectrons: 546.000000
SCF: Cycle:  0   F: -2970.214230716697784   dF: +3.187e+01   |Residual|: 2.800e+00   |deigs|: 5.169e-03  t[s]:   5588.45
	FillingsUpdate:  mu: +0.552246458  nElectrons: 546.000000
SCF: Cycle:  1   F: -2781.502177532189762   dF: +1.887e+02   |Residual|: 8.568e+00   |deigs|: 1.624e-01  t[s]:   5656.05
	FillingsUpdate:  mu: +0.523502740  nElectrons: 546.000000
SCF: Cycle:  2   F: -2915.749889583372351   dF: -1.342e+02   |Residual|: 5.014e+00   |deigs|: 1.259e-01  t[s]:   5723.41
	FillingsUpdate:  mu: +0.531106840  nElectrons: 546.000000
SCF: Cycle:  3   F: -2954.529021221376752   dF: -3.878e+01   |Residual|: 3.630e+00   |deigs|: 2.850e-02  t[s]:   5787.74
	FillingsUpdate:  mu: +0.529495916  nElectrons: 546.000000
SCF: Cycle:  4   F: -2974.283948735813283   dF: -1.975e+01   |Residual|: 2.857e+00   |deigs|: 1.121e-02  t[s]:   5853.42
	FillingsUpdate:  mu: +0.528657056  nElectrons: 546.000000
SCF: Cycle:  5   F: -2957.432972281441835   dF: +1.685e+01   |Residual|: 3.301e+00   |deigs|: 8.004e-03  t[s]:   5920.53
	FillingsUpdate:  mu: +0.528523019  nElectrons: 546.000000
SCF: Cycle:  6   F: -2978.251715231948310   dF: -2.082e+01   |Residual|: 2.727e+00   |deigs|: 6.632e-03  t[s]:   5992.44
	FillingsUpdate:  mu: +0.528177592  nElectrons: 546.000000
SCF: Cycle:  7   F: -3000.781180989042241   dF: -2.253e+01   |Residual|: 1.029e+00   |deigs|: 1.006e-02  t[s]:   6058.27
	FillingsUpdate:  mu: +0.528605389  nElectrons: 546.000000
SCF: Cycle:  8   F: -2999.235099264739802   dF: +1.546e+00   |Residual|: 1.158e+00   |deigs|: 1.792e-03  t[s]:   6125.85
	FillingsUpdate:  mu: +0.528707944  nElectrons: 546.000000
SCF: Cycle:  9   F: -3002.196267461657953   dF: -2.961e+00   |Residual|: 8.107e-01   |deigs|: 2.501e-03  t[s]:   6190.52
	FillingsUpdate:  mu: +0.528201764  nElectrons: 546.000000
SCF: Cycle: 10   F: -3002.287248066896154   dF: -9.098e-02   |Residual|: 7.343e-01   |deigs|: 1.149e-03  t[s]:   6256.47
	FillingsUpdate:  mu: +0.526174108  nElectrons: 546.000000
SCF: Cycle: 11   F: -3003.872303545967952   dF: -1.585e+00   |Residual|: 4.655e-01   |deigs|: 2.138e-03  t[s]:   6323.81
	FillingsUpdate:  mu: +0.525708640  nElectrons: 546.000000
SCF: Cycle: 12   F: -3004.332719136840296   dF: -4.604e-01   |Residual|: 2.873e-01   |deigs|: 1.559e-03  t[s]:   6394.41
	FillingsUpdate:  mu: +0.527226439  nElectrons: 546.000000
SCF: Cycle: 13   F: -3004.148189324288523   dF: +1.845e-01   |Residual|: 3.396e-01   |deigs|: 1.705e-03  t[s]:   6462.55
	FillingsUpdate:  mu: +0.526992164  nElectrons: 546.000000
SCF: Cycle: 14   F: -3004.233189945573031   dF: -8.500e-02   |Residual|: 3.046e-01   |deigs|: 9.062e-04  t[s]:   6529.92
	FillingsUpdate:  mu: +0.526669522  nElectrons: 546.000000
SCF: Cycle: 15   F: -3004.122252924913028   dF: +1.109e-01   |Residual|: 3.685e-01   |deigs|: 7.909e-04  t[s]:   6597.03
	FillingsUpdate:  mu: +0.526141238  nElectrons: 546.000000
SCF: Cycle: 16   F: -3004.538522475532773   dF: -4.163e-01   |Residual|: 9.424e-02   |deigs|: 8.587e-04  t[s]:   6664.81
	FillingsUpdate:  mu: +0.526406348  nElectrons: 546.000000
SCF: Cycle: 17   F: -3004.350334821422166   dF: +1.882e-01   |Residual|: 2.457e-01   |deigs|: 6.495e-04  t[s]:   6722.91
	FillingsUpdate:  mu: +0.526425197  nElectrons: 546.000000
SCF: Cycle: 18   F: -3004.537366232111253   dF: -1.870e-01   |Residual|: 8.796e-02   |deigs|: 5.794e-04  t[s]:   6781.46
	FillingsUpdate:  mu: +0.526643773  nElectrons: 546.000000
SCF: Cycle: 19   F: -3004.462716522348728   dF: +7.465e-02   |Residual|: 1.709e-01   |deigs|: 3.435e-04  t[s]:   6821.39
	FillingsUpdate:  mu: +0.526592322  nElectrons: 546.000000
SCF: Cycle: 20   F: -3004.560743808780444   dF: -9.803e-02   |Residual|: 4.576e-02   |deigs|: 3.200e-04  t[s]:   6863.24
	FillingsUpdate:  mu: +0.526712628  nElectrons: 546.000000
SCF: Cycle: 21   F: -3004.521779514290756   dF: +3.896e-02   |Residual|: 1.022e-01   |deigs|: 3.071e-04  t[s]:   6905.81
	FillingsUpdate:  mu: +0.526713127  nElectrons: 546.000000
SCF: Cycle: 22   F: -3004.566499127641237   dF: -4.472e-02   |Residual|: 2.146e-02   |deigs|: 2.703e-04  t[s]:   6947.37
	FillingsUpdate:  mu: +0.526713828  nElectrons: 546.000000
SCF: Cycle: 23   F: -3004.531917653806886   dF: +3.458e-02   |Residual|: 1.010e-01   |deigs|: 3.592e-04  t[s]:   6990.96
	FillingsUpdate:  mu: +0.526634349  nElectrons: 546.000000
SCF: Cycle: 24   F: -3004.566531511474750   dF: -3.461e-02   |Residual|: 2.238e-02   |deigs|: 3.345e-04  t[s]:   7032.13
	FillingsUpdate:  mu: +0.526617176  nElectrons: 546.000000
SCF: Cycle: 25   F: -3004.563923797359166   dF: +2.608e-03   |Residual|: 3.450e-02   |deigs|: 1.423e-04  t[s]:   7075.40
	FillingsUpdate:  mu: +0.526589468  nElectrons: 546.000000
SCF: Cycle: 26   F: -3004.567270524184551   dF: -3.347e-03   |Residual|: 1.847e-02   |deigs|: 1.469e-04  t[s]:   7117.64
	FillingsUpdate:  mu: +0.526605655  nElectrons: 546.000000
SCF: Cycle: 27   F: -3004.568107539016637   dF: -8.370e-04   |Residual|: 8.997e-03   |deigs|: 7.901e-05  t[s]:   7158.86
	FillingsUpdate:  mu: +0.526640648  nElectrons: 546.000000
SCF: Cycle: 28   F: -3004.566192265699101   dF: +1.915e-03   |Residual|: 2.444e-02   |deigs|: 8.606e-05  t[s]:   7200.90
	FillingsUpdate:  mu: +0.526636330  nElectrons: 546.000000
SCF: Cycle: 29   F: -3004.568208042513561   dF: -2.016e-03   |Residual|: 6.744e-03   |deigs|: 8.470e-05  t[s]:   7242.39
	FillingsUpdate:  mu: +0.526649783  nElectrons: 546.000000
SCF: Cycle: 30   F: -3004.568268935501237   dF: -6.089e-05   |Residual|: 5.767e-03   |deigs|: 3.488e-05  t[s]:   7285.47
	FillingsUpdate:  mu: +0.526643655  nElectrons: 546.000000
SCF: Cycle: 31   F: -3004.568257855915363   dF: +1.108e-05   |Residual|: 5.962e-03   |deigs|: 3.205e-05  t[s]:   7326.36
	FillingsUpdate:  mu: +0.526629324  nElectrons: 546.000000
SCF: Cycle: 32   F: -3004.568192449473827   dF: +6.541e-05   |Residual|: 6.817e-03   |deigs|: 3.449e-05  t[s]:   7367.51
	FillingsUpdate:  mu: +0.526629338  nElectrons: 546.000000
SCF: Cycle: 33   F: -3004.568105980316432   dF: +8.647e-05   |Residual|: 8.208e-03   |deigs|: 4.213e-05  t[s]:   7408.61
	FillingsUpdate:  mu: +0.526618157  nElectrons: 546.000000
SCF: Cycle: 34   F: -3004.568118494362807   dF: -1.251e-05   |Residual|: 8.390e-03   |deigs|: 4.894e-05  t[s]:   7448.34
	FillingsUpdate:  mu: +0.526627682  nElectrons: 546.000000
SCF: Cycle: 35   F: -3004.568186126877663   dF: -6.763e-05   |Residual|: 7.653e-03   |deigs|: 3.901e-05  t[s]:   7489.04
	FillingsUpdate:  mu: +0.526623697  nElectrons: 546.000000
SCF: Cycle: 36   F: -3004.568336027036821   dF: -1.499e-04   |Residual|: 3.756e-03   |deigs|: 3.296e-05  t[s]:   7532.04
	FillingsUpdate:  mu: +0.526627141  nElectrons: 546.000000
SCF: Cycle: 37   F: -3004.568373647603948   dF: -3.762e-05   |Residual|: 1.940e-03   |deigs|: 1.765e-05  t[s]:   7573.81
	FillingsUpdate:  mu: +0.526634512  nElectrons: 546.000000
SCF: Cycle: 38   F: -3004.568334509220676   dF: +3.914e-05   |Residual|: 3.814e-03   |deigs|: 1.562e-05  t[s]:   7614.43
	FillingsUpdate:  mu: +0.526641938  nElectrons: 546.000000
SCF: Cycle: 39   F: -3004.568384937289011   dF: -5.043e-05   |Residual|: 9.099e-04   |deigs|: 1.529e-05  t[s]:   7657.63
	FillingsUpdate:  mu: +0.526632804  nElectrons: 546.000000
SCF: Cycle: 40   F: -3004.568380350333427   dF: +4.587e-06   |Residual|: 1.448e-03   |deigs|: 1.122e-05  t[s]:   7699.14
	FillingsUpdate:  mu: +0.526631679  nElectrons: 546.000000
SCF: Cycle: 41   F: -3004.568384754880753   dF: -4.405e-06   |Residual|: 9.082e-04   |deigs|: 7.642e-06  t[s]:   7740.89
	FillingsUpdate:  mu: +0.526629624  nElectrons: 546.000000
SCF: Cycle: 42   F: -3004.568384039288503   dF: +7.156e-07   |Residual|: 1.062e-03   |deigs|: 5.719e-06  t[s]:   7783.28
	FillingsUpdate:  mu: +0.526628580  nElectrons: 546.000000
SCF: Cycle: 43   F: -3004.568386393389119   dF: -2.354e-06   |Residual|: 6.228e-04   |deigs|: 4.851e-06  t[s]:   7823.96
	FillingsUpdate:  mu: +0.526631366  nElectrons: 546.000000
SCF: Cycle: 44   F: -3004.568378682164621   dF: +7.711e-06   |Residual|: 1.499e-03   |deigs|: 6.105e-06  t[s]:   7864.90
	FillingsUpdate:  mu: +0.526632316  nElectrons: 546.000000
SCF: Cycle: 45   F: -3004.568387222081128   dF: -8.540e-06   |Residual|: 3.698e-04   |deigs|: 5.711e-06  t[s]:   7904.88
	FillingsUpdate:  mu: +0.526632917  nElectrons: 546.000000
SCF: Cycle: 46   F: -3004.568387270639505   dF: -4.856e-08   |Residual|: 3.476e-04   |deigs|: 2.199e-06  t[s]:   7938.39
	FillingsUpdate:  mu: +0.526633359  nElectrons: 546.000000
SCF: Cycle: 47   F: -3004.568384574252377   dF: +2.696e-06   |Residual|: 9.489e-04   |deigs|: 4.512e-06  t[s]:   7980.69
	FillingsUpdate:  mu: +0.526632663  nElectrons: 546.000000
SCF: Cycle: 48   F: -3004.568382025917799   dF: +2.548e-06   |Residual|: 1.213e-03   |deigs|: 6.224e-06  t[s]:   8022.08
	FillingsUpdate:  mu: +0.526632158  nElectrons: 546.000000
SCF: Cycle: 49   F: -3004.568387125991649   dF: -5.100e-06   |Residual|: 4.264e-04   |deigs|: 4.454e-06  t[s]:   8060.88
Setting wave functions to eigenvectors of Hamiltonian

# Ionic positions in lattice coordinates:
ion Mn   0.384381962795139   0.182267116282991   0.611833261416280 1
ion Mn   0.249857329763393  -0.003974511223169   0.017751872790111 1
ion Mn   0.005277455949322   0.006594923982592  -0.005232647894697 1
ion Mn   0.246311284948880   0.251577029817170  -0.001366903283593 1
ion Mn   0.117668908488519   0.302480871121193   0.381508446233373 1
ion Mn  -0.017142678055496   0.001064810587489   0.498433283568175 1
ion Mn   0.372381251781056   0.675667326879779   0.636306046515620 1
ion Mn   0.260330748531622   0.499504638380179   0.002714866493845 1
ion Mn  -0.011071067812936   0.487026004619414  -0.004667474869496 1
ion Mn   0.268267562306137   0.754844744511156   0.007267707351926 1
ion Mn   0.121169624029423   0.802070584189660   0.368400335391235 1
ion Mn  -0.000738508856207   0.488628448507707   0.508056879051038 1
ion Mn   0.871646819864416   0.185530536042269   0.614277767732942 1
ion Mn   0.747809008507523  -0.010009160039425  -0.010822167440171 1
ion Mn   0.485308164329847  -0.006730539258224  -0.000463810703459 1
ion Mn   0.751121824325380   0.241396600469536  -0.007377292503776 1
ion Mn   0.631387535771331   0.305941659375174   0.370424465844703 1
ion Mn   0.509951370322243   0.011281829653170   0.497260072188186 1
ion Mn   0.867430343133438   0.692941782159980   0.624791078177434 1
ion Mn   0.724830243932554   0.512169408108671   0.996175193316162 1
ion Mn   0.498790684810356   0.502947871298570  -0.006825752793774 1
ion Mn   0.758416249255055   0.742899182265085   0.010815170989442 1
ion Mn   0.632835288006767   0.823921617052748   0.380802812918638 1
ion Mn   0.486433709316443   0.503141800260778   0.504009685840409 1
ion O   0.257283417234045   0.120035767699582   0.237489063661471 1
ion O   0.504879413160462   0.121686170687974   0.751251478654535 1
ion O   0.241936201878883   0.365971867582811   0.226567508889096 1
ion O   0.002105578908662   0.377876822432882   0.282764288616800 1
ion O   0.247719799071484   0.393353963973707   0.755922333771195 1
ion O   0.494554111811228   0.357863278175404   0.773501389820515 1
ion O   0.246480363527210   0.149708569511511   0.775314707690603 1
ion O  -0.002779973869951   0.120952215903660   0.231794337293937 1
ion O   0.245099410718533   0.589366135472385   0.244574100946089 1
ion O   0.499065227978213   0.631932642074746   0.740622190563244 1
ion O   0.244518172466348   0.860618928010686   0.244691125611063 1
ion O   0.007351756553004   0.892521866594507   0.271024237527832 1
ion O   0.235946613097772   0.906419108441596   0.748848631730970 1
ion O   0.500223913075493   0.860552102785821   0.755383059381900 1
ion O   0.244880655946109   0.649583544472329   0.751453283142164 1
ion O   0.015734290357401   0.617228969139989   0.235658022554944 1
ion O   0.750542611148148   0.114342984160457   0.240705971031394 1
ion O   1.007330531898460   0.136827898542641   0.733948831771777 1
ion O   0.740403970391422   0.358973952459050   0.229619471334551 1
ion O   0.496470637926609   0.382421776947714   0.282376202666027 1
ion O   0.747995936568103   0.383131710664872   0.743190178668433 1
ion O   0.985026847418403   0.371871380216840   0.763044522716208 1
ion O   0.760487417261557   0.137369195673981   0.772106700757100 1
ion O   0.498155600473249   0.125262111268806   0.235407879916589 1
ion O   0.740791298368624   0.625084310794448   0.237777759219829 1
ion O   0.982302396840862   0.603091590453550   0.725960596162226 1
ion O   0.741676681895777   0.870494726941746   0.242365735470037 1
ion O   0.507616350875024   0.887320050739969   0.263438189546481 1
ion O   1.009778869120098   0.890272699985215   0.773455827513913 1
ion O   0.742339843102654   0.636209099210314   0.767108824461404 1
ion O   0.528766939351908   0.641699983936314   0.236690652577122 1

# Forces in Lattice coordinates:
force Mn  -1.498678760179425   0.265384075854362   0.406309609280381 1
force Mn  -0.118777897913306   0.128056504375733   0.068989714984468 1
force Mn  -0.474965165584005   0.106590899122828   0.117609503840589 1
force Mn  -0.187781965108415   0.664488700421516   0.269158037543046 1
force Mn   0.517484661386151   0.578155854111810  -0.204755401342396 1
force Mn   0.680096885931039  -0.491647896507267  -0.174579300216320 1
force Mn  -1.922055089698578   1.484150133934052  -0.148130911501662 1
force Mn  -0.645003838033569   0.513668966924304   0.391300514626644 1
force Mn   0.036725215699553   0.103584885137632  -0.018249406325478 1
force Mn  -1.200908360722462   0.926243002218113   0.582571319057940 1
force Mn  -0.773417990242464   0.701876356764136   0.361946250753152 1
force Mn  -0.530229145929781   0.663231290242272   0.133977483300044 1
force Mn  -0.584266137983404   0.121355398933675   0.128527993412378 1
force Mn   0.255199780607214  -0.199320498003638  -0.113151150990166 1
force Mn   0.314734829569542  -0.185328718573581  -0.214963218030904 1
force Mn  -0.510839514009116   0.722366652929867   0.231784199407444 1
force Mn  -1.305139299826477   1.466967497522214   0.363247602730710 1
force Mn  -0.131087939373927  -0.269037399846226   0.138946885172375 1
force Mn   0.294855921994904  -0.376567966939618   0.139361679044599 1
force Mn   0.978524334241144  -1.030543226533748  -0.411702345325415 1
force Mn   0.232650114189998  -0.306450324604832  -0.027808541099732 1
force Mn  -0.863545171642440   1.556310659209537   0.301461307301771 1
force Mn  -0.389376128465294  -0.116784163177010   0.653912010356702 1
force Mn   0.526903602106634  -0.399257121300276  -0.121169654276498 1
force O  -0.563602081570462   0.630945407613234  -0.011107423088983 1
force O   1.058049516561648  -1.199620520974286   0.083109874770169 1
force O  -0.186576833302762   0.241683284024662   0.194231515546841 1
force O  -0.052788526245746  -0.005921433277368  -0.282594656138143 1
force O   0.889119800240430  -0.876561624516887  -0.209446327194851 1
force O  -0.303043698662876   1.340021616877742   0.013835744676277 1
force O   1.040706557436696  -1.310110852375538  -0.516008477718500 1
force O  -0.152864914799880  -0.963610427734927   0.015704344444953 1
force O  -0.638192373252414   0.886571374356878   0.047549892035549 1
force O   2.283079745647232  -2.155407801659259  -0.018245258721070 1
force O   0.674574805164140   0.156269240561043  -0.326230779155864 1
force O  -0.176847634725553   0.060881540345375  -0.183761143545392 1
force O   1.374248549455263  -1.262513582879627  -0.474668228084863 1
force O  -0.127684814273312   1.209293066706676  -0.009766200978342 1
force O   0.487317084317855  -1.105764567332268  -0.220629012683822 1
force O  -0.621352349321582  -0.097590947816338   0.281682828269272 1
force O  -0.231628165406826   0.166142937523151  -0.301715513817722 1
force O   0.428196131332004  -0.559725597495028   0.173866450363528 1
force O   1.053820071213627   0.204630797068465  -0.532425557689176 1
force O   0.192338966907712   0.005338615768407  -0.265983277888001 1
force O  -0.136531735132054  -0.189844973764184   0.451510093083590 1
force O   0.632290747635867   0.189898376785058  -0.276318499692662 1
force O   0.001592347436230  -0.587131249302981  -0.021427237885769 1
force O  -0.146349945218152  -0.826020142532043   0.102473559685098 1
force O  -0.494551388535979   0.262209110099453   0.421586953246534 1
force O   0.038850858341730   0.200699284357582   0.076345983038190 1
force O   1.300787076578217   0.046200028619697  -0.686813759700486 1
force O  -0.432169894701678   0.284620357526560  -0.039263278013392 1
force O   0.171169084229260  -0.053999016740097  -0.147453956709606 1
force O   0.800027962093867  -0.844136431973919  -0.519526060680430 1
force O  -0.771133498213633  -0.441719018108909   0.329468042880256 1

# Energy components:
   Eewald =    -2062.0355182205798883
       EH =      848.1124532540720793
     Eloc =    -2623.6000565719282349
      Enl =      493.7994831807105811
      Exc =     -427.1168514679069403
 Exc_core =       28.0183721296638453
       KE =      738.8526306579772154
-------------------------------------
     Etot =    -3003.9694870379917120
       TS =        0.5987678920963444
-------------------------------------
        F =    -3004.5682549300881874

IonicMinimize: Iter:   2  F: -3004.568254930088187  |grad|_K:  3.038e-02  alpha:  5.619e-01  linmin: -9.901e-01  t[s]:   8075.76

#--- Lowdin population analysis ---
# oxidation-state Mn +0.297 +0.236 +0.188 +0.251 +0.296 +0.247 +0.279 +0.227 +0.242 +0.275 +0.277 +0.246 +0.262 +0.159 +0.247 +0.239 +0.301 +0.238 +0.299 +0.243 +0.216 +0.172 +0.217 +0.254
# oxidation-state O -0.167 -0.154 -0.187 -0.158 -0.160 -0.119 -0.217 -0.159 -0.219 -0.097 -0.182 -0.211 -0.165 -0.198 -0.147 -0.187 -0.192 -0.138 -0.189 -0.234 -0.210 -0.158 -0.155 -0.126 -0.092 -0.240 -0.134 -0.131 -0.161 -0.113 -0.160


-------- Electronic minimization -----------
Will mix electronic density at each iteration.
	FillingsUpdate:  mu: +0.526632158  nElectrons: 546.000000
	FillingsUpdate:  mu: +0.520567421  nElectrons: 546.000000
SCF: Cycle:  0   F: -2944.891472275602155   dF: +5.553e+01   |Residual|: 3.634e+00   |deigs|: 9.249e-03  t[s]:   8172.14
	FillingsUpdate:  mu: +0.552001472  nElectrons: 546.000000
SCF: Cycle:  1   F: -2759.845261530421340   dF: +1.850e+02   |Residual|: 9.338e+00   |deigs|: 2.020e-01  t[s]:   8238.95
	FillingsUpdate:  mu: +0.518839194  nElectrons: 546.000000
SCF: Cycle:  2   F: -2881.048590597573821   dF: -1.212e+02   |Residual|: 5.654e+00   |deigs|: 1.615e-01  t[s]:   8305.26
	FillingsUpdate:  mu: +0.531323285  nElectrons: 546.000000
SCF: Cycle:  3   F: -2928.436949856719366   dF: -4.739e+01   |Residual|: 4.440e+00   |deigs|: 3.717e-02  t[s]:   8373.72
	FillingsUpdate:  mu: +0.526986461  nElectrons: 546.000000
SCF: Cycle:  4   F: -2971.461684579169287   dF: -4.302e+01   |Residual|: 3.104e+00   |deigs|: 1.704e-02  t[s]:   8442.92
	FillingsUpdate:  mu: +0.530711750  nElectrons: 546.000000
SCF: Cycle:  5   F: -2944.379580962638101   dF: +2.708e+01   |Residual|: 3.782e+00   |deigs|: 1.704e-02  t[s]:   8509.66
	FillingsUpdate:  mu: +0.527908295  nElectrons: 546.000000
SCF: Cycle:  6   F: -2972.989403573417349   dF: -2.861e+01   |Residual|: 2.975e+00   |deigs|: 1.435e-02  t[s]:   8577.78
	FillingsUpdate:  mu: +0.527361217  nElectrons: 546.000000
SCF: Cycle:  7   F: -2997.832287921519310   dF: -2.484e+01   |Residual|: 1.462e+00   |deigs|: 1.172e-02  t[s]:   8646.76
	FillingsUpdate:  mu: +0.530290142  nElectrons: 546.000000
SCF: Cycle:  8   F: -2989.800512480150246   dF: +8.032e+00   |Residual|: 1.930e+00   |deigs|: 6.407e-03  t[s]:   8713.28
	FillingsUpdate:  mu: +0.529656424  nElectrons: 546.000000
SCF: Cycle:  9   F: -2992.605196194489963   dF: -2.805e+00   |Residual|: 1.722e+00   |deigs|: 4.127e-03  t[s]:   8784.41
	FillingsUpdate:  mu: +0.528736934  nElectrons: 546.000000
SCF: Cycle: 10   F: -2998.979829013102517   dF: -6.375e+00   |Residual|: 1.192e+00   |deigs|: 3.507e-03  t[s]:   8852.46
	FillingsUpdate:  mu: +0.527808088  nElectrons: 546.000000
SCF: Cycle: 11   F: -3000.758974715075055   dF: -1.779e+00   |Residual|: 9.904e-01   |deigs|: 1.697e-03  t[s]:   8918.14
	FillingsUpdate:  mu: +0.526132482  nElectrons: 546.000000
SCF: Cycle: 12   F: -3004.484045300193429   dF: -3.725e+00   |Residual|: 2.933e-01   |deigs|: 4.117e-03  t[s]:   8984.54
	FillingsUpdate:  mu: +0.526304267  nElectrons: 546.000000
SCF: Cycle: 13   F: -3003.878934590165500   dF: +6.051e-01   |Residual|: 5.190e-01   |deigs|: 9.987e-04  t[s]:   9056.11
	FillingsUpdate:  mu: +0.526339397  nElectrons: 546.000000
SCF: Cycle: 14   F: -3003.998719577906741   dF: -1.198e-01   |Residual|: 4.576e-01   |deigs|: 1.089e-03  t[s]:   9124.92
	FillingsUpdate:  mu: +0.525229918  nElectrons: 546.000000
SCF: Cycle: 15   F: -3002.605134494664526   dF: +1.394e+00   |Residual|: 7.548e-01   |deigs|: 2.076e-03  t[s]:   9192.15
	FillingsUpdate:  mu: +0.525123967  nElectrons: 546.000000
SCF: Cycle: 16   F: -3004.442587681060559   dF: -1.837e+00   |Residual|: 2.796e-01   |deigs|: 1.740e-03  t[s]:   9261.29
	FillingsUpdate:  mu: +0.525906042  nElectrons: 546.000000
SCF: Cycle: 17   F: -3003.639432884752750   dF: +8.032e-01   |Residual|: 5.489e-01   |deigs|: 1.416e-03  t[s]:   9330.22
	FillingsUpdate:  mu: +0.526119068  nElectrons: 546.000000
SCF: Cycle: 18   F: -3003.526090870648204   dF: +1.133e-01   |Residual|: 5.885e-01   |deigs|: 9.658e-04  t[s]:   9398.61
	FillingsUpdate:  mu: +0.526183614  nElectrons: 546.000000
SCF: Cycle: 19   F: -3002.259114245861838   dF: +1.267e+00   |Residual|: 8.326e-01   |deigs|: 1.294e-03  t[s]:   9467.12
	FillingsUpdate:  mu: +0.525946810  nElectrons: 546.000000
SCF: Cycle: 20   F: -3003.878077964935073   dF: -1.619e+00   |Residual|: 4.698e-01   |deigs|: 1.507e-03  t[s]:   9535.72
	FillingsUpdate:  mu: +0.525936386  nElectrons: 546.000000
SCF: Cycle: 21   F: -3004.703854585249246   dF: -8.258e-01   |Residual|: 2.683e-02   |deigs|: 9.277e-04  t[s]:   9599.72
	FillingsUpdate:  mu: +0.525932666  nElectrons: 546.000000
SCF: Cycle: 22   F: -3004.653515460541257   dF: +5.034e-02   |Residual|: 1.241e-01   |deigs|: 2.915e-04  t[s]:   9639.89
	FillingsUpdate:  mu: +0.525970912  nElectrons: 546.000000
SCF: Cycle: 23   F: -3004.588608771220152   dF: +6.491e-02   |Residual|: 1.610e-01   |deigs|: 4.822e-04  t[s]:   9681.53
	FillingsUpdate:  mu: +0.525926927  nElectrons: 546.000000
SCF: Cycle: 24   F: -3004.700511635614475   dF: -1.119e-01   |Residual|: 3.931e-02   |deigs|: 4.100e-04  t[s]:   9724.53
	FillingsUpdate:  mu: +0.525901874  nElectrons: 546.000000
SCF: Cycle: 25   F: -3004.701629008886357   dF: -1.117e-03   |Residual|: 3.547e-02   |deigs|: 2.088e-04  t[s]:   9764.70
	FillingsUpdate:  mu: +0.525869261  nElectrons: 546.000000
SCF: Cycle: 26   F: -3004.695645689178946   dF: +5.983e-03   |Residual|: 4.888e-02   |deigs|: 1.749e-04  t[s]:   9806.06
	FillingsUpdate:  mu: +0.525853802  nElectrons: 546.000000
SCF: Cycle: 27   F: -3004.704304215933917   dF: -8.659e-03   |Residual|: 2.236e-02   |deigs|: 1.593e-04  t[s]:   9847.22
	FillingsUpdate:  mu: +0.525862588  nElectrons: 546.000000
SCF: Cycle: 28   F: -3004.702697312729015   dF: +1.607e-03   |Residual|: 3.062e-02   |deigs|: 1.589e-04  t[s]:   9889.04
[...]
ion O   0.495841757758527   0.889116126053612   0.755560191451301 1
ion O   0.254819425608007   0.633612619129598   0.765703465842900 1
ion O  -0.005350772177733   0.610732622777056   0.256800871969680 1
ion O   0.737458181647739   0.116844986109976   0.233075737459269 1
ion O   1.028070580778585   0.129798155110709   0.757103411373596 1
ion O   0.768409864677656   0.385094737526508   0.268852335694793 1
ion O   0.508500034023541   0.378338555197778   0.262581925522849 1
ion O   0.766460368958569   0.385171946785652   0.800838053128605 1
ion O   0.995559179942815   0.367582886850646   0.756308161313834 1
ion O   0.732789956608696   0.121250516137336   0.758766125066376 1
ion O   0.505771089529832   0.125349974634294   0.260100073917359 1
ion O   0.741176126543547   0.622302965489882   0.247294581761980 1
ion O   1.010004245472878   0.634500489754990   0.771704760769612 1
ion O   0.751156200544144   0.875509007890139   0.224983129430660 1
ion O   0.503318296822053   0.877439622605731   0.264579529850807 1
ion O   1.026454870365054   0.900303531868085   0.749499944025916 1
ion O   0.731777629340839   0.611830246198481   0.758234968249828 1
ion O   0.489558692638806   0.617490727899089   0.249199023298664 1

# Forces in Lattice coordinates:
force Mn   0.002942795262223  -0.000997188230299  -0.005921947690122 1
force Mn   0.000784064452377   0.004349622330441   0.000512193292810 1
force Mn  -0.003686028663989   0.001921022833572   0.002868913394289 1
force Mn  -0.000340364459512  -0.001727885593775   0.000972411395679 1
force Mn   0.002686516115366  -0.001219331353182  -0.000208784480114 1
force Mn  -0.001338478046998  -0.000051593971217  -0.000739934890760 1
force Mn  -0.000140134421420   0.005000220597716  -0.000923517345166 1
force Mn  -0.003917326980690   0.006059872431473   0.000276537538343 1
force Mn   0.000818949371569   0.001995457032876   0.000508735610051 1
force Mn  -0.000462191825391   0.004234950957357   0.000136321411503 1
force Mn  -0.002507763823314  -0.002071999090282   0.000947653784737 1
force Mn   0.005099506585454  -0.000806756679844  -0.003061005336377 1
force Mn  -0.001534200365015  -0.002475715588284   0.000717604986663 1
force Mn  -0.003834447043625  -0.006790963328218   0.004001016096285 1
force Mn   0.002202984699574  -0.003169168233573   0.001501704912741 1
force Mn   0.000243737773757  -0.001121852836698  -0.002359163759362 1
force Mn   0.006173844367424  -0.000067112004434  -0.002742958292254 1
force Mn   0.005200918624478  -0.001081920520325  -0.001334672367238 1
force Mn  -0.004628933539116   0.007185198449235   0.001355949737721 1
force Mn  -0.001701342578933  -0.003148476370202   0.000703934549402 1
force Mn  -0.001780282246979   0.007327383595763  -0.002060987715907 1
force Mn  -0.007177812407295   0.010003552278823   0.002823812862227 1
force Mn  -0.004652861184303   0.005689482390229  -0.000396604444822 1
force Mn  -0.004686303901448   0.002413163392375   0.001539313041174 1
force O  -0.001528725026909   0.001723570079314   0.004986261383824 1
force O  -0.000152796479913   0.001521813343008   0.000326680269257 1
force O  -0.000798272710463  -0.000912085803505   0.000613201323084 1
force O   0.005321940127352  -0.003522839262447  -0.001484293736339 1
force O   0.003267134410831  -0.004507142246484  -0.002132226902176 1
force O  -0.000275271931727   0.005543011366565   0.000597893412002 1
force O  -0.000295834650044  -0.001474412727087   0.000021849038572 1
force O   0.002633063309890  -0.000987313034980  -0.001203695144641 1
force O   0.001198556398746   0.000868984465673  -0.002633037448450 1
force O   0.000290359818817  -0.000196792315367  -0.000054482796890 1
force O  -0.004676635886127   0.006913802134110   0.000545347013068 1
force O  -0.002123421388830   0.002561511124229  -0.000719715109496 1
force O  -0.002510860746269   0.003379687103675  -0.001104789948642 1
force O   0.003407687599227  -0.004230486561280  -0.001517384099531 1
force O  -0.001199989113775  -0.002959437349354   0.001071222226546 1
force O  -0.003124845228972   0.005294004830209  -0.000130211862083 1
force O   0.002868546075107  -0.001229148590592  -0.000147380057868 1
force O   0.001816030236137   0.001531049631241   0.000172196895115 1
force O  -0.004236160538376   0.004185384748740   0.000785150635042 1
force O   0.003579193594841  -0.001263884963425  -0.000641471843566 1
force O  -0.002993651396280   0.002907643433275   0.003114755362552 1
force O  -0.000172748714857   0.000921901498887  -0.000201867191716 1
force O   0.001034700850874  -0.001581003773079   0.000271566094053 1
force O  -0.002471355709492   0.004747203645818   0.000070461410798 1
force O  -0.003505258066164   0.000942031999860   0.001726653314983 1
force O   0.000999452646458  -0.000341745600243  -0.000898761671596 1
force O   0.004867044582548  -0.002747410501727  -0.002015692851586 1
force O  -0.005027574036193   0.004603643988784  -0.000780442323484 1
force O  -0.002873616388477  -0.000180445820017   0.000355905422041 1
force O  -0.002715050423903   0.000681905716925   0.000564894825122 1
force O  -0.004725959518965   0.002784905664773   0.001462182641429 1

# Energy components:
   Eewald =    -2068.3557935570725022
       EH =      841.2234506493422259
     Eloc =    -2608.2310531150433235
      Enl =      492.9059496646092384
      Exc =     -426.3789036404957074
 Exc_core =       28.0177142590962802
       KE =      736.4223929835719673
-------------------------------------
     Etot =    -3004.3962427559913522
       TS =        0.5971070713556976
-------------------------------------
        F =    -3004.9933498273471741

IonicMinimize: Iter:  37  F: -3004.993349827347174  |grad|_K:  1.545e-04  alpha:  4.601e-01  linmin: -1.621e-03  t[s]:  93603.15

#--- Lowdin population analysis ---
# oxidation-state Mn +0.327 +0.249 +0.137 +0.250 +0.332 +0.282 +0.355 +0.265 +0.277 +0.264 +0.328 +0.265 +0.290 +0.195 +0.261 +0.282 +0.353 +0.266 +0.282 +0.274 +0.263 +0.192 +0.161 +0.267
# oxidation-state O -0.197 -0.212 -0.178 -0.198 -0.194 -0.202 -0.214 -0.190 -0.171 -0.173 -0.162 -0.191 -0.170 -0.162 -0.173 -0.205 -0.209 -0.170 -0.186 -0.147 -0.194 -0.179 -0.189 -0.156 -0.197 -0.208 -0.179 -0.176 -0.171 -0.186 -0.205


-------- Electronic minimization -----------
Will mix electronic density at each iteration.
	FillingsUpdate:  mu: +0.518799882  nElectrons: 546.000000
	FillingsUpdate:  mu: +0.518787990  nElectrons: 546.000000
SCF: Cycle:  0   F: -3004.992590022727200   dF: +7.475e-04   |Residual|: 1.132e-02   |deigs|: 2.793e-07  t[s]:  93673.43
	FillingsUpdate:  mu: +0.518769451  nElectrons: 546.000000
SCF: Cycle:  1   F: -3004.890400148091430   dF: +1.022e-01   |Residual|: 1.414e-01   |deigs|: 4.397e-04  t[s]:  93714.00
	FillingsUpdate:  mu: +0.518789713  nElectrons: 546.000000
SCF: Cycle:  2   F: -3004.993075461374247   dF: -1.027e-01   |Residual|: 9.093e-03   |deigs|: 4.089e-04  t[s]:  93751.88
	FillingsUpdate:  mu: +0.518792166  nElectrons: 546.000000
SCF: Cycle:  3   F: -3004.993223671650412   dF: -1.482e-04   |Residual|: 6.301e-03   |deigs|: 5.100e-05  t[s]:  93795.04
	FillingsUpdate:  mu: +0.518787974  nElectrons: 546.000000
SCF: Cycle:  4   F: -3004.993207766005980   dF: +1.591e-05   |Residual|: 6.624e-03   |deigs|: 3.196e-05  t[s]:  93835.11
	FillingsUpdate:  mu: +0.518786543  nElectrons: 546.000000
SCF: Cycle:  5   F: -3004.993354116877526   dF: -1.464e-04   |Residual|: 1.594e-03   |deigs|: 2.337e-05  t[s]:  93876.97
	FillingsUpdate:  mu: +0.518789218  nElectrons: 546.000000
SCF: Cycle:  6   F: -3004.993288428094274   dF: +6.569e-05   |Residual|: 4.842e-03   |deigs|: 1.810e-05  t[s]:  93921.19
	FillingsUpdate:  mu: +0.518791707  nElectrons: 546.000000
SCF: Cycle:  7   F: -3004.993360485123958   dF: -7.206e-05   |Residual|: 7.077e-04   |deigs|: 1.542e-05  t[s]:  93961.21
	FillingsUpdate:  mu: +0.518790781  nElectrons: 546.000000
SCF: Cycle:  8   F: -3004.993356845962808   dF: +3.639e-06   |Residual|: 1.207e-03   |deigs|: 5.990e-06  t[s]:  94001.69
	FillingsUpdate:  mu: +0.518787968  nElectrons: 546.000000
SCF: Cycle:  9   F: -3004.993360961454528   dF: -4.115e-06   |Residual|: 5.280e-04   |deigs|: 5.343e-06  t[s]:  94044.67
	FillingsUpdate:  mu: +0.518788193  nElectrons: 546.000000
SCF: Cycle: 10   F: -3004.993361776825623   dF: -8.154e-07   |Residual|: 2.929e-04   |deigs|: 2.366e-06  t[s]:  94082.19
	FillingsUpdate:  mu: +0.518790420  nElectrons: 546.000000
SCF: Cycle: 11   F: -3004.993361960277070   dF: -1.835e-07   |Residual|: 2.187e-04   |deigs|: 2.256e-06  t[s]:  94123.63
	FillingsUpdate:  mu: +0.518791626  nElectrons: 546.000000
SCF: Cycle: 12   F: -3004.993360680626211   dF: +1.280e-06   |Residual|: 6.037e-04   |deigs|: 2.940e-06  t[s]:  94164.91
	FillingsUpdate:  mu: +0.518789879  nElectrons: 546.000000
SCF: Cycle: 13   F: -3004.993362063848963   dF: -1.383e-06   |Residual|: 1.305e-04   |deigs|: 2.873e-06  t[s]:  94206.33
	FillingsUpdate:  mu: +0.518789769  nElectrons: 546.000000
SCF: Cycle: 14   F: -3004.993362094809527   dF: -3.096e-08   |Residual|: 1.022e-04   |deigs|: 6.230e-07  t[s]:  94241.97
	FillingsUpdate:  mu: +0.518789777  nElectrons: 546.000000
SCF: Cycle: 15   F: -3004.993362109261398   dF: -1.445e-08   |Residual|: 7.125e-05   |deigs|: 4.855e-07  t[s]:  94283.64
	FillingsUpdate:  mu: +0.518789592  nElectrons: 546.000000
SCF: Cycle: 16   F: -3004.993362114911633   dF: -5.650e-09   |Residual|: 6.265e-05   |deigs|: 3.809e-07  t[s]:  94321.80
	FillingsUpdate:  mu: +0.518789590  nElectrons: 546.000000
SCF: Cycle: 17   F: -3004.993362109848476   dF: +5.063e-09   |Residual|: 7.594e-05   |deigs|: 3.908e-07  t[s]:  94360.38
	FillingsUpdate:  mu: +0.518789575  nElectrons: 546.000000
SCF: Cycle: 18   F: -3004.993362091599920   dF: +1.825e-08   |Residual|: 1.061e-04   |deigs|: 4.551e-07  t[s]:  94402.19
	FillingsUpdate:  mu: +0.518789825  nElectrons: 546.000000
SCF: Cycle: 19   F: -3004.993362129083380   dF: -3.748e-08   |Residual|: 1.096e-05   |deigs|: 3.879e-07  t[s]:  94441.41
	FillingsUpdate:  mu: +0.518789838  nElectrons: 546.000000
SCF: Cycle: 20   F: -3004.993362123532734   dF: +5.551e-09   |Residual|: 4.053e-05   |deigs|: 1.645e-07  t[s]:  94474.94
	FillingsUpdate:  mu: +0.518789774  nElectrons: 546.000000
SCF: Cycle: 21   F: -3004.993362128943772   dF: -5.411e-09   |Residual|: 8.757e-06   |deigs|: 1.592e-07  t[s]:  94509.42
	FillingsUpdate:  mu: +0.518789744  nElectrons: 546.000000
SCF: Cycle: 22   F: -3004.993362128634089   dF: +3.097e-10   |Residual|: 1.134e-05   |deigs|: 7.205e-08  t[s]:  94534.92
	FillingsUpdate:  mu: +0.518789784  nElectrons: 546.000000
SCF: Cycle: 23   F: -3004.993362128953777   dF: -3.197e-10   |Residual|: 7.192e-06   |deigs|: 5.967e-08  t[s]:  94562.22
	FillingsUpdate:  mu: +0.518789798  nElectrons: 546.000000
SCF: Cycle: 24   F: -3004.993362129542675   dF: -5.889e-10   |Residual|: 4.500e-06   |deigs|: 3.766e-08  t[s]:  94588.54
SCF: Converged (|Delta E|<1.000000e-08 for 2 iters).

Setting wave functions to eigenvectors of Hamiltonian

# Ionic positions in lattice coordinates:
ion Mn   0.369655607231957   0.183738669121219   0.612439364172706 1
ion Mn   0.265325560305421   0.002879180824942   0.013765092084371 1
ion Mn  -0.073072739287359  -0.035779872273021  -0.134074600941464 1
ion Mn   0.268390358224385   0.265561843319164   0.020657730650248 1
ion Mn   0.114135314989807   0.296390253047380   0.369256736206391 1
ion Mn  -0.001313257695288   0.003124784929298   0.472402679433792 1
ion Mn   0.390497200598484   0.694012846643434   0.636200826319403 1
ion Mn   0.238095108100786   0.502867629695001  -0.009708140317426 1
ion Mn   0.008605458848142   0.503001943476846   0.002132987474690 1
ion Mn   0.258506201179637   0.763001420440017   0.008624381303680 1
ion Mn   0.103043432429196   0.810070920906955   0.351817873191288 1
ion Mn   0.012374203852343   0.504792609894188   0.542390586442115 1
ion Mn   0.862551446340174   0.157493504932426   0.627645220361453 1
ion Mn   0.730195652752312  -0.024632073329989  -0.048525903663260 1
ion Mn   0.491938562525064  -0.005602448419299   0.012902582580757 1
ion Mn   0.756267506618857   0.252604068077941   0.023471240718155 1
ion Mn   0.645226054547601   0.319660033559281   0.411195932531735 1
ion Mn   0.489041319215814  -0.004844705041487   0.483842498447474 1
ion Mn   0.866679863380635   0.707797019798891   0.638089701825646 1
ion Mn   0.749643606993167   0.503665447515244   1.021570618329937 1
ion Mn   0.498725677038558   0.497110408956098   0.020321343483889 1
ion Mn   0.729051779888175   0.755707084696579  -0.052982599430770 1
ion Mn   0.663410924168438   0.829672501148852   0.476275682172604 1
ion Mn   0.488837763555932   0.491102777099572   0.479618256369470 1
ion O   0.272793945609198   0.136791094796778   0.236820573770352 1
ion O   0.507213719673041   0.121078544197126   0.766389495941351 1
ion O   0.246780135736920   0.377483117813423   0.238411550410304 1
ion O   0.001139610404461   0.384059243498549   0.262900928951684 1
ion O   0.253222605057671   0.384326235061883   0.767437688277452 1
ion O   0.503334983375289   0.382353462001181   0.760193210606444 1
ion O   0.250136806687761   0.126283852965794   0.763617557687167 1
ion O  -0.028123523082070   0.099049477057428   0.178395059701985 1
ion O   0.249619202965935   0.632329135167359   0.242458744493050 1
ion O   0.497224856358617   0.604413968137838   0.756841343197711 1
ion O   0.246949909794061   0.878025937790929   0.247094177558419 1
ion O  -0.029288127691407   0.876543875021263   0.179135460546710 1
ion O   0.248824320550853   0.874999558940372   0.747917800301105 1
ion O   0.495848226119425   0.889108354552733   0.755461418505911 1
ion O   0.254793935084737   0.633639109417919   0.765569862092173 1
ion O  -0.005372631360599   0.610762197069588   0.256715651869261 1
ion O   0.737543914173589   0.116787438620886   0.233082725422550 1
ion O   1.028147564797483   0.129788408139050   0.757320983721974 1
ion O   0.768448656086024   0.385099983840937   0.268846523612927 1
ion O   0.508578783522124   0.378352363626884   0.262615163910622 1
ion O   0.766491708306948   0.385184510623685   0.801038096730156 1
ion O   0.995492185219999   0.367587862188781   0.756154756581582 1
ion O   0.732766268980229   0.121185072279104   0.758713804169876 1
ion O   0.505857775980667   0.125442428880639   0.260124286041787 1
ion O   0.741149438923410   0.622253925867843   0.247489638329260 1
ion O   1.010042354318220   0.634474715932930   0.771677580566276 1
ion O   0.751161006603961   0.875487991133375   0.225081918065430 1
ion O   0.503267487294478   0.877408097186254   0.264530375384205 1
ion O   1.026419784420830   0.900296397581461   0.749405185989899 1
ion O   0.731686790658873   0.611811864994071   0.758285212555692 1
ion O   0.489375699627033   0.617425926594407   0.249073135259800 1

# Forces in Lattice coordinates:
force Mn  -0.000113500936223   0.001059698456968  -0.000006627624124 1
force Mn   0.000183452589801   0.003524819758937   0.000217300348240 1
force Mn  -0.002299203495303   0.003430690675663   0.001612351569475 1
force Mn   0.001620851772532  -0.001007483576781  -0.000068634171829 1
force Mn   0.002677084117043  -0.001052974487981   0.000057813329694 1
force Mn  -0.000463478656208  -0.000527348076710   0.000234416241817 1
force Mn  -0.000457058431782   0.000889732873212  -0.000769967248552 1
force Mn  -0.002861120679060   0.005088838210675  -0.000086713530036 1
force Mn   0.001497000710141   0.000547592129630  -0.000769939788490 1
force Mn  -0.001676702507192   0.004095311280182  -0.000172679459289 1
force Mn  -0.001716018619328   0.000795031131090   0.000014220528345 1
force Mn   0.001880506234766  -0.001285363181017  -0.001479216427322 1
force Mn   0.000416478381972  -0.002939803348715   0.000293031285304 1
force Mn  -0.001466229630432  -0.002427573060389   0.001851357466078 1
force Mn  -0.000477331501590   0.001074939775342   0.000293501641618 1
force Mn  -0.000595488434625  -0.000216238739571  -0.001192026130093 1
force Mn   0.002156172908908   0.003876472506752  -0.000017280389640 1
force Mn   0.000599529178864   0.001585872729867  -0.000699507380589 1
force Mn  -0.003589657691587   0.004500684660806   0.001184074653995 1
force Mn  -0.004181250038980   0.001927216819622   0.000814005449349 1
force Mn  -0.000830019514065   0.002094223509815  -0.000544716725525 1
force Mn  -0.001032822210617   0.001554231961182   0.000220214410284 1
force Mn  -0.003301736366545   0.002748936426166   0.000207548826568 1
force Mn  -0.002155779350424   0.000543524273816   0.000676596779678 1
force O  -0.001075172999661   0.002288202184780   0.000694171752466 1
force O   0.000392937351507   0.001490156665764  -0.000288800735569 1
force O   0.001137770663710  -0.003131556131280   0.000676771361038 1
force O   0.003148935889432  -0.001517262447214  -0.001335138347659 1
force O   0.003646012121189  -0.004022428145001  -0.001149690965312 1
force O  -0.002009381599334   0.002766192122687   0.000422606142328 1
force O   0.000687464404390  -0.000869901693838  -0.000713218226746 1
force O   0.002663347774492  -0.002228500888296  -0.000852287275078 1
force O   0.001746265853673   0.000578015561471  -0.001718272074075 1
force O  -0.000815164604146   0.002869355479247  -0.000262123797870 1
force O  -0.001897108379782   0.004327867367094   0.000278444406730 1
force O  -0.000116390550138   0.001559504843570  -0.000233701755784 1
force O  -0.002149815562609   0.003498447029921  -0.000176134203270 1
force O   0.000288204664010  -0.000779845403310  -0.000440080469577 1
force O  -0.000378297952080  -0.001697084231114   0.000841693347994 1
force O  -0.001372224307661   0.002401323486781  -0.000117825031596 1
force O   0.001236523173641  -0.000730098525258  -0.000145706890411 1
force O   0.001608097859608   0.000717225848601  -0.000037215238225 1
force O  -0.001602370209958   0.002433976384083  -0.000491451972214 1
force O   0.002107713191632  -0.000416269690048  -0.000397392898755 1
force O  -0.002275255809016   0.002621775735424   0.000685960524069 1
force O   0.000016588171838   0.000489436937940  -0.000146216747017 1
force O   0.000197031742086  -0.001708721107418   0.000808429172768 1
force O  -0.001552424068311   0.001171064307102  -0.000174074984677 1
force O  -0.003264953969025   0.002080410890235   0.001245516406834 1
force O   0.000867984038047   0.000347191212522  -0.000846059876090 1
force O   0.001306337268812  -0.001915951793810   0.000187458502906 1
force O  -0.002726888916385   0.003626554161376  -0.000899363586741 1
force O  -0.001851491515433   0.001633913562176   0.000871758141991 1
force O  -0.002817249635084   0.001605988459584   0.000601423413159 1
force O  -0.002540311083269   0.002084915515898   0.001095642615375 1

# Energy components:
   Eewald =    -2068.3274817878786962
       EH =      841.2475805914148168
     Eloc =    -2608.2821440822581280
      Enl =      492.9042419690946417
      Exc =     -426.3786083813873802
 Exc_core =       28.0177168831388741
       KE =      736.4223566097225557
-------------------------------------
     Etot =    -3004.3963381981534440
       TS =        0.5970239313892296
-------------------------------------
        F =    -3004.9933621295426747

IonicMinimize: Iter:  38  F: -3004.993362129542675  |grad|_K:  8.227e-05  alpha:  1.000e+00  linmin: -4.482e-01  t[s]:  94601.02
IonicMinimize: Converged (|grad|_K<1.000000e-04).

#--- Lowdin population analysis ---
# oxidation-state Mn +0.327 +0.249 +0.137 +0.250 +0.332 +0.282 +0.355 +0.265 +0.278 +0.264 +0.328 +0.265 +0.290 +0.194 +0.261 +0.282 +0.353 +0.266 +0.282 +0.274 +0.263 +0.192 +0.161 +0.267
# oxidation-state O -0.196 -0.212 -0.178 -0.198 -0.194 -0.202 -0.214 -0.190 -0.170 -0.173 -0.162 -0.191 -0.170 -0.162 -0.173 -0.204 -0.209 -0.170 -0.186 -0.147 -0.194 -0.179 -0.189 -0.155 -0.197 -0.209 -0.179 -0.176 -0.171 -0.186 -0.205


Dumping '/data/rc652/Mn3O4/vac/Mn3O4_vac.Ecomponents' ... done
End date and time: Sat Jul 13 17:40:03 2024  (Duration: 1-2:16:46.90)
Done!
