--------------------------------------------------------------------------
[[45870,1],1]: A high-performance Open MPI point-to-point messaging module
was unable to find any relevant network interfaces:

Module: OpenFabrics (openib)
  Host: node3220

Another transport will be used instead, although this may result in
lower performance.
--------------------------------------------------------------------------

*************** JDFTx 1.7.0 (git hash 3664913) ***************

Start date and time: Fri Jun 28 15:10:29 2024
Executable jdftx with command-line: -i Tc_oct.in
Running on hosts (process indices):  node3220.physics.cornell.edu (0-15)
Divided in process groups (process indices):  0 (0)  1 (1)  2 (2)  3 (3)  4 (4)  5 (5)  6 (6)  7 (7)  8 (8)  9 (9)  10 (10)  11 (11)  12 (12)  13 (13)  14 (14)  15 (15)
Resource initialization completed at t[s]:      0.00
Run totals: 16 processes, 32 threads, 0 GPUs


Input parsed successfully to the following command list (including defaults):

basis kpoint-dependent
coords-type Lattice
core-overlap-check vector
coulomb-interaction Periodic
davidson-band-ratio 1.1
dump End Ecomponents
dump-name /data/rc652/Tc/oct/Tc_oct.$VAR
elec-cutoff 20 100
elec-eigen-algo Davidson
elec-ex-corr gga-PBEsol
elec-smearing Fermi 0.01
electronic-minimize  \
	dirUpdateScheme      FletcherReeves \
	linminMethod         DirUpdateRecommended \
	nIterations          100 \
	history              15 \
	knormThreshold       0 \
	maxThreshold         no \
	energyDiffThreshold  1e-08 \
	nEnergyDiff          2 \
	alphaTstart          1 \
	alphaTmin            1e-10 \
	updateTestStepSize   yes \
	alphaTreduceFactor   0.1 \
	alphaTincreaseFactor 3 \
	nAlphaAdjustMax      3 \
	wolfeEnergy          0.0001 \
	wolfeGradient        0.9 \
	fdTest               no
electronic-scf  \
	nIterations	50 \
	energyDiffThreshold	1e-08 \
	residualThreshold	1e-07 \
	mixFraction	0.5 \
	qMetric	0.8 \
	history	10 \
	nEigSteps	2 \
	eigDiffThreshold	1e-08 \
	mixedVariable	Density \
	qKerker	0.8 \
	qKappa	-1 \
	verbose	no \
	mixFractionMag	1.5
exchange-regularization WignerSeitzTruncated
fluid None
fluid-ex-corr lda-TF lda-PZ
fluid-gummel-loop 10 1.000000e-05
fluid-minimize  \
	dirUpdateScheme      PolakRibiere \
	linminMethod         DirUpdateRecommended \
	nIterations          100 \
	history              15 \
	knormThreshold       0 \
	maxThreshold         no \
	energyDiffThreshold  0 \
	nEnergyDiff          2 \
	alphaTstart          1 \
	alphaTmin            1e-10 \
	updateTestStepSize   yes \
	alphaTreduceFactor   0.1 \
	alphaTincreaseFactor 3 \
	nAlphaAdjustMax      3 \
	wolfeEnergy          0.0001 \
	wolfeGradient        0.9 \
	fdTest               no
fluid-solvent H2O 55.338 ScalarEOS \
	epsBulk 78.4 \
	pMol 0.92466 \
	epsInf 1.77 \
	Pvap 1.06736e-10 \
	sigmaBulk 4.62e-05 \
	Rvdw 2.61727 \
	Res 1.42 \
	tauNuc 343133 \
	poleEl 15 7 1
forces-output-coords Positions
ion Tc   0.122590000000000   0.225170000000000   0.130820000000000 1
ion Tc   0.224700000000000   0.110100000000000   0.369070000000000 1
ion Tc   0.108080000000000   0.222840000000000   0.621460000000000 1
ion Tc   0.212330000000000   0.120410000000000   0.866540000000000 1
ion Tc   0.096630000000000   0.539810000000000   0.138750000000000 1
ion Tc   0.218710000000000   0.450430000000000   0.364610000000000 1
ion Tc   0.111980000000000   0.532810000000000   0.636930000000000 1
ion Tc   0.225240000000000   0.416470000000000   0.879450000000000 1
ion Tc   0.119940000000000   0.877500000000000   0.123020000000000 1
ion Tc   0.229000000000000   0.761210000000000   0.365520000000000 1
ion Tc   0.104320000000000   0.875050000000000   0.628970000000000 1
ion Tc   0.199430000000000   0.781270000000000   0.875090000000000 1
ion Tc   0.447240000000000   0.222800000000000   0.130300000000000 1
ion Tc   0.576590000000000   0.118470000000000   0.373990000000000 1
ion Tc   0.459030000000000   0.234100000000000   0.615980000000000 1
ion Tc   0.563470000000000   0.097190000000000   0.882760000000000 1
ion Tc   0.443080000000000   0.547770000000000   0.119140000000000 1
ion Tc   0.539080000000000   0.440400000000000   0.375990000000000 1
ion Tc   0.450100000000000   0.541850000000000   0.617920000000000 1
ion Tc   0.550850000000000   0.437690000000000   0.872870000000000 1
ion Tc   0.441950000000000   0.876500000000000   0.110770000000000 1
ion Tc   0.551070000000000   0.787190000000000   0.367600000000000 1
ion Tc   0.428980000000000   0.899760000000000   0.629610000000000 1
ion Tc   0.557660000000000   0.801390000000000   0.853380000000000 1
ion Tc   0.785520000000000   0.227620000000000   0.120670000000000 1
ion Tc   0.898290000000000   0.123960000000000   0.368590000000000 1
ion Tc   0.772680000000000   0.214140000000000   0.622090000000000 1
ion Tc   0.887110000000000   0.106990000000000   0.872800000000000 1
ion Tc   0.780970000000000   0.559810000000000   0.117370000000000 1
ion Tc   0.906500000000000   0.439600000000000   0.353860000000000 1
ion Tc   0.777800000000000   0.562890000000000   0.627060000000000 1
ion Tc   0.885610000000000   0.431670000000000   0.879960000000000 1
ion Tc   0.786000000000000   0.895640000000000   0.126450000000000 1
ion Tc   0.879140000000000   0.773060000000000   0.378160000000000 1
ion Tc   0.776070000000000   0.893560000000000   0.618030000000000 1
ion Tc   0.894750000000000   0.778190000000000   0.872290000000000 1
ion O   0.330000000000000   0.380000000000000   0.550000000000000 1
ion-species GBRV/$ID_pbesol.uspp
ion-width 0
ionic-minimize  \
	dirUpdateScheme      L-BFGS \
	linminMethod         DirUpdateRecommended \
	nIterations          30 \
	history              15 \
	knormThreshold       0.0001 \
	maxThreshold         no \
	energyDiffThreshold  1e-06 \
	nEnergyDiff          2 \
	alphaTstart          1 \
	alphaTmin            1e-10 \
	updateTestStepSize   yes \
	alphaTreduceFactor   0.1 \
	alphaTincreaseFactor 3 \
	nAlphaAdjustMax      3 \
	wolfeEnergy          0.0001 \
	wolfeGradient        0.9 \
	fdTest               no
kpoint   0.500000000000   0.500000000000   0.500000000000  1.00000000000000
kpoint-folding 3 3 3 
latt-move-scale 1 1 1
latt-scale 1 1 1 
lattice  \
	   7.737505261954447    7.737505261954447    0.000000000000000  \
	 -13.401756703147822   13.401756703147822   -0.000000000000000  \
	   0.000000000000000   -0.000000000000000   16.472851209747841 
lattice-minimize  \
	dirUpdateScheme      L-BFGS \
	linminMethod         DirUpdateRecommended \
	nIterations          0 \
	history              15 \
	knormThreshold       0 \
	maxThreshold         no \
	energyDiffThreshold  1e-06 \
	nEnergyDiff          2 \
	alphaTstart          1 \
	alphaTmin            1e-10 \
	updateTestStepSize   yes \
	alphaTreduceFactor   0.1 \
	alphaTincreaseFactor 3 \
	nAlphaAdjustMax      3 \
	wolfeEnergy          0.0001 \
	wolfeGradient        0.9 \
	fdTest               no
lcao-params -1 1e-06 0.01
pcm-variant GLSSA13
perturb-minimize  \
	nIterations            0 \
	algorithm              MINRES \
	residualTol            0.0001 \
	residualDiffThreshold  0.0001 \
	CGBypass               no \
	recomputeResidual      no
spintype no-spin
subspace-rotation-factor 1 yes
symmetries automatic
symmetry-threshold 0.0001



---------- Setting up symmetries ----------

Found 24 point-group symmetries of the bravais lattice
Found 1 space-group symmetries with basis
Applied RMS atom displacement 0 bohrs to make symmetries exact.

---------- Initializing the Grid ----------
R = 
[      7.73751      7.73751            0  ]
[     -13.4018      13.4018            0  ]
[            0            0      16.4729  ]
unit cell volume = 3416.34
G =
[   0.406021  -0.234416         -0  ]
[   0.406021   0.234416          0  ]
[          0          0   0.381427  ]
Minimum fftbox size, Smin = [  72  72  76  ]
Chosen fftbox size, S = [  72  72  80  ]

---------- Initializing tighter grid for wavefunction operations ----------
R = 
[      7.73751      7.73751            0  ]
[     -13.4018      13.4018            0  ]
[            0            0      16.4729  ]
unit cell volume = 3416.34
G =
[   0.406021  -0.234416         -0  ]
[   0.406021   0.234416          0  ]
[          0          0   0.381427  ]
Minimum fftbox size, Smin = [  64  64  68  ]
Chosen fftbox size, S = [  64  64  70  ]

---------- Exchange Correlation functional ----------
Initalized PBEsol GGA exchange.
Initalized PBEsol GGA correlation.

---------- Setting up pseudopotentials ----------
Width of ionic core gaussian charges (only for fluid interactions / plotting) set to 0

Reading pseudopotential file '/home/rc652/build/pseudopotentials/GBRV/tc_pbesol.uspp':
  Title: Tc.  Created by USPP 7.3.6 on 23-7-2013
  Reference state energy: -86.345700.  15 valence electrons in orbitals:
    |400>  occupation: 2  eigenvalue: -2.972801
    |410>  occupation: 6  eigenvalue: -1.943789
    |420>  occupation: 5  eigenvalue: -0.518764
    |500>  occupation: 1  eigenvalue: -0.420062
    |510>  occupation: 0  eigenvalue: -0.251266
  lMax: 2  lLocal: 3  QijEcut: 5
  6 projectors sampled on a log grid with 713 points:
    l: 0  eig: -0.420062  rCut: 1.5
    l: 0  eig: -2.972801  rCut: 1.5
    l: 1  eig: -1.943789  rCut: 1.6
    l: 1  eig: -0.251266  rCut: 1.6
    l: 2  eig: -0.518764  rCut: 1.8
    l: 2  eig: 0.000000  rCut: 1.8
  Partial core density with radius 0.9
  Transforming core density to a uniform radial grid of dG=0.02 with 1654 points.
  Transforming local potential to a uniform radial grid of dG=0.02 with 1654 points.
  Transforming nonlocal projectors to a uniform radial grid of dG=0.02 with 432 points.
  Transforming density augmentations to a uniform radial grid of dG=0.02 with 1654 points.
  Transforming atomic orbitals to a uniform radial grid of dG=0.02 with 432 points.
  Core radius for overlap checks: 1.80 bohrs.

Reading pseudopotential file '/home/rc652/build/pseudopotentials/GBRV/o_pbesol.uspp':
  Title: O.  Created by USPP 7.3.6 on 3-2-2014
  Reference state energy: -15.849885.  6 valence electrons in orbitals:
    |200>  occupation: 2  eigenvalue: -0.873214
    |210>  occupation: 4  eigenvalue: -0.330058
  lMax: 2  lLocal: 2  QijEcut: 6
  5 projectors sampled on a log grid with 511 points:
    l: 0  eig: -0.873214  rCut: 1.25
    l: 0  eig: 0.000000  rCut: 1.25
    l: 1  eig: -0.330058  rCut: 1.25
    l: 1  eig: 0.000000  rCut: 1.25
    l: 2  eig: 1.000000  rCut: 1.25
  Partial core density with radius 0.7
  Transforming core density to a uniform radial grid of dG=0.02 with 1654 points.
  Transforming local potential to a uniform radial grid of dG=0.02 with 1654 points.
  Transforming nonlocal projectors to a uniform radial grid of dG=0.02 with 432 points.
  Transforming density augmentations to a uniform radial grid of dG=0.02 with 1654 points.
  Transforming atomic orbitals to a uniform radial grid of dG=0.02 with 432 points.
  Core radius for overlap checks: 1.25 bohrs.

Initialized 2 species with 37 total atoms.

Folded 1 k-points by 3x3x3 to 27 k-points.

---------- Setting up k-points, bands, fillings ----------
Adding inversion symmetry to k-mesh for non-inversion-symmetric unit cell.
Reduced to 14 k-points under symmetry. 
Computing the number of bands and number of electrons
Calculating initial fillings.
nElectrons: 546.000000   nBands: 472   nStates: 14

----- Setting up reduced wavefunction bases (one per k-point) -----
average nbasis = 14596.296 , ideal nbasis = 14594.877

---------- Setting up ewald sum ----------
Optimum gaussian width for ewald sums = 3.291523 bohr.
Real space sum over 567 unit cells with max indices [  4  4  3  ]
Reciprocal space sum over 6859 terms with max indices [  9  9  9  ]

---------- Allocating electronic variables ----------
Initializing wave functions:  linear combination of atomic orbitals
Tc pseudo-atom occupations:   s ( 2 0 )  p ( 6 0 )  d ( 7 )
O pseudo-atom occupations:   s ( 2 )  p ( 4 )
	FillingsUpdate:  mu: +0.815604497  nElectrons: 546.000000
LCAOMinimize: Iter:   0  F: -2924.3707586568593797  |grad|_K:  2.268e-03  alpha:  1.000e+00
	FillingsUpdate:  mu: +0.828791411  nElectrons: 546.000000
LCAOMinimize: Iter:   1  F: -2926.1183395514876793  |grad|_K:  2.195e-03  alpha:  1.571e-01  linmin: -1.039e-01  cgtest:  3.302e-01  t[s]:     57.60
	FillingsUpdate:  mu: +0.867689039  nElectrons: 546.000000
LCAOMinimize: Iter:   2  F: -2927.7183194635954351  |grad|_K:  2.615e-03  alpha:  1.760e-01  linmin:  1.738e-02  cgtest: -3.520e-01  t[s]:     78.21
	FillingsUpdate:  mu: +0.881301909  nElectrons: 546.000000
LCAOMinimize: Iter:   3  F: -2928.3488369452729785  |grad|_K:  1.942e-03  alpha:  6.160e-02  linmin: -1.129e-02  cgtest:  8.342e-01  t[s]:     98.57
LCAOMinimize: Encountered beta<0, resetting CG.
	FillingsUpdate:  mu: +0.872779411  nElectrons: 546.000000
LCAOMinimize: Iter:   4  F: -2928.6299954921501012  |grad|_K:  6.178e-04  alpha:  4.741e-02  linmin:  3.455e-03  cgtest: -1.168e-02  t[s]:    119.34
	FillingsUpdate:  mu: +0.873837728  nElectrons: 546.000000
LCAOMinimize: Iter:   5  F: -2928.7013433965225886  |grad|_K:  5.293e-04  alpha:  1.198e-01  linmin:  7.476e-04  cgtest:  2.449e-02  t[s]:    140.37
	FillingsUpdate:  mu: +0.874730910  nElectrons: 546.000000
LCAOMinimize: Iter:   6  F: -2928.7512432395265023  |grad|_K:  1.452e-04  alpha:  1.141e-01  linmin: -5.022e-03  cgtest: -9.716e-02  t[s]:    160.62
	FillingsUpdate:  mu: +0.875202484  nElectrons: 546.000000
LCAOMinimize: Iter:   7  F: -2928.7562266537393043  |grad|_K:  1.242e-04  alpha:  1.502e-01  linmin:  2.154e-03  cgtest: -1.684e-02  t[s]:    181.04
	FillingsUpdate:  mu: +0.876229344  nElectrons: 546.000000
LCAOMinimize: Iter:   8  F: -2928.7592516567237908  |grad|_K:  1.232e-04  alpha:  1.260e-01  linmin:  3.646e-04  cgtest:  1.877e-02  t[s]:    201.60
	FillingsUpdate:  mu: +0.877241193  nElectrons: 546.000000
LCAOMinimize: Iter:   9  F: -2928.7615493175003394  |grad|_K:  6.524e-05  alpha:  9.678e-02  linmin:  2.672e-04  cgtest: -4.377e-03  t[s]:    221.61
	FillingsUpdate:  mu: +0.877440603  nElectrons: 546.000000
LCAOMinimize: Iter:  10  F: -2928.7620322314710393  |grad|_K:  1.793e-05  alpha:  7.247e-02  linmin:  2.354e-04  cgtest:  3.998e-03  t[s]:    242.27
	FillingsUpdate:  mu: +0.877456654  nElectrons: 546.000000
LCAOMinimize: Iter:  11  F: -2928.7620866658853629  |grad|_K:  9.855e-06  alpha:  1.081e-01  linmin:  1.664e-04  cgtest: -7.457e-06  t[s]:    262.62
	FillingsUpdate:  mu: +0.877458090  nElectrons: 546.000000
LCAOMinimize: Iter:  12  F: -2928.7621100809046766  |grad|_K:  8.820e-06  alpha:  1.540e-01  linmin:  5.687e-05  cgtest:  5.378e-04  t[s]:    282.79
	FillingsUpdate:  mu: +0.877457328  nElectrons: 546.000000
LCAOMinimize: Iter:  13  F: -2928.7621180683163402  |grad|_K:  4.286e-06  alpha:  6.558e-02  linmin:  2.190e-05  cgtest:  7.560e-04  t[s]:    303.22
	FillingsUpdate:  mu: +0.877446269  nElectrons: 546.000000
LCAOMinimize: Iter:  14  F: -2928.7621221887425236  |grad|_K:  3.637e-06  alpha:  1.432e-01  linmin:  8.397e-06  cgtest: -2.675e-04  t[s]:    323.40
	FillingsUpdate:  mu: +0.877425352  nElectrons: 546.000000
LCAOMinimize: Iter:  15  F: -2928.7621253667593919  |grad|_K:  2.466e-06  alpha:  1.534e-01  linmin: -5.002e-06  cgtest:  1.382e-04  t[s]:    343.99
	FillingsUpdate:  mu: +0.877417234  nElectrons: 546.000000
LCAOMinimize: Iter:  16  F: -2928.7621264539161530  |grad|_K:  1.149e-06  alpha:  1.142e-01  linmin:  2.845e-05  cgtest: -2.635e-04  t[s]:    364.60
	FillingsUpdate:  mu: +0.877415851  nElectrons: 546.000000
LCAOMinimize: Iter:  17  F: -2928.7621266055698470  |grad|_K:  8.024e-07  alpha:  7.330e-02  linmin: -7.896e-05  cgtest:  3.857e-04  t[s]:    384.82
	FillingsUpdate:  mu: +0.877414101  nElectrons: 546.000000
LCAOMinimize: Iter:  18  F: -2928.7621267356503267  |grad|_K:  6.780e-07  alpha:  1.289e-01  linmin:  2.880e-04  cgtest: -1.623e-03  t[s]:    405.16
LCAOMinimize: Converged (|Delta F|<1.000000e-06 for 2 iters).


---- Citations for features of the code used in this run ----

   Software package:
      R. Sundararaman, K. Letchworth-Weaver, K.A. Schwarz, D. Gunceler, Y. Ozhabes and T.A. Arias, 'JDFTx: software for joint density-functional theory', SoftwareX 6, 278 (2017)

   gga-PBEsol exchange-correlation functional:
      J.P. Perdew et al., Phys. Rev. Lett. 100, 136406 (2008)

   Pseudopotentials:
      KF Garrity, JW Bennett, KM Rabe and D Vanderbilt, Comput. Mater. Sci. 81, 446 (2014)

This list may not be complete. Please suggest additional citations or
report any other bugs at https://github.com/shankar1729/jdftx/issues

Initialization completed successfully at t[s]:    413.49


-------- Electronic minimization -----------
Will mix electronic density at each iteration.
	FillingsUpdate:  mu: +0.877414101  nElectrons: 546.000000
	FillingsUpdate:  mu: +0.872466842  nElectrons: 546.000000
SCF: Cycle:  0   F: -2929.603396479655203   dF: -8.413e-01   |Residual|: 3.881e-01   |deigs|: 8.217e-02  t[s]:    498.23
	FillingsUpdate:  mu: +0.862231103  nElectrons: 546.000000
SCF: Cycle:  1   F: -2929.749085157823629   dF: -1.457e-01   |Residual|: 1.548e-01   |deigs|: 1.393e-02  t[s]:    569.25
	FillingsUpdate:  mu: +0.860841752  nElectrons: 546.000000
SCF: Cycle:  2   F: -2929.647680597138788   dF: +1.014e-01   |Residual|: 1.387e-01   |deigs|: 4.953e-03  t[s]:    638.54
	FillingsUpdate:  mu: +0.860113846  nElectrons: 546.000000
SCF: Cycle:  3   F: -2929.779214632084404   dF: -1.315e-01   |Residual|: 5.641e-02   |deigs|: 3.080e-03  t[s]:    709.89
	FillingsUpdate:  mu: +0.860144614  nElectrons: 546.000000
SCF: Cycle:  4   F: -2929.790841025529517   dF: -1.163e-02   |Residual|: 3.592e-02   |deigs|: 6.132e-04  t[s]:    774.24
	FillingsUpdate:  mu: +0.860202904  nElectrons: 546.000000
SCF: Cycle:  5   F: -2929.796110319846775   dF: -5.269e-03   |Residual|: 1.153e-02   |deigs|: 4.469e-04  t[s]:    829.60
	FillingsUpdate:  mu: +0.860179729  nElectrons: 546.000000
SCF: Cycle:  6   F: -2929.796018842283502   dF: +9.148e-05   |Residual|: 8.954e-03   |deigs|: 1.060e-04  t[s]:    872.01
	FillingsUpdate:  mu: +0.860171413  nElectrons: 546.000000
SCF: Cycle:  7   F: -2929.796559599064040   dF: -5.408e-04   |Residual|: 1.780e-03   |deigs|: 6.927e-05  t[s]:    913.39
	FillingsUpdate:  mu: +0.860160249  nElectrons: 546.000000
SCF: Cycle:  8   F: -2929.796552775111650   dF: +6.824e-06   |Residual|: 1.857e-03   |deigs|: 2.274e-05  t[s]:    955.96
	FillingsUpdate:  mu: +0.860155440  nElectrons: 546.000000
SCF: Cycle:  9   F: -2929.796572071365063   dF: -1.930e-05   |Residual|: 3.260e-04   |deigs|: 1.283e-05  t[s]:    997.94
	FillingsUpdate:  mu: +0.860157986  nElectrons: 546.000000
SCF: Cycle: 10   F: -2929.796571671839047   dF: +3.995e-07   |Residual|: 3.433e-04   |deigs|: 3.899e-06  t[s]:   1040.49
	FillingsUpdate:  mu: +0.860157970  nElectrons: 546.000000
SCF: Cycle: 11   F: -2929.796572326647947   dF: -6.548e-07   |Residual|: 8.518e-05   |deigs|: 1.712e-06  t[s]:   1084.26
	FillingsUpdate:  mu: +0.860158317  nElectrons: 546.000000
SCF: Cycle: 12   F: -2929.796572315132380   dF: +1.152e-08   |Residual|: 6.687e-05   |deigs|: 6.001e-07  t[s]:   1125.83
	FillingsUpdate:  mu: +0.860158280  nElectrons: 546.000000
SCF: Cycle: 13   F: -2929.796572341572301   dF: -2.644e-08   |Residual|: 2.656e-05   |deigs|: 4.453e-07  t[s]:   1168.56
	FillingsUpdate:  mu: +0.860158227  nElectrons: 546.000000
SCF: Cycle: 14   F: -2929.796572343213484   dF: -1.641e-09   |Residual|: 1.521e-05   |deigs|: 4.105e-07  t[s]:   1210.46
	FillingsUpdate:  mu: +0.860158204  nElectrons: 546.000000
SCF: Cycle: 15   F: -2929.796572344361721   dF: -1.148e-09   |Residual|: 7.029e-06   |deigs|: 3.184e-07  t[s]:   1252.43
SCF: Converged (|Delta E|<1.000000e-08 for 2 iters).

Setting wave functions to eigenvectors of Hamiltonian

# Ionic positions in lattice coordinates:
ion Tc   0.122590000000000   0.225170000000000   0.130820000000000 1
ion Tc   0.224700000000000   0.110100000000000   0.369070000000000 1
ion Tc   0.108080000000000   0.222840000000000   0.621460000000000 1
ion Tc   0.212330000000000   0.120410000000000   0.866540000000000 1
ion Tc   0.096630000000000   0.539810000000000   0.138750000000000 1
ion Tc   0.218710000000000   0.450430000000000   0.364610000000000 1
ion Tc   0.111980000000000   0.532810000000000   0.636930000000000 1
ion Tc   0.225240000000000   0.416470000000000   0.879450000000000 1
ion Tc   0.119940000000000   0.877500000000000   0.123020000000000 1
ion Tc   0.229000000000000   0.761210000000000   0.365520000000000 1
ion Tc   0.104320000000000   0.875050000000000   0.628970000000000 1
ion Tc   0.199430000000000   0.781270000000000   0.875090000000000 1
ion Tc   0.447240000000000   0.222800000000000   0.130300000000000 1
ion Tc   0.576590000000000   0.118470000000000   0.373990000000000 1
ion Tc   0.459030000000000   0.234100000000000   0.615980000000000 1
ion Tc   0.563470000000000   0.097190000000000   0.882760000000000 1
ion Tc   0.443080000000000   0.547770000000000   0.119140000000000 1
ion Tc   0.539080000000000   0.440400000000000   0.375990000000000 1
ion Tc   0.450100000000000   0.541850000000000   0.617920000000000 1
ion Tc   0.550850000000000   0.437690000000000   0.872870000000000 1
ion Tc   0.441950000000000   0.876500000000000   0.110770000000000 1
ion Tc   0.551070000000000   0.787190000000000   0.367600000000000 1
ion Tc   0.428980000000000   0.899760000000000   0.629610000000000 1
ion Tc   0.557660000000000   0.801390000000000   0.853380000000000 1
ion Tc   0.785520000000000   0.227620000000000   0.120670000000000 1
ion Tc   0.898290000000000   0.123960000000000   0.368590000000000 1
ion Tc   0.772680000000000   0.214140000000000   0.622090000000000 1
ion Tc   0.887110000000000   0.106990000000000   0.872800000000000 1
ion Tc   0.780970000000000   0.559810000000000   0.117370000000000 1
ion Tc   0.906500000000000   0.439600000000000   0.353860000000000 1
ion Tc   0.777800000000000   0.562890000000000   0.627060000000000 1
ion Tc   0.885610000000000   0.431670000000000   0.879960000000000 1
ion Tc   0.786000000000000   0.895640000000000   0.126450000000000 1
ion Tc   0.879140000000000   0.773060000000000   0.378160000000000 1
ion Tc   0.776070000000000   0.893560000000000   0.618030000000000 1
ion Tc   0.894750000000000   0.778190000000000   0.872290000000000 1
ion O   0.330000000000000   0.380000000000000   0.550000000000000 1

# Forces in Lattice coordinates:
force Tc  -0.145283856656073  -0.202867976510774  -0.182101206805449 1
force Tc   0.076292966945712  -0.576307036302808  -0.112791230762424 1
force Tc  -1.688567987990433  -0.973422783837287   0.638311313839196 1
force Tc   0.760717589149038  -0.869879045386098   0.203685700417435 1
force Tc   0.450837548468193   0.168599023335446  -1.151350196079967 1
force Tc   0.238960172649102  -0.229385603601108  -0.091247552190929 1
force Tc  -0.632774231913275   0.846070627131297  -0.027676488085979 1
force Tc  -0.571384302199397   1.099513102154117   0.147245362989036 1
force Tc  -0.348055803024043   0.458192816865836   0.311544677618095 1
force Tc  -0.488272769729028   0.847660268661560   0.386191778276856 1
force Tc  -0.033888979153186   0.202034398349126  -0.379753326881525 1
force Tc   0.661283550398245  -0.596740501692632  -0.044000951185556 1
force Tc   0.097402171799811  -0.162387579563300  -0.204528589658709 1
force Tc  -0.487136465450961   0.095717581193182  -0.160187816446955 1
force Tc   0.551463740152962  -1.199155603596805   0.334176011718775 1
force Tc  -0.673140116135220   0.860062873508885  -0.214876249755729 1
force Tc   0.058218399634343   0.247747907142913  -0.057825096928839 1
force Tc   1.087480139557163  -0.318568728458314  -1.069184722191864 1
force Tc   3.334870076935932  11.325031563797177   8.197304401163375 1
force Tc   0.287147226347553  -0.052704031339746   0.189742112083691 1
force Tc   0.087029442780683   0.068934434488740   0.273064332514581 1
force Tc   0.356266337645669  -0.221009111009841   0.082403642571394 1
force Tc   0.362380560053478  -0.397828053618880  -0.296366576105497 1
force Tc   0.273030368837604  -0.826833967057324   0.420168281919998 1
force Tc  -0.143871902971058  -0.316065088123323   0.020760414479769 1
force Tc   0.056475694703708  -0.530137457640797   0.033561985788787 1
force Tc   0.045750001807475   0.248359340871622   0.092513988961766 1
force Tc   0.040701081068517  -0.075962608726743   0.032422327955799 1
force Tc  -0.162214865524553   0.034328162568151   0.229662277315257 1
force Tc  -1.054083132546429   0.649094315349998   1.054790334329596 1
force Tc   0.417252269646463  -0.382089375345871  -0.087632132304494 1
force Tc  -0.036396290514568   0.299845484747364  -0.330899154329439 1
force Tc  -0.078321958256121  -0.094130889556927  -0.075451879508944 1
force Tc   0.231892448941315  -0.126596382586013  -0.218777916507133 1
force Tc   0.092729344714273  -0.015447624725947  -0.122488476963692 1
force Tc  -0.462925633594570   0.112038014638719   0.002216162362245 1
force O  -2.551737143320350  -9.406454812099799  -7.922481328091134 1

# Energy components:
   Eewald =    -2563.7092562434258980
       EH =      411.7494908346082525
     Eloc =    -1853.2199857190196326
      Enl =      636.6478048043486524
      Exc =     -579.2874732785319338
 Exc_core =      221.1514437480333868
       KE =      797.1908938267384883
-------------------------------------
     Etot =    -2929.4770820272487981
       TS =        0.3194903171128782
-------------------------------------
        F =    -2929.7965723443617208

IonicMinimize: Iter:   0  F: -2929.796572344361721  |grad|_K:  1.418e-01  t[s]:   1262.81

#--- Lowdin population analysis ---
# oxidation-state Tc +0.019 +0.010 -0.027 +0.022 +0.014 -0.025 +0.007 +0.024 +0.014 +0.021 +0.016 +0.028 +0.027 +0.025 -0.021 +0.025 +0.018 -0.009 +0.016 +0.006 +0.019 +0.006 +0.012 +0.019 +0.013 +0.005 +0.020 -0.002 +0.006 +0.038 +0.012 +0.020 +0.033 +0.036 -0.001 +0.012
# oxidation-state O +0.366


-------- Electronic minimization -----------
Will mix electronic density at each iteration.
	FillingsUpdate:  mu: +0.860158204  nElectrons: 546.000000
	FillingsUpdate:  mu: +0.860379036  nElectrons: 546.000000
SCF: Cycle:  0   F: -2925.972075486755330   dF: +3.612e+00   |Residual|: 7.043e-01   |deigs|: 1.948e-03  t[s]:   1359.79
	FillingsUpdate:  mu: +0.861998896  nElectrons: 546.000000
SCF: Cycle:  1   F: -2919.253473758914424   dF: +6.719e+00   |Residual|: 1.127e+00   |deigs|: 2.506e-02  t[s]:   1429.53
	FillingsUpdate:  mu: +0.860555683  nElectrons: 546.000000
SCF: Cycle:  2   F: -2929.660116941621709   dF: -1.041e+01   |Residual|: 2.105e-01   |deigs|: 2.057e-02  t[s]:   1500.50
	FillingsUpdate:  mu: +0.860030987  nElectrons: 546.000000
SCF: Cycle:  3   F: -2929.846807869134409   dF: -1.867e-01   |Residual|: 1.403e-01   |deigs|: 1.631e-03  t[s]:   1571.87
	FillingsUpdate:  mu: +0.860134322  nElectrons: 546.000000
SCF: Cycle:  4   F: -2929.921690450566985   dF: -7.488e-02   |Residual|: 8.291e-02   |deigs|: 1.172e-03  t[s]:   1643.11
	FillingsUpdate:  mu: +0.860004529  nElectrons: 546.000000
SCF: Cycle:  5   F: -2929.956489002555372   dF: -3.480e-02   |Residual|: 2.482e-02   |deigs|: 6.463e-04  t[s]:   1708.61
	FillingsUpdate:  mu: +0.859985123  nElectrons: 546.000000
SCF: Cycle:  6   F: -2929.957406678633561   dF: -9.177e-04   |Residual|: 1.834e-02   |deigs|: 3.012e-04  t[s]:   1751.50
	FillingsUpdate:  mu: +0.859989127  nElectrons: 546.000000
SCF: Cycle:  7   F: -2929.959011487525913   dF: -1.605e-03   |Residual|: 5.331e-03   |deigs|: 1.043e-04  t[s]:   1794.42
	FillingsUpdate:  mu: +0.859992197  nElectrons: 546.000000
SCF: Cycle:  8   F: -2929.959167511737178   dF: -1.560e-04   |Residual|: 2.214e-03   |deigs|: 6.905e-05  t[s]:   1837.59
	FillingsUpdate:  mu: +0.859991050  nElectrons: 546.000000
SCF: Cycle:  9   F: -2929.959184832252049   dF: -1.732e-05   |Residual|: 1.328e-03   |deigs|: 1.193e-05  t[s]:   1879.59
	FillingsUpdate:  mu: +0.859991545  nElectrons: 546.000000
SCF: Cycle: 10   F: -2929.959195294421079   dF: -1.046e-05   |Residual|: 3.824e-04   |deigs|: 1.295e-05  t[s]:   1922.07
	FillingsUpdate:  mu: +0.859992327  nElectrons: 546.000000
SCF: Cycle: 11   F: -2929.959195040337363   dF: +2.541e-07   |Residual|: 3.362e-04   |deigs|: 2.458e-06  t[s]:   1965.27
	FillingsUpdate:  mu: +0.859992434  nElectrons: 546.000000
SCF: Cycle: 12   F: -2929.959195612625990   dF: -5.723e-07   |Residual|: 1.270e-04   |deigs|: 2.948e-06  t[s]:   2007.59
	FillingsUpdate:  mu: +0.859992120  nElectrons: 546.000000
SCF: Cycle: 13   F: -2929.959195622328934   dF: -9.703e-09   |Residual|: 1.110e-04   |deigs|: 2.261e-06  t[s]:   2049.84
	FillingsUpdate:  mu: +0.859992204  nElectrons: 546.000000
SCF: Cycle: 14   F: -2929.959195713974168   dF: -9.165e-08   |Residual|: 2.050e-05   |deigs|: 9.266e-07  t[s]:   2091.59
	FillingsUpdate:  mu: +0.859992210  nElectrons: 546.000000
SCF: Cycle: 15   F: -2929.959195712379369   dF: +1.595e-09   |Residual|: 2.118e-05   |deigs|: 1.888e-07  t[s]:   2134.15
	FillingsUpdate:  mu: +0.859992186  nElectrons: 546.000000
SCF: Cycle: 16   F: -2929.959195714805446   dF: -2.426e-09   |Residual|: 7.422e-06   |deigs|: 1.430e-07  t[s]:   2176.35
	FillingsUpdate:  mu: +0.859992177  nElectrons: 546.000000
SCF: Cycle: 17   F: -2929.959195714776797   dF: +2.865e-11   |Residual|: 4.801e-06   |deigs|: 8.243e-08  t[s]:   2211.51
	FillingsUpdate:  mu: +0.859992186  nElectrons: 546.000000
SCF: Cycle: 18   F: -2929.959195715269743   dF: -4.929e-10   |Residual|: 1.853e-06   |deigs|: 1.094e-07  t[s]:   2251.51
	FillingsUpdate:  mu: +0.859992188  nElectrons: 546.000000
SCF: Cycle: 19   F: -2929.959195715089209   dF: +1.805e-10   |Residual|: 1.220e-06   |deigs|: 5.903e-08  t[s]:   2278.17
	FillingsUpdate:  mu: +0.859992188  nElectrons: 546.000000
SCF: Cycle: 20   F: -2929.959195714939597   dF: +1.496e-10   |Residual|: 6.591e-07   |deigs|: 2.265e-08  t[s]:   2304.10
	FillingsUpdate:  mu: +0.859992190  nElectrons: 546.000000
SCF: Cycle: 21   F: -2929.959195714741327   dF: +1.983e-10   |Residual|: 5.432e-07   |deigs|: 1.712e-08  t[s]:   2330.23
	FillingsUpdate:  mu: +0.859992190  nElectrons: 546.000000
SCF: Cycle: 22   F: -2929.959195714995076   dF: -2.537e-10   |Residual|: 1.400e-07   |deigs|: 1.548e-08  t[s]:   2355.96
	FillingsUpdate:  mu: +0.859992190  nElectrons: 546.000000
SCF: Cycle: 23   F: -2929.959195715206079   dF: -2.110e-10   |Residual|: 1.409e-07   |deigs|: 1.471e-08  t[s]:   2381.61
SCF: Converged (|Delta E|<1.000000e-08 for 2 iters).

Setting wave functions to eigenvectors of Hamiltonian

# Ionic positions in lattice coordinates:
ion Tc   0.122466283401647   0.225031994504167   0.130760486544066 1
ion Tc   0.224593753434833   0.109830357008351   0.369033478857230 1
ion Tc   0.106989710153848   0.221929062742763   0.621672643348545 1
ion Tc   0.212493211770791   0.120164735061358   0.866608464273851 1
ion Tc   0.096898140252173   0.540007554263834   0.138368955971303 1
ion Tc   0.218772216977613   0.450374993591655   0.364580625577410 1
ion Tc   0.111874816951294   0.533075548243901   0.636921714111810 1
ion Tc   0.225229096164904   0.416877954711368   0.879499741227223 1
ion Tc   0.119880314569630   0.877642497146085   0.123124244511025 1
ion Tc   0.228967637799328   0.761512556218637   0.365649007317379 1
ion Tc   0.104353579537810   0.875142841916683   0.628844919078865 1
ion Tc   0.199611823562327   0.781136711380956   0.875076298770625 1
ion Tc   0.447248059047322   0.222743098591475   0.130233046671202 1
ion Tc   0.576369774637920   0.118395975830116   0.373937755909349 1
ion Tc   0.459005821238790   0.233637267534618   0.616091752040975 1
ion Tc   0.563348092407579   0.097452445532411   0.882689614024777 1
ion Tc   0.443171198262192   0.547908834606352   0.119121712863858 1
ion Tc   0.539545136757813   0.440512930416186   0.375636212860062 1
ion Tc   0.454609324697048   0.548361754167827   0.620640200646797 1
ion Tc   0.550980643203412   0.437735619798475   0.872933838744196 1
ion Tc   0.442010828366162   0.876556435210984   0.110861479362402 1
ion Tc   0.551193108598585   0.787168588068566   0.367628231175899 1
ion Tc   0.429061863131780   0.899651500611708   0.629512581103829 1
ion Tc   0.557589575329173   0.801044097055278   0.853520278399214 1
ion Tc   0.785368624488879   0.227425615224423   0.120677782165733 1
ion Tc   0.898185391083093   0.123708530578693   0.368602028852189 1
ion Tc   0.772765102464622   0.214276016538700   0.622121585097855 1
ion Tc   0.887111298722265   0.106962204827248   0.872811650791609 1
ion Tc   0.780897237808197   0.559786631699933   0.117447081526736 1
ion Tc   0.906134300541827   0.439661248279964   0.354210802623905 1
ion Tc   0.777913308235235   0.562803139204504   0.627031824926637 1
ion Tc   0.885666833817217   0.431811235404674   0.879851125554452 1
ion Tc   0.785937092855579   0.895573272578035   0.126425865502074 1
ion Tc   0.879224433123021   0.773054739250187   0.378088319718402 1
ion Tc   0.776112539416594   0.893575572244470   0.617990261973684 1
ion Tc   0.894545998642086   0.778130222546208   0.872291630450260 1
ion O   0.326363828547414   0.374646217409207   0.547372757424572 1

# Forces in Lattice coordinates:
force Tc  -0.144348809436774  -0.199662711740859  -0.181774623592761 1
force Tc   0.078265690416120  -0.582894425697284  -0.125501170323021 1
force Tc  -1.721329605291008  -0.903281280345038   0.735840697536128 1
force Tc   0.739335767412475  -0.839982297769238   0.202443442095683 1
force Tc   0.425159721432205   0.171773083269570  -1.122552562290092 1
force Tc   0.279527454620411  -0.225654220347188   0.014231148906284 1
force Tc  -0.604132011763524   0.821425707018821  -0.037138709636547 1
force Tc  -0.551859718015839   1.075715279169930   0.116326447244690 1
force Tc  -0.344542901288292   0.453489618747446   0.311972244330887 1
force Tc  -0.476066720856035   0.818672591198546   0.375654731391941 1
force Tc  -0.031069053576669   0.196043797089053  -0.374180417391596 1
force Tc   0.655007970848727  -0.588450497865267  -0.042440954965185 1
force Tc   0.095038424194455  -0.161790183716586  -0.200028281912052 1
force Tc  -0.480876406020521   0.098380279122523  -0.156063030878331 1
force Tc   0.402158852919537  -0.969294237983567   0.319932407705685 1
force Tc  -0.667214657587306   0.848338696126174  -0.221618873822339 1
force Tc   0.056300192260400   0.248601504024024  -0.053007903099613 1
force Tc   0.962691702520574  -0.230783076537901  -0.871881130902293 1
force Tc   1.944564638832025   7.415406733283420   5.304528609701475 1
force Tc   0.276679596337981  -0.041748641998775   0.176255706161860 1
force Tc   0.078887573391724   0.071303974511691   0.270431856403553 1
force Tc   0.350216439399943  -0.212080965216352   0.079099177503155 1
force Tc   0.365759131214392  -0.415110855348260  -0.291457097134490 1
force Tc   0.275044860183333  -0.823812459360703   0.428372051009389 1
force Tc  -0.138750407037445  -0.305608596068304   0.022647582975296 1
force Tc   0.047592889366475  -0.519516832845158   0.027025882204809 1
force Tc   0.048968977059405   0.247634596721162   0.090803164843935 1
force Tc   0.034069531571556  -0.073477973138824   0.045078383851130 1
force Tc  -0.153835112845878   0.032250024942324   0.226400352530515 1
force Tc  -1.019413571685619   0.636307403559870   1.024080057689417 1
force Tc   0.416872669491272  -0.364673836436359  -0.087144828419218 1
force Tc  -0.033442837619068   0.291559714303333  -0.327327095573751 1
force Tc  -0.075807978027190  -0.093820921066215  -0.073174372956821 1
force Tc   0.228235717887331  -0.131129027207415  -0.217996624409583 1
force Tc   0.086189566403643  -0.029454740601265  -0.124047078852774 1
force Tc  -0.450915764949361   0.106832463702684  -0.000879432006926 1
force O  -0.946070628874750  -5.831494153345050  -5.344909593131455 1

# Energy components:
   Eewald =    -2566.3801317629404366
       EH =      409.5332808808555001
     Eloc =    -1848.0051451799229199
      Enl =      636.4354089937694425
      Exc =     -579.1798145745352713
 Exc_core =      221.1514175899599763
       KE =      796.8054699396999467
-------------------------------------
     Etot =    -2929.6395141131133641
       TS =        0.3196816020925763
-------------------------------------
        F =    -2929.9591957152060786

IonicMinimize: Iter:   1  F: -2929.959195715206079  |grad|_K:  9.196e-02  alpha:  9.002e-02  linmin: -9.918e-01  t[s]:   2392.06

#--- Lowdin population analysis ---
# oxidation-state Tc +0.019 +0.015 -0.005 +0.021 +0.013 -0.013 +0.012 +0.025 +0.014 +0.022 +0.015 +0.028 +0.027 +0.025 -0.007 +0.024 +0.018 +0.001 +0.025 +0.009 +0.019 +0.008 +0.012 +0.019 +0.013 +0.004 +0.018 -0.004 +0.006 +0.037 +0.015 +0.020 +0.033 +0.036 -0.001 +0.013
# oxidation-state O +0.265


-------- Electronic minimization -----------
Will mix electronic density at each iteration.
	FillingsUpdate:  mu: +0.859992190  nElectrons: 546.000000
	FillingsUpdate:  mu: +0.860606954  nElectrons: 546.000000
SCF: Cycle:  0   F: -2923.247990781173485   dF: +6.386e+00   |Residual|: 8.448e-01   |deigs|: 1.912e-03  t[s]:   2490.28
	FillingsUpdate:  mu: +0.862909770  nElectrons: 546.000000
SCF: Cycle:  1   F: -2911.894271241779734   dF: +1.135e+01   |Residual|: 1.468e+00   |deigs|: 3.125e-02  t[s]:   2561.54
	FillingsUpdate:  mu: +0.860712645  nElectrons: 546.000000
SCF: Cycle:  2   F: -2929.699056201161056   dF: -1.780e+01   |Residual|: 2.383e-01   |deigs|: 2.790e-02  t[s]:   2632.99
	FillingsUpdate:  mu: +0.859933027  nElectrons: 546.000000
SCF: Cycle:  3   F: -2929.830373765398690   dF: -1.313e-01   |Residual|: 2.060e-01   |deigs|: 1.905e-03  t[s]:   2704.71
	FillingsUpdate:  mu: +0.859930229  nElectrons: 546.000000
SCF: Cycle:  4   F: -2930.039508874756848   dF: -2.091e-01   |Residual|: 7.741e-02   |deigs|: 1.398e-03  t[s]:   2775.66
	FillingsUpdate:  mu: +0.859774033  nElectrons: 546.000000
SCF: Cycle:  5   F: -2930.065375946855056   dF: -2.587e-02   |Residual|: 3.230e-02   |deigs|: 7.339e-04  t[s]:   2839.60
	FillingsUpdate:  mu: +0.859774928  nElectrons: 546.000000
SCF: Cycle:  6   F: -2930.068567601040286   dF: -3.192e-03   |Residual|: 2.161e-02   |deigs|: 1.938e-04  t[s]:   2881.68
	FillingsUpdate:  mu: +0.859774167  nElectrons: 546.000000
SCF: Cycle:  7   F: -2930.070722993168147   dF: -2.155e-03   |Residual|: 5.563e-03   |deigs|: 1.019e-04  t[s]:   2923.77
	FillingsUpdate:  mu: +0.859773175  nElectrons: 546.000000
SCF: Cycle:  8   F: -2930.070805001865665   dF: -8.201e-05   |Residual|: 3.981e-03   |deigs|: 3.817e-05  t[s]:   2966.84
	FillingsUpdate:  mu: +0.859770499  nElectrons: 546.000000
SCF: Cycle:  9   F: -2930.070903561974774   dF: -9.856e-05   |Residual|: 9.731e-04   |deigs|: 1.913e-05  t[s]:   3008.68
	FillingsUpdate:  mu: +0.859772418  nElectrons: 546.000000
SCF: Cycle: 10   F: -2930.070905488637436   dF: -1.927e-06   |Residual|: 6.968e-04   |deigs|: 6.789e-06  t[s]:   3050.91
	FillingsUpdate:  mu: +0.859773534  nElectrons: 546.000000
SCF: Cycle: 11   F: -2930.070907561416334   dF: -2.073e-06   |Residual|: 2.155e-04   |deigs|: 3.227e-06  t[s]:   3092.94
	FillingsUpdate:  mu: +0.859773114  nElectrons: 546.000000
SCF: Cycle: 12   F: -2930.070907515570525   dF: +4.585e-08   |Residual|: 2.195e-04   |deigs|: 2.458e-06  t[s]:   3134.83
	FillingsUpdate:  mu: +0.859772970  nElectrons: 546.000000
SCF: Cycle: 13   F: -2930.070907785094278   dF: -2.695e-07   |Residual|: 7.162e-05   |deigs|: 1.921e-06  t[s]:   3177.32
	FillingsUpdate:  mu: +0.859772985  nElectrons: 546.000000
SCF: Cycle: 14   F: -2930.070907808566517   dF: -2.347e-08   |Residual|: 3.152e-05   |deigs|: 6.504e-07  t[s]:   3218.88
	FillingsUpdate:  mu: +0.859773001  nElectrons: 546.000000
SCF: Cycle: 15   F: -2930.070907805971274   dF: +2.595e-09   |Residual|: 3.635e-05   |deigs|: 3.593e-07  t[s]:   3260.82
	FillingsUpdate:  mu: +0.859772983  nElectrons: 546.000000
SCF: Cycle: 16   F: -2930.070907812739733   dF: -6.768e-09   |Residual|: 1.482e-05   |deigs|: 1.973e-07  t[s]:   3303.59
	FillingsUpdate:  mu: +0.859772962  nElectrons: 546.000000
SCF: Cycle: 17   F: -2930.070907813920257   dF: -1.181e-09   |Residual|: 7.059e-06   |deigs|: 8.946e-08  t[s]:   3344.07
SCF: Converged (|Delta E|<1.000000e-08 for 2 iters).

Setting wave functions to eigenvectors of Hamiltonian

# Ionic positions in lattice coordinates:
ion Tc   0.122179307484316   0.224713364877317   0.130619832778804 1
ion Tc   0.224340623310040   0.109183304764559   0.368930574775429 1
ion Tc   0.104421112784957   0.219882116493339   0.622297430259912 1
ion Tc   0.212866238824804   0.119622692715037   0.866767860068695 1
ion Tc   0.097485013229265   0.540455344519359   0.137505531747432 1
ion Tc   0.219000410466907   0.450291179351883   0.364644302424436 1
ion Tc   0.111657958003641   0.533682548203716   0.636889561321969 1
ion Tc   0.225218104178703   0.417813940852905   0.879577356677521 1
ion Tc   0.119741822783662   0.877973205816134   0.123370199534390 1
ion Tc   0.228887029890213   0.762182858508263   0.365939515086438 1
ion Tc   0.104432641786171   0.875353233610119   0.628556166989546 1
ion Tc   0.200037010730598   0.780832045283919   0.875045327647993 1
ion Tc   0.447263274561063   0.222607732938150   0.130080121276766 1
ion Tc   0.575864702860616   0.118232404034728   0.373819069712294 1
ion Tc   0.458883119307780   0.232842271350163   0.616336840846318 1
ion Tc   0.563060650483539   0.098055112935258   0.882514345473336 1
ion Tc   0.443383726295375   0.548236337036825   0.119084044682081 1
ion Tc   0.540488221777933   0.440828093579298   0.375050569944730 1
ion Tc   0.458849851067855   0.554917295951499   0.623395071822653 1
ion Tc   0.551279568654701   0.437854280401932   0.873066807810778 1
ion Tc   0.442141220852398   0.876686414749325   0.111073431419263 1
ion Tc   0.551480766684749   0.787129396444868   0.367690061617510 1
ion Tc   0.429245141734975   0.899365635308746   0.629288273038554 1
ion Tc   0.557430262311782   0.800235495383573   0.853861126471589 1
ion Tc   0.785031322394645   0.226991809956174   0.120697927880442 1
ion Tc   0.897931816926733   0.123126914588643   0.368621526973886 1
ion Tc   0.772971565284091   0.214598763286467   0.622193349769325 1
ion Tc   0.887104197481042   0.106895059967581   0.872854568116477 1
ion Tc   0.780739710134678   0.559735566735747   0.117624256283398 1
ion Tc   0.905325485985063   0.439814547009900   0.354999209446028 1
ion Tc   0.778196810360597   0.562631152764719   0.626965335644604 1
ion Tc   0.885798837152947   0.432131574525705   0.879598087386375 1
ion Tc   0.785793882984817   0.895418834276534   0.126371179995074 1
ion Tc   0.879412513550869   0.773030194105318   0.377919527345443 1
ion Tc   0.776187163745492   0.893579303235591   0.617893891642314 1
ion Tc   0.894082691602687   0.777990717684407   0.872290945803855 1
ion O   0.324276222330298   0.370389256752300   0.544436770284342 1

# Forces in Lattice coordinates:
force Tc  -0.141870836641563  -0.188099987283729  -0.179693760253371 1
force Tc   0.074823736084343  -0.566204975171779  -0.123327250144571 1
force Tc  -1.551767106913541  -0.768982705363450   0.715811729618268 1
force Tc   0.701931802734435  -0.785019160223502   0.194735260398194 1
force Tc   0.385826627753764   0.166300509476383  -1.038594738960218 1
force Tc   0.272407264541254  -0.198597054426042   0.076159388019431 1
force Tc  -0.557703102849554   0.771440541394695  -0.053786190024501 1
force Tc  -0.524752367738865   1.023965978183695   0.075664186784668 1
force Tc  -0.335028378721927   0.437867914871488   0.299285596934655 1
force Tc  -0.452875625846316   0.764881334532713   0.354822987541372 1
force Tc  -0.026066434382507   0.187548457324463  -0.357813494076868 1
force Tc   0.635626208226002  -0.566587886450224  -0.039540085318142 1
force Tc   0.090755032238227  -0.156471968782807  -0.194246221157192 1
force Tc  -0.464664773812531   0.095982640769862  -0.148378400820171 1
force Tc   0.287437266303225  -0.784840220916888   0.310545384781374 1
force Tc  -0.644145165093192   0.810601252526957  -0.225857517644785 1
force Tc   0.047718132503192   0.244558214845914  -0.044041501259899 1
force Tc   0.858396519133700  -0.164992833687115  -0.703822323590704 1
force Tc   1.071144457812404   4.935683601956320   3.469156996134695 1
force Tc   0.258383832055077  -0.035076693922848   0.163139625879526 1
force Tc   0.068172589161184   0.075623375284802   0.263602334164650 1
force Tc   0.333564411284889  -0.199600861496436   0.071223501304001 1
force Tc   0.359387338473335  -0.413008525467017  -0.281463091538509 1
force Tc   0.265794672917205  -0.790317015394514   0.444451744678336 1
force Tc  -0.130044574105508  -0.281231826318514   0.029258891931605 1
force Tc   0.035542153615372  -0.490618682415976   0.017105880713693 1
force Tc   0.043556043144678   0.245908109145217   0.086552984010604 1
force Tc   0.027918685832132  -0.068442439104329   0.054225224819450 1
force Tc  -0.137508350043092   0.024898822200732   0.221251025286760 1
force Tc  -0.947549327764242   0.604639743384393   0.957110185802367 1
force Tc   0.416392925587764  -0.352371877561269  -0.086670584780187 1
force Tc  -0.028588217242856   0.274765438492557  -0.316326105519241 1
force Tc  -0.071935262476146  -0.094313074252034  -0.068979655139120 1
force Tc   0.222407332660445  -0.132965546134034  -0.215632681320842 1
force Tc   0.078034000560168  -0.038930628353677  -0.118673202903132 1
force Tc  -0.424215281684581   0.098364771672561  -0.004427465826546 1
force O  -0.084132678627445  -3.694425970130882  -3.672126652469192 1

# Energy components:
   Eewald =    -2569.3361911152883295
       EH =      406.9232175123572688
     Eloc =    -1842.1321107030084931
      Enl =      636.2772108864216989
      Exc =     -579.0803746975359445
 Exc_core =      221.1513797779379615
       KE =      796.4459300055661970
-------------------------------------
     Etot =    -2929.7509383335500388
       TS =        0.3199694803703189
-------------------------------------
        F =    -2930.0709078139202575

IonicMinimize: Iter:   2  F: -2930.070907813920257  |grad|_K:  6.192e-02  alpha:  5.125e-01  linmin: -9.993e-01  t[s]:   3354.71

#--- Lowdin population analysis ---
# oxidation-state Tc +0.019 +0.020 +0.013 +0.020 +0.012 -0.003 +0.015 +0.024 +0.014 +0.022 +0.015 +0.028 +0.027 +0.026 +0.004 +0.022 +0.018 +0.009 +0.032 +0.011 +0.019 +0.009 +0.012 +0.020 +0.014 +0.003 +0.017 -0.004 +0.006 +0.036 +0.017 +0.020 +0.032 +0.037 -0.001 +0.014
# oxidation-state O +0.189


-------- Electronic minimization -----------
Will mix electronic density at each iteration.
	FillingsUpdate:  mu: +0.859772962  nElectrons: 546.000000
	FillingsUpdate:  mu: +0.861130419  nElectrons: 546.000000
SCF: Cycle:  0   F: -2919.021622697282510   dF: +1.054e+01   |Residual|: 1.037e+00   |deigs|: 2.550e-03  t[s]:   3451.85
	FillingsUpdate:  mu: +0.864305241  nElectrons: 546.000000
SCF: Cycle:  1   F: -2901.720062545895416   dF: +1.730e+01   |Residual|: 1.846e+00   |deigs|: 3.784e-02  t[s]:   3523.20
	FillingsUpdate:  mu: +0.861024682  nElectrons: 546.000000
SCF: Cycle:  2   F: -2929.595714550961020   dF: -2.788e+01   |Residual|: 3.015e-01   |deigs|: 3.625e-02  t[s]:   3595.96
	FillingsUpdate:  mu: +0.859884800  nElectrons: 546.000000
SCF: Cycle:  3   F: -2929.698599506602932   dF: -1.029e-01   |Residual|: 2.900e-01   |deigs|: 2.570e-03  t[s]:   3668.18
	FillingsUpdate:  mu: +0.859703977  nElectrons: 546.000000
SCF: Cycle:  4   F: -2930.129572183205710   dF: -4.310e-01   |Residual|: 7.506e-02   |deigs|: 2.651e-03  t[s]:   3740.83
	FillingsUpdate:  mu: +0.859501924  nElectrons: 546.000000
SCF: Cycle:  5   F: -2930.143784198361573   dF: -1.421e-02   |Residual|: 4.693e-02   |deigs|: 8.448e-04  t[s]:   3805.79
	FillingsUpdate:  mu: +0.859514403  nElectrons: 546.000000
SCF: Cycle:  6   F: -2930.153360653467644   dF: -9.576e-03   |Residual|: 2.568e-02   |deigs|: 2.577e-04  t[s]:   3848.09
	FillingsUpdate:  mu: +0.859503151  nElectrons: 546.000000
SCF: Cycle:  7   F: -2930.156055810668931   dF: -2.695e-03   |Residual|: 8.282e-03   |deigs|: 1.291e-04  t[s]:   3890.48
	FillingsUpdate:  mu: +0.859498502  nElectrons: 546.000000
SCF: Cycle:  8   F: -2930.156294611541398   dF: -2.388e-04   |Residual|: 5.191e-03   |deigs|: 5.509e-05  t[s]:   3933.71
	FillingsUpdate:  mu: +0.859494078  nElectrons: 546.000000
SCF: Cycle:  9   F: -2930.156447546096388   dF: -1.529e-04   |Residual|: 1.490e-03   |deigs|: 2.562e-05  t[s]:   3975.55
	FillingsUpdate:  mu: +0.859497108  nElectrons: 546.000000
SCF: Cycle: 10   F: -2930.156454438434139   dF: -6.892e-06   |Residual|: 9.277e-04   |deigs|: 1.186e-05  t[s]:   4019.62
	FillingsUpdate:  mu: +0.859499726  nElectrons: 546.000000
SCF: Cycle: 11   F: -2930.156458017965633   dF: -3.580e-06   |Residual|: 2.997e-04   |deigs|: 5.586e-06  t[s]:   4061.43
	FillingsUpdate:  mu: +0.859498771  nElectrons: 546.000000
SCF: Cycle: 12   F: -2930.156457627329473   dF: +3.906e-07   |Residual|: 3.763e-04   |deigs|: 3.263e-06  t[s]:   4104.14
	FillingsUpdate:  mu: +0.859498677  nElectrons: 546.000000
SCF: Cycle: 13   F: -2930.156458498541724   dF: -8.712e-07   |Residual|: 7.181e-05   |deigs|: 2.290e-06  t[s]:   4146.63
	FillingsUpdate:  mu: +0.859498582  nElectrons: 546.000000
SCF: Cycle: 14   F: -2930.156458488704629   dF: +9.837e-09   |Residual|: 6.680e-05   |deigs|: 6.206e-07  t[s]:   4188.44
	FillingsUpdate:  mu: +0.859498617  nElectrons: 546.000000
SCF: Cycle: 15   F: -2930.156458505533010   dF: -1.683e-08   |Residual|: 3.812e-05   |deigs|: 4.301e-07  t[s]:   4230.91
	FillingsUpdate:  mu: +0.859498617  nElectrons: 546.000000
SCF: Cycle: 16   F: -2930.156458510078664   dF: -4.546e-09   |Residual|: 2.784e-05   |deigs|: 3.176e-07  t[s]:   4272.72
	FillingsUpdate:  mu: +0.859498582  nElectrons: 546.000000
SCF: Cycle: 17   F: -2930.156458513259167   dF: -3.181e-09   |Residual|: 1.456e-05   |deigs|: 2.033e-07  t[s]:   4315.01
SCF: Converged (|Delta E|<1.000000e-08 for 2 iters).

Setting wave functions to eigenvectors of Hamiltonian

# Ionic positions in lattice coordinates:
ion Tc   0.121688957682278   0.224179047206886   0.130372372470147 1
ion Tc   0.223903729112448   0.108076214729149   0.368756867407638 1
ion Tc   0.100521995455447   0.216825334644149   0.623326268009263 1
ion Tc   0.213506958023574   0.118746481761882   0.867037567871269 1
ion Tc   0.098426987557492   0.541187935991064   0.136112007396380 1
ion Tc   0.219394643338933   0.450191850528918   0.364825389602278 1
ion Tc   0.111320776520320   0.534694854970346   0.636804472318405 1
ion Tc   0.225195982867446   0.419382663851917   0.879652375811892 1
ion Tc   0.119498344036275   0.878533379729190   0.123783962191045 1
ion Tc   0.228733651970147   0.763272571091451   0.366422408703186 1
ion Tc   0.104575401606167   0.875714081146411   0.628069389639175 1
ion Tc   0.200771898493457   0.780319739676347   0.874994467085890 1
ion Tc   0.447286652461555   0.222375529672874   0.129815855780130 1
ion Tc   0.575001237009196   0.117952595581570   0.373619690968281 1
ion Tc   0.458623579517370   0.231679014802659   0.616762402635408 1
ion Tc   0.562559528667721   0.099060203270679   0.882196445016435 1
ion Tc   0.443732643658480   0.548796049371544   0.119031284354766 1
ion Tc   0.542021849601710   0.441410868149617   0.374232639771555 1
ion Tc   0.462725334131510   0.561512153695411   0.626182582985039 1
ion Tc   0.551772518718024   0.438054234094049   0.873284903239751 1
ion Tc   0.442353526040806   0.876916086848446   0.111439222094103 1
ion Tc   0.551964303065800   0.787066850796174   0.367786426836463 1
ion Tc   0.429559894591831   0.898863563933780   0.628904557553547 1
ion Tc   0.557164685455427   0.798873492425518   0.854495447117895 1
ion Tc   0.784482082750608   0.226291351751845   0.120745178137704 1
ion Tc   0.897488521250895   0.122150852092785   0.368640028533597 1
ion Tc   0.773319026940167   0.215160554641352   0.622313606108644 1
ion Tc   0.887084372708760   0.106781192527122   0.872942122860194 1
ion Tc   0.780489452853405   0.559644929149528   0.117931537190541 1
ion Tc   0.904023882421169   0.440096613325731   0.356291507731750 1
ion Tc   0.778712249092480   0.562346426430739   0.626846998571829 1
ion Tc   0.886024330080654   0.432665925527682   0.879165698649605 1
ion Tc   0.785546456665205   0.895146049093095   0.126280155957576 1
ion Tc   0.879732186339703   0.772976908787250   0.377622204822781 1
ion Tc   0.776292232785243   0.893558905362152   0.617732616116320 1
ion Tc   0.893313946788359   0.777755061819097   0.872283993958266 1
ion O   0.323676179739941   0.367050431521593   0.541165344501252 1

# Forces in Lattice coordinates:
force Tc  -0.137361583133465  -0.166321962957833  -0.175897745282133 1
force Tc   0.064980973658615  -0.523186686109401  -0.108387696434999 1
force Tc  -1.213410655424387  -0.588601774621589   0.583450921078107 1
force Tc   0.645246940846288  -0.704192502283805   0.181097673354912 1
force Tc   0.333996893771651   0.151761234006272  -0.902422978217984 1
force Tc   0.224343587029914  -0.151429851010906   0.104283072175442 1
force Tc  -0.493733728169279   0.696100059406303  -0.077709592002765 1
force Tc  -0.488136683603545   0.940094190406273   0.030541636941322 1
force Tc  -0.318694022304855   0.409021340266710   0.270846040493241 1
force Tc  -0.419054194658940   0.685277945299396   0.323440708349670 1
force Tc  -0.018581396347082   0.173452315183776  -0.327868058279328 1
force Tc   0.600260876638989  -0.528476291038015  -0.036147987247008 1
force Tc   0.084251915989305  -0.146532348144936  -0.186871442553450 1
force Tc  -0.436614854910827   0.088315789260973  -0.137136384729636 1
force Tc   0.202693708053065  -0.639630455295040   0.302150505356542 1
force Tc  -0.600174791670018   0.743237737975077  -0.228660625760609 1
force Tc   0.035480439645220   0.233927303522788  -0.031721533519354 1
force Tc   0.759593888676975  -0.117616730047441  -0.553204801848520 1
force Tc   0.510969387973614   3.301731473081704   2.227665735947650 1
force Tc   0.229331939856108  -0.029846714593790   0.145381960772891 1
force Tc   0.053478490509803   0.082403083635230   0.251906148313105 1
force Tc   0.306976529619668  -0.185742673675170   0.061831832501848 1
force Tc   0.345258170468370  -0.395875930293300  -0.265893968626712 1
force Tc   0.242896061929353  -0.722175458890535   0.468688299525124 1
force Tc  -0.117487512928774  -0.243361901806106   0.040498960246736 1
force Tc   0.021004565699662  -0.441029569300829   0.005635458222517 1
force Tc   0.028388848827086   0.241493014015102   0.077881331821958 1
force Tc   0.023682310921802  -0.060943975534585   0.060040161085413 1
force Tc  -0.112754221433109   0.012670085970638   0.212053087962568 1
force Tc  -0.837629262501566   0.550516859210258   0.856943646479780 1
force Tc   0.403361671842373  -0.338469733004390  -0.087398919753250 1
force Tc  -0.022839248415515   0.249930822592562  -0.296106228100365 1
force Tc  -0.065558408260910  -0.095731655341814  -0.062569906907421 1
force Tc   0.212834110174178  -0.129621678024739  -0.211108785321799 1
force Tc   0.069962800372594  -0.045748497766889  -0.107564069985397 1
force Tc  -0.380793982870793   0.086870496616849  -0.008499606064145 1
force O   0.281032226366876  -2.399741791782299  -2.473439784817133 1

# Energy components:
   Eewald =    -2572.6199473118699643
       EH =      403.9290090778443982
     Eloc =    -1835.5518202022929017
      Enl =      636.1418460972018920
      Exc =     -578.9822892110313433
 Exc_core =      221.1513404904349329
       KE =      796.0957388019278369
-------------------------------------
     Etot =    -2929.8361222577855187
       TS =        0.3203362554738252
-------------------------------------
        F =    -2930.1564585132591674

IonicMinimize: Iter:   3  F: -2930.156458513259167  |grad|_K:  4.278e-02  alpha:  4.409e-01  linmin: -9.870e-01  t[s]:   4325.42

#--- Lowdin population analysis ---
# oxidation-state Tc +0.019 +0.024 +0.026 +0.019 +0.010 +0.006 +0.018 +0.022 +0.015 +0.022 +0.014 +0.028 +0.026 +0.026 +0.014 +0.020 +0.018 +0.014 +0.040 +0.013 +0.020 +0.011 +0.012 +0.019 +0.015 +0.003 +0.015 -0.004 +0.007 +0.034 +0.018 +0.021 +0.031 +0.036 +0.000 +0.016
# oxidation-state O +0.129


-------- Electronic minimization -----------
Will mix electronic density at each iteration.
	FillingsUpdate:  mu: +0.859498582  nElectrons: 546.000000
	FillingsUpdate:  mu: +0.861994870  nElectrons: 546.000000
SCF: Cycle:  0   F: -2912.981542067391274   dF: +1.637e+01   |Residual|: 1.269e+00   |deigs|: 3.733e-03  t[s]:   4422.46
	FillingsUpdate:  mu: +0.866539163  nElectrons: 546.000000
SCF: Cycle:  1   F: -2889.264199379582806   dF: +2.372e+01   |Residual|: 2.242e+00   |deigs|: 4.467e-02  t[s]:   4493.48
	FillingsUpdate:  mu: +0.861516418  nElectrons: 546.000000
SCF: Cycle:  2   F: -2929.319668154431383   dF: -4.006e+01   |Residual|: 3.941e-01   |deigs|: 4.549e-02  t[s]:   4565.45
	FillingsUpdate:  mu: +0.859903782  nElectrons: 546.000000
SCF: Cycle:  3   F: -2929.448890551864224   dF: -1.292e-01   |Residual|: 3.778e-01   |deigs|: 3.891e-03  t[s]:   4637.41
	FillingsUpdate:  mu: +0.859441313  nElectrons: 546.000000
SCF: Cycle:  4   F: -2930.198210182159983   dF: -7.493e-01   |Residual|: 8.032e-02   |deigs|: 4.352e-03  t[s]:   4708.59
	FillingsUpdate:  mu: +0.859199849  nElectrons: 546.000000
SCF: Cycle:  5   F: -2930.202494940751421   dF: -4.285e-03   |Residual|: 6.496e-02   |deigs|: 9.920e-04  t[s]:   4774.21
	FillingsUpdate:  mu: +0.859201560  nElectrons: 546.000000
SCF: Cycle:  6   F: -2930.222804224504671   dF: -2.031e-02   |Residual|: 3.015e-02   |deigs|: 4.153e-04  t[s]:   4830.52
	FillingsUpdate:  mu: +0.859174636  nElectrons: 546.000000
SCF: Cycle:  7   F: -2930.225932974047737   dF: -3.129e-03   |Residual|: 1.118e-02   |deigs|: 1.867e-04  t[s]:   4872.26
	FillingsUpdate:  mu: +0.859164576  nElectrons: 546.000000
SCF: Cycle:  8   F: -2930.226400714255306   dF: -4.677e-04   |Residual|: 6.924e-03   |deigs|: 7.125e-05  t[s]:   4915.19
	FillingsUpdate:  mu: +0.859157582  nElectrons: 546.000000
SCF: Cycle:  9   F: -2930.226669787823994   dF: -2.691e-04   |Residual|: 1.969e-03   |deigs|: 3.718e-05  t[s]:   4958.37
	FillingsUpdate:  mu: +0.859162437  nElectrons: 546.000000
SCF: Cycle: 10   F: -2930.226679182775115   dF: -9.395e-06   |Residual|: 1.381e-03   |deigs|: 1.558e-05  t[s]:   5001.60
	FillingsUpdate:  mu: +0.859168160  nElectrons: 546.000000
SCF: Cycle: 11   F: -2930.226689336040636   dF: -1.015e-05   |Residual|: 3.574e-04   |deigs|: 1.070e-05  t[s]:   5043.73
	FillingsUpdate:  mu: +0.859165986  nElectrons: 546.000000
SCF: Cycle: 12   F: -2930.226688959713556   dF: +3.763e-07   |Residual|: 4.179e-04   |deigs|: 3.771e-06  t[s]:   5086.08
	FillingsUpdate:  mu: +0.859165909  nElectrons: 546.000000
SCF: Cycle: 13   F: -2930.226690007618345   dF: -1.048e-06   |Residual|: 9.427e-05   |deigs|: 1.695e-06  t[s]:   5128.37
	FillingsUpdate:  mu: +0.859165611  nElectrons: 546.000000
SCF: Cycle: 14   F: -2930.226689995108245   dF: +1.251e-08   |Residual|: 7.451e-05   |deigs|: 7.020e-07  t[s]:   5170.40
	FillingsUpdate:  mu: +0.859165664  nElectrons: 546.000000
SCF: Cycle: 15   F: -2930.226690025954667   dF: -3.085e-08   |Residual|: 2.691e-05   |deigs|: 5.124e-07  t[s]:   5212.68
	FillingsUpdate:  mu: +0.859165676  nElectrons: 546.000000
SCF: Cycle: 16   F: -2930.226690024759591   dF: +1.195e-09   |Residual|: 2.487e-05   |deigs|: 3.672e-07  t[s]:   5254.78
	FillingsUpdate:  mu: +0.859165667  nElectrons: 546.000000
SCF: Cycle: 17   F: -2930.226690028491248   dF: -3.732e-09   |Residual|: 1.172e-05   |deigs|: 2.595e-07  t[s]:   5297.96
	FillingsUpdate:  mu: +0.859165685  nElectrons: 546.000000
SCF: Cycle: 18   F: -2930.226690028622215   dF: -1.310e-10   |Residual|: 7.994e-06   |deigs|: 2.147e-07  t[s]:   5337.79
SCF: Converged (|Delta E|<1.000000e-08 for 2 iters).

Setting wave functions to eigenvectors of Hamiltonian

# Ionic positions in lattice coordinates:
ion Tc   0.120926419273723   0.223380109953716   0.129965931254781 1
ion Tc   0.223218190662335   0.106380758563997   0.368515447256930 1
ion Tc   0.095822501048058   0.213152773019823   0.624616733011551 1
ion Tc   0.214521661915540   0.117480889516091   0.867454839894066 1
ion Tc   0.099777962775114   0.542254613946468   0.134140616302557 1
ion Tc   0.219913601823484   0.450104347642330   0.365152321025500 1
ion Tc   0.110852158072926   0.536221821510837   0.636596770965083 1
ion Tc   0.225127159912658   0.421753406805549   0.879667310822499 1
ion Tc   0.119093599901663   0.879389712865817   0.124399263201655 1
ion Tc   0.228449063701478   0.764855586634958   0.367153204980678 1
ion Tc   0.104817727145206   0.876280679862448   0.627333019217377 1
ion Tc   0.201942040675275   0.779540263046175   0.874918120348736 1
ion Tc   0.447320546765721   0.222013038605903   0.129389069636112 1
ion Tc   0.573642837713870   0.117502597775662   0.373314111885736 1
ion Tc   0.458161840503813   0.230027422121872   0.617465471530504 1
ion Tc   0.561758537739578   0.100563932437747   0.881655632367327 1
ion Tc   0.444245734108929   0.549667071198282   0.118976039410111 1
ion Tc   0.544349191341225   0.442361290489487   0.373176098176458 1
ion Tc   0.466081256471862   0.568178836832644   0.628909155515358 1
ion Tc   0.552491389817919   0.438345608544979   0.873609032625302 1
ion Tc   0.442667462889840   0.877302895175490   0.112025156700077 1
ion Tc   0.552694664678154   0.786957178019120   0.367925152139804 1
ion Tc   0.430071295182838   0.898072924302101   0.628299847014306 1
ion Tc   0.556761639010717   0.796821215004317   0.855634611347996 1
ion Tc   0.783683897451429   0.225291623768304   0.120857739162899 1
ion Tc   0.896788479214655   0.120684715142448   0.368642743550663 1
ion Tc   0.773824896003851   0.216054569602169   0.622492655556646 1
ion Tc   0.887053647077308   0.106613408395787   0.873100228604192 1
ion Tc   0.780142340350131   0.559490366858603   0.118425985397677 1
ion Tc   0.902165875188857   0.440571317679368   0.358200695795983 1
ion Tc   0.779544580223184   0.561881947009363   0.626645058556195 1
ion Tc   0.886375953348326   0.433477195801794   0.878493576803028 1
ion Tc   0.785150876320713   0.894691328085569   0.126144661614243 1
ion Tc   0.880242052372139   0.772886671586103   0.377133512408005 1
ion Tc   0.776431001326868   0.893491535269964   0.617494257172938 1
ion Tc   0.892173976690475   0.777401700330391   0.872262914312691 1
ion O   0.324203941300136   0.364164646594326   0.537683014434337 1

# Forces in Lattice coordinates:
force Tc  -0.131392427046659  -0.133314882346632  -0.172039175292600 1
force Tc   0.050129757708389  -0.448946119780518  -0.080343768836837 1
force Tc  -0.823177285917893  -0.400268310697426   0.403608062208212 1
force Tc   0.565485041432057  -0.598144520913671   0.164046517620822 1
force Tc   0.268450310187843   0.131991853180029  -0.733885463475425 1
force Tc   0.147396787048629  -0.089828260784204   0.104529716551362 1
force Tc  -0.416056937915894   0.603177982121744  -0.107594641210979 1
force Tc  -0.436271938224316   0.819758585129730  -0.013600850228114 1
force Tc  -0.292601815720794   0.364301466434346   0.223681223536508 1
force Tc  -0.370023667430695   0.575305431747176   0.278890512551422 1
force Tc  -0.010387924436640   0.158000647613193  -0.281173558123553 1
force Tc   0.543427753499397  -0.468927028201114  -0.033782032973349 1
force Tc   0.074800479018628  -0.130221776539038  -0.177860975868519 1
force Tc  -0.392183033721522   0.073816055698051  -0.120972087799579 1
force Tc   0.143791824358024  -0.517679275439421   0.293555939950315 1
force Tc  -0.532601741292333   0.642798591908448  -0.224777501234824 1
force Tc   0.023240709584352   0.214896575249944  -0.016199596154785 1
force Tc   0.652170804170150  -0.083860810801182  -0.412038620347096 1
force Tc   0.149542614948725   2.159465625306751   1.359649484151199 1
force Tc   0.189997319168296  -0.021826233326117   0.119346182081587 1
force Tc   0.033035675897016   0.092657565432652   0.234124056006144 1
force Tc   0.269713657005925  -0.169896677049672   0.052941919099513 1
force Tc   0.321625403107797  -0.359697118763586  -0.242173468436438 1
force Tc   0.209032503254055  -0.622126369824414   0.496120394676673 1
force Tc  -0.101411689033303  -0.191421505029385   0.052719728310954 1
force Tc   0.001719509596875  -0.370614422466820  -0.007899081478861 1
force Tc   0.001662932378089   0.230640843025686   0.064760121049344 1
force Tc   0.020674553169703  -0.049493954288554   0.063792523732740 1
force Tc  -0.080010267600353  -0.004818501537817   0.197553378263173 1
force Tc  -0.692185726976254   0.472318310205124   0.723959290972451 1
force Tc   0.366555936307291  -0.315223768368377  -0.087932823207539 1
force Tc  -0.018252260023158   0.215247118972047  -0.262509137853831 1
force Tc  -0.056304441436953  -0.096332574946910  -0.054961570476731 1
force Tc   0.196391108265399  -0.119636648225757  -0.201350732562116 1
force Tc   0.063403805479622  -0.052126099401289  -0.090386672106231 1
force Tc  -0.317824595992626   0.072775646104090  -0.011947419281342 1
force O   0.384080410017662  -1.588420140155760  -1.573415980811026 1

# Energy components:
   Eewald =    -2576.1708915271415208
       EH =      400.6305662118467694
     Eloc =    -1828.4008565905946853
      Enl =      636.0165616071110435
      Exc =     -578.8839561632521509
 Exc_core =      221.1513692280305463
       KE =      795.7512914451406232
-------------------------------------
     Etot =    -2929.9059157888596019
       TS =        0.3207742397623948
-------------------------------------
        F =    -2930.2266900286222153

IonicMinimize: Iter:   4  F: -2930.226690028622215  |grad|_K:  2.959e-02  alpha:  4.061e-01  linmin: -9.769e-01  t[s]:   5348.22

#--- Lowdin population analysis ---
# oxidation-state Tc +0.019 +0.027 +0.037 +0.017 +0.009 +0.014 +0.019 +0.020 +0.015 +0.022 +0.014 +0.027 +0.025 +0.026 +0.023 +0.018 +0.018 +0.019 +0.047 +0.013 +0.020 +0.011 +0.012 +0.018 +0.016 +0.004 +0.014 -0.002 +0.008 +0.031 +0.018 +0.022 +0.030 +0.035 +0.002 +0.018
# oxidation-state O +0.080


-------- Electronic minimization -----------
Will mix electronic density at each iteration.
	FillingsUpdate:  mu: +0.859165685  nElectrons: 546.000000
	FillingsUpdate:  mu: +0.863181669  nElectrons: 546.000000
SCF: Cycle:  0   F: -2904.170921921367608   dF: +2.476e+01   |Residual|: 1.556e+00   |deigs|: 5.632e-03  t[s]:   5447.11
	FillingsUpdate:  mu: +0.870082722  nElectrons: 546.000000
SCF: Cycle:  1   F: -2874.475516033443910   dF: +2.970e+01   |Residual|: 2.658e+00   |deigs|: 5.188e-02  t[s]:   5518.68
	FillingsUpdate:  mu: +0.862246743  nElectrons: 546.000000
SCF: Cycle:  2   F: -2928.785240857994722   dF: -5.431e+01   |Residual|: 5.089e-01   |deigs|: 5.626e-02  t[s]:   5589.21
	FillingsUpdate:  mu: +0.860042005  nElectrons: 546.000000
SCF: Cycle:  3   F: -2928.972429442881548   dF: -1.872e-01   |Residual|: 4.798e-01   |deigs|: 5.363e-03  t[s]:   5662.15
	FillingsUpdate:  mu: +0.859152572  nElectrons: 546.000000
SCF: Cycle:  4   F: -2930.248240562469164   dF: -1.276e+00   |Residual|: 9.479e-02   |deigs|: 6.155e-03  t[s]:   5732.99
	FillingsUpdate:  mu: +0.858884227  nElectrons: 546.000000
SCF: Cycle:  5   F: -2930.245043796540358   dF: +3.197e-03   |Residual|: 8.628e-02   |deigs|: 1.230e-03  t[s]:   5805.33
	FillingsUpdate:  mu: +0.858842739  nElectrons: 546.000000
SCF: Cycle:  6   F: -2930.282380923109031   dF: -3.734e-02   |Residual|: 3.365e-02   |deigs|: 6.520e-04  t[s]:   5864.86
	FillingsUpdate:  mu: +0.858791246  nElectrons: 546.000000
SCF: Cycle:  7   F: -2930.285131124034251   dF: -2.750e-03   |Residual|: 1.397e-02   |deigs|: 2.508e-04  t[s]:   5930.82
	FillingsUpdate:  mu: +0.858772989  nElectrons: 546.000000
SCF: Cycle:  8   F: -2930.285708922059712   dF: -5.778e-04   |Residual|: 9.461e-03   |deigs|: 8.302e-05  t[s]:   5973.23
	FillingsUpdate:  mu: +0.858765183  nElectrons: 546.000000
SCF: Cycle:  9   F: -2930.286224995855264   dF: -5.161e-04   |Residual|: 2.579e-03   |deigs|: 5.277e-05  t[s]:   6015.73
	FillingsUpdate:  mu: +0.858773631  nElectrons: 546.000000
SCF: Cycle: 10   F: -2930.286237350221654   dF: -1.235e-05   |Residual|: 2.000e-03   |deigs|: 2.158e-05  t[s]:   6058.19
	FillingsUpdate:  mu: +0.858782653  nElectrons: 546.000000
SCF: Cycle: 11   F: -2930.286258935902424   dF: -2.159e-05   |Residual|: 5.929e-04   |deigs|: 1.647e-05  t[s]:   6101.01
	FillingsUpdate:  mu: +0.858778659  nElectrons: 546.000000
SCF: Cycle: 12   F: -2930.286260079134991   dF: -1.143e-06   |Residual|: 4.184e-04   |deigs|: 7.095e-06  t[s]:   6142.95
	FillingsUpdate:  mu: +0.858778533  nElectrons: 546.000000
SCF: Cycle: 13   F: -2930.286261072778416   dF: -9.936e-07   |Residual|: 1.349e-04   |deigs|: 2.165e-06  t[s]:   6185.22
	FillingsUpdate:  mu: +0.858778050  nElectrons: 546.000000
SCF: Cycle: 14   F: -2930.286261101142372   dF: -2.836e-08   |Residual|: 6.414e-05   |deigs|: 9.230e-07  t[s]:   6227.26
	FillingsUpdate:  mu: +0.858778111  nElectrons: 546.000000
SCF: Cycle: 15   F: -2930.286261112945795   dF: -1.180e-08   |Residual|: 4.721e-05   |deigs|: 7.768e-07  t[s]:   6270.37
	FillingsUpdate:  mu: +0.858778105  nElectrons: 546.000000
SCF: Cycle: 16   F: -2930.286261121857478   dF: -8.912e-09   |Residual|: 2.428e-05   |deigs|: 5.313e-07  t[s]:   6312.90
	FillingsUpdate:  mu: +0.858778100  nElectrons: 546.000000
SCF: Cycle: 17   F: -2930.286261124988869   dF: -3.131e-09   |Residual|: 1.225e-05   |deigs|: 2.938e-07  t[s]:   6355.19
SCF: Converged (|Delta E|<1.000000e-08 for 2 iters).

Setting wave functions to eigenvectors of Hamiltonian

# Ionic positions in lattice coordinates:
ion Tc   0.119775454978766   0.222263961824711   0.129281663928063 1
ion Tc   0.222206684344725   0.103960141716971   0.368244936909202 1
ion Tc   0.091101074715762   0.209439842594392   0.625932193663532 1
ion Tc   0.216081672319615   0.115755360468173   0.868095415323990 1
ion Tc   0.101591065518281   0.543726871658694   0.131518012094121 1
ion Tc   0.220432088190886   0.450094097012504   0.365638003833510 1
ion Tc   0.110254081368212   0.538480652179686   0.636101661824532 1
ion Tc   0.224943535766401   0.425167901752871   0.879510958477317 1
ion Tc   0.118424634398705   0.880637615426425   0.125228610293379 1
ion Tc   0.227921004531554   0.766987907476200   0.368205476112683 1
ion Tc   0.105241743046705   0.877183292371469   0.626287660851376 1
ion Tc   0.203764854079018   0.778421078476264   0.874795145258935 1
ion Tc   0.447374670219513   0.221475244363294   0.128692487027731 1
ion Tc   0.571568713972576   0.116777280400619   0.372862605916315 1
ion Tc   0.457428877937670   0.227675049428917   0.618646872871573 1
ion Tc   0.560508165624056   0.102679234149661   0.880749336061766 1
ion Tc   0.444980734692544   0.550987206963387   0.118951650446309 1
ion Tc   0.547785951430126   0.443818865701638   0.371883357802264 1
ion Tc   0.468608928434717   0.574889118110196   0.631447729646041 1
ion Tc   0.553483282996938   0.438762322941064   0.874048472497919 1
ion Tc   0.443106303685172   0.877974210088585   0.112951512940479 1
ion Tc   0.553743982172387   0.786739589557274   0.368127270387207 1
ion Tc   0.430923008256720   0.896908126770499   0.627368994617143 1
ion Tc   0.556183668973799   0.793885571291747   0.857725076196242 1
ion Tc   0.782604163360903   0.223990871386842   0.121107636232674 1
ion Tc   0.895703403807791   0.118594350072468   0.368587872743059 1
ion Tc   0.774455841515641   0.217413796828731   0.622738479366575 1
ion Tc   0.887031276438837   0.106400556002772   0.873381774443246 1
ion Tc   0.779712592839269   0.559213587286849   0.119210049701997 1
ion Tc   0.899701882486494   0.441340574118464   0.360878191048800 1
ion Tc   0.780774034342000   0.561097087221881   0.626293722634794 1
ion Tc   0.886889975138586   0.434646872232208   0.877497227304312 1
ion Tc   0.784534982014071   0.893937087133484   0.125945399414590 1
ion Tc   0.881045843929262   0.772754301260897   0.376338916080980 1
ion Tc   0.776619828554050   0.893325069201911   0.617167238082204 1
ion Tc   0.890612004578160   0.776922233541202   0.872213155239634 1
ion O   0.325369989340087   0.360983070987054   0.534215232725503 1

# Forces in Lattice coordinates:
force Tc  -0.119099636576572  -0.088689802919573  -0.164219783253967 1
force Tc   0.030004728539145  -0.336864449732909  -0.042217022823113 1
force Tc  -0.475535311552183  -0.236442473372243   0.251706543106958 1
force Tc   0.449190021468405  -0.463421046065564   0.145040390557551 1
force Tc   0.197502874727406   0.103818055071353  -0.546746140239052 1
force Tc   0.061745113678804  -0.024046267683349   0.090777464848568 1
force Tc  -0.323326688624581   0.493037450902627  -0.140922600032169 1
force Tc  -0.362224750892952   0.658751901438750  -0.050513594883328 1
force Tc  -0.253961553371035   0.298971776405341   0.153757245211041 1
force Tc  -0.303622797041816   0.441411167293170   0.224126850414918 1
force Tc  -0.000737853355275   0.134060190495762  -0.214320423452650 1
force Tc   0.464539723749194  -0.383976514060446  -0.032266266953467 1
force Tc   0.058683675561116  -0.104266596443629  -0.163188443293652 1
force Tc  -0.328797248536973   0.054519614766085  -0.099628460644345 1
force Tc   0.109080041249690  -0.408473669147315   0.272292600460519 1
force Tc  -0.435585731454200   0.506073218742902  -0.214081794148133 1
force Tc   0.009476798532534   0.183099698599150   0.003537351376458 1
force Tc   0.527524970643877  -0.060602015606648  -0.277626533607212 1
force Tc  -0.068357977225340   1.324073806562404   0.734198521887504 1
force Tc   0.140755272185365  -0.008392890662321   0.082450541478184 1
force Tc   0.005288834799772   0.106563018928172   0.209391424677161 1
force Tc   0.219335105476843  -0.151251936414868   0.043971576511538 1
force Tc   0.285807795089911  -0.305453657678044  -0.204293419148054 1
force Tc   0.169659520870230  -0.493594727224393   0.501019920278773 1
force Tc  -0.081855122867323  -0.128240707244632   0.061227028163255 1
force Tc  -0.017986559856737  -0.275380445199469  -0.016390485045208 1
force Tc  -0.026422328179671   0.203838074219273   0.042914060793393 1
force Tc   0.016466069684508  -0.032088795129459   0.061102596668477 1
force Tc  -0.040107317779582  -0.027056522040967   0.168955490004003 1
force Tc  -0.518756564612881   0.367931978708762   0.558374271594959 1
force Tc   0.294345211499201  -0.269652399870019  -0.084187363733166 1
force Tc  -0.017484042273626   0.171972591561598  -0.216282920500663 1
force Tc  -0.041933108566190  -0.094788885689234  -0.046903634230289 1
force Tc   0.171784815605471  -0.098676497196917  -0.177601471791287 1
force Tc   0.062121780624812  -0.061009179017140  -0.066035903309810 1
force Tc  -0.235687964775115   0.055076261224015  -0.016395346937816 1
force O   0.388070868245293  -1.045080871212879  -0.920139895832128 1

# Energy components:
   Eewald =    -2579.8322796321640453
       EH =      397.1885268923098806
     Eloc =    -1821.0019580347714054
      Enl =      635.8980247325370101
      Exc =     -578.7871889539624135
 Exc_core =      221.1513390509726094
       KE =      795.4185334159541299
-------------------------------------
     Etot =    -2929.9650025291239217
       TS =        0.3212585958647884
-------------------------------------
        F =    -2930.2862611249888687

IonicMinimize: Iter:   5  F: -2930.286261124988869  |grad|_K:  1.989e-02  alpha:  4.147e-01  linmin: -9.799e-01  t[s]:   6365.77

#--- Lowdin population analysis ---
# oxidation-state Tc +0.019 +0.031 +0.046 +0.015 +0.008 +0.022 +0.019 +0.018 +0.016 +0.021 +0.014 +0.026 +0.024 +0.026 +0.033 +0.016 +0.018 +0.024 +0.054 +0.013 +0.021 +0.012 +0.012 +0.017 +0.018 +0.005 +0.013 +0.001 +0.009 +0.027 +0.017 +0.022 +0.028 +0.032 +0.004 +0.021
# oxidation-state O +0.038


-------- Electronic minimization -----------
Will mix electronic density at each iteration.
	FillingsUpdate:  mu: +0.858778100  nElectrons: 546.000000
	FillingsUpdate:  mu: +0.864216310  nElectrons: 546.000000
SCF: Cycle:  0   F: -2892.417044266623179   dF: +3.580e+01   |Residual|: 1.890e+00   |deigs|: 8.360e-03  t[s]:   6463.75
	FillingsUpdate:  mu: +0.874379922  nElectrons: 546.000000
SCF: Cycle:  1   F: -2858.774795177965643   dF: +3.364e+01   |Residual|: 3.050e+00   |deigs|: 5.864e-02  t[s]:   6535.84
	FillingsUpdate:  mu: +0.863155340  nElectrons: 546.000000
SCF: Cycle:  2   F: -2928.008786691162186   dF: -6.923e+01   |Residual|: 6.267e-01   |deigs|: 6.822e-02  t[s]:   6608.01
	FillingsUpdate:  mu: +0.860313403  nElectrons: 546.000000
SCF: Cycle:  3   F: -2928.125352365423169   dF: -1.166e-01   |Residual|: 6.124e-01   |deigs|: 6.047e-03  t[s]:   6680.10
	FillingsUpdate:  mu: +0.858887697  nElectrons: 546.000000
SCF: Cycle:  4   F: -2930.281880236372672   dF: -2.157e+00   |Residual|: 1.111e-01   |deigs|: 8.372e-03  t[s]:   6751.98
	FillingsUpdate:  mu: +0.858574698  nElectrons: 546.000000
SCF: Cycle:  5   F: -2930.265374880821128   dF: +1.651e-02   |Residual|: 1.110e-01   |deigs|: 1.647e-03  t[s]:   6823.01
	FillingsUpdate:  mu: +0.858476275  nElectrons: 546.000000
SCF: Cycle:  6   F: -2930.331821481443512   dF: -6.645e-02   |Residual|: 3.579e-02   |deigs|: 9.431e-04  t[s]:   6885.15
	FillingsUpdate:  mu: +0.858381049  nElectrons: 546.000000
SCF: Cycle:  7   F: -2930.334410590151947   dF: -2.589e-03   |Residual|: 1.558e-02   |deigs|: 3.185e-04  t[s]:   6950.03
	FillingsUpdate:  mu: +0.858356291  nElectrons: 546.000000
SCF: Cycle:  8   F: -2930.334576483264755   dF: -1.659e-04   |Residual|: 1.265e-02   |deigs|: 9.958e-05  t[s]:   6991.63
	FillingsUpdate:  mu: +0.858352516  nElectrons: 546.000000
SCF: Cycle:  9   F: -2930.335560823301876   dF: -9.843e-04   |Residual|: 3.239e-03   |deigs|: 7.206e-05  t[s]:   7034.24
	FillingsUpdate:  mu: +0.858369302  nElectrons: 546.000000
SCF: Cycle: 10   F: -2930.335585964783149   dF: -2.514e-05   |Residual|: 2.511e-03   |deigs|: 3.031e-05  t[s]:   7076.66
	FillingsUpdate:  mu: +0.858378719  nElectrons: 546.000000
SCF: Cycle: 11   F: -2930.335615846427572   dF: -2.988e-05   |Residual|: 1.030e-03   |deigs|: 1.807e-05  t[s]:   7119.36
	FillingsUpdate:  mu: +0.858372022  nElectrons: 546.000000
SCF: Cycle: 12   F: -2930.335623073273382   dF: -7.227e-06   |Residual|: 3.652e-04   |deigs|: 1.159e-05  t[s]:   7161.10
	FillingsUpdate:  mu: +0.858371823  nElectrons: 546.000000
SCF: Cycle: 13   F: -2930.335623504812702   dF: -4.315e-07   |Residual|: 2.351e-04   |deigs|: 2.410e-06  t[s]:   7203.58
	FillingsUpdate:  mu: +0.858371202  nElectrons: 546.000000
SCF: Cycle: 14   F: -2930.335623724154630   dF: -2.193e-07   |Residual|: 7.657e-05   |deigs|: 1.461e-06  t[s]:   7245.77
	FillingsUpdate:  mu: +0.858371207  nElectrons: 546.000000
SCF: Cycle: 15   F: -2930.335623711570861   dF: +1.258e-08   |Residual|: 8.567e-05   |deigs|: 1.118e-06  t[s]:   7288.58
	FillingsUpdate:  mu: +0.858371179  nElectrons: 546.000000
SCF: Cycle: 16   F: -2930.335623754424887   dF: -4.285e-08   |Residual|: 2.601e-05   |deigs|: 8.860e-07  t[s]:   7330.38
	FillingsUpdate:  mu: +0.858371183  nElectrons: 546.000000
SCF: Cycle: 17   F: -2930.335623756447148   dF: -2.022e-09   |Residual|: 1.603e-05   |deigs|: 5.501e-07  t[s]:   7372.81
	FillingsUpdate:  mu: +0.858371216  nElectrons: 546.000000
SCF: Cycle: 18   F: -2930.335623757835947   dF: -1.389e-09   |Residual|: 6.419e-06   |deigs|: 4.455e-07  t[s]:   7413.75
SCF: Converged (|Delta E|<1.000000e-08 for 2 iters).

Setting wave functions to eigenvectors of Hamiltonian

# Ionic positions in lattice coordinates:
ion Tc   0.118144035170470   0.220884972540562   0.128129635785265 1
ion Tc   0.220851121925026   0.100911030214001   0.368081083463213 1
ion Tc   0.087204143734033   0.206314839443304   0.627173706948107 1
ion Tc   0.218240963785773   0.113545197012167   0.869099303427489 1
ion Tc   0.103858240553239   0.545608322884224   0.128246830621874 1
ion Tc   0.220700942118842   0.450304032221911   0.366309039624394 1
ion Tc   0.109610523532741   0.541772130021159   0.634972732219266 1
ion Tc   0.224538833627034   0.429773899795503   0.879002446605882 1
ion Tc   0.117300849792094   0.882295398136713   0.126139163973008 1
[...]
force Tc  -0.000119790040525  -0.001201272742089   0.002859774779086 1
force Tc   0.001545368353634  -0.000587392525058  -0.002728570988638 1
force Tc   0.000850416478972  -0.001656067619963  -0.003869165324473 1
force Tc   0.001026322471849  -0.005486413020396  -0.007545772152201 1
force Tc  -0.000010118801377  -0.000628728917286  -0.001408087629034 1
force Tc   0.002004289183323  -0.003194471978964   0.000439691614946 1
force Tc  -0.001738630074385   0.001882791960653   0.002076945546086 1
force Tc  -0.001574951474995  -0.003600537800794   0.005378617487788 1
force Tc  -0.002103983488765   0.003201480283939  -0.004567678871456 1
force Tc   0.001229850431919  -0.002483230041894   0.001236334396835 1
force Tc   0.000889057258799  -0.001112818062574   0.002485069179174 1
force Tc   0.004965522538139  -0.004017652484736   0.005216750072476 1
force Tc   0.002158792980353  -0.002111139296631  -0.001848162293429 1
force Tc   0.000498648283226   0.000516112922891  -0.002736882932810 1
force Tc   0.002949647084476  -0.004551691963058   0.000251973429356 1
force Tc   0.001107105896055  -0.001074188603296   0.002222896783093 1
force Tc   0.002726488102790  -0.003979166015008   0.004037004093212 1
force Tc   0.000561920169080   0.000588100789102   0.001181070675546 1
force Tc   0.001103746856227  -0.002427929597715   0.003448779134427 1
force Tc  -0.002021635467686   0.000975962437466   0.001958683743837 1
force Tc  -0.000478657394224   0.000072315484684   0.000924833269511 1
force O   0.002038358552041   0.002545520810191  -0.007075027018723 1

# Energy components:
   Eewald =    -2586.4473184086714355
       EH =      390.9445107886496089
     Eloc =    -1807.5439579739688725
      Enl =      635.6585965311048767
      Exc =     -578.5942735826040462
 Exc_core =      221.1511948226797699
       KE =      794.7552098708231370
-------------------------------------
     Etot =    -2930.0760379519870185
       TS =        0.3209242332786048
-------------------------------------
        F =    -2930.3969621852656928

IonicMinimize: Iter:  15  F: -2930.396962185265693  |grad|_K:  2.021e-04  alpha:  1.000e+00  linmin: -6.775e-01  t[s]:  15534.71

#--- Lowdin population analysis ---
# oxidation-state Tc +0.014 +0.052 +0.053 +0.014 +0.013 +0.051 +0.012 +0.014 +0.013 +0.016 +0.012 +0.025 +0.014 +0.012 +0.053 +0.013 +0.014 +0.052 +0.053 +0.014 +0.025 +0.013 +0.015 +0.013 +0.025 +0.013 +0.015 +0.013 +0.013 +0.015 +0.012 +0.025 +0.025 +0.016 +0.015 +0.025
# oxidation-state O -0.043


-------- Electronic minimization -----------
Will mix electronic density at each iteration.
	FillingsUpdate:  mu: +0.857881898  nElectrons: 546.000000
	FillingsUpdate:  mu: +0.857882063  nElectrons: 546.000000
SCF: Cycle:  0   F: -2930.396836356429503   dF: -1.844e-05   |Residual|: 4.110e-03   |deigs|: 3.183e-06  t[s]:  15628.62
	FillingsUpdate:  mu: +0.857881073  nElectrons: 546.000000
SCF: Cycle:  1   F: -2930.396346154733237   dF: +4.902e-04   |Residual|: 7.857e-03   |deigs|: 7.399e-05  t[s]:  15670.90
	FillingsUpdate:  mu: +0.857879586  nElectrons: 546.000000
SCF: Cycle:  2   F: -2930.396993001479586   dF: -6.468e-04   |Residual|: 1.068e-03   |deigs|: 4.938e-05  t[s]:  15713.40
	FillingsUpdate:  mu: +0.857879680  nElectrons: 546.000000
SCF: Cycle:  3   F: -2930.396990285126321   dF: +2.716e-06   |Residual|: 9.442e-04   |deigs|: 7.416e-06  t[s]:  15755.70
	FillingsUpdate:  mu: +0.857879279  nElectrons: 546.000000
SCF: Cycle:  4   F: -2930.396995090066412   dF: -4.805e-06   |Residual|: 3.571e-04   |deigs|: 5.064e-06  t[s]:  15797.87
	FillingsUpdate:  mu: +0.857879009  nElectrons: 546.000000
SCF: Cycle:  5   F: -2930.396995711870659   dF: -6.218e-07   |Residual|: 1.215e-04   |deigs|: 3.611e-06  t[s]:  15840.13
	FillingsUpdate:  mu: +0.857879101  nElectrons: 546.000000
SCF: Cycle:  6   F: -2930.396995684171543   dF: +2.770e-08   |Residual|: 1.065e-04   |deigs|: 9.189e-07  t[s]:  15882.56
	FillingsUpdate:  mu: +0.857879070  nElectrons: 546.000000
SCF: Cycle:  7   F: -2930.396995739984050   dF: -5.581e-08   |Residual|: 1.557e-05   |deigs|: 5.200e-07  t[s]:  15924.51
	FillingsUpdate:  mu: +0.857879089  nElectrons: 546.000000
SCF: Cycle:  8   F: -2930.396995738461101   dF: +1.523e-09   |Residual|: 1.752e-05   |deigs|: 1.851e-07  t[s]:  15966.62
	FillingsUpdate:  mu: +0.857879087  nElectrons: 546.000000
SCF: Cycle:  9   F: -2930.396995740702550   dF: -2.241e-09   |Residual|: 3.296e-06   |deigs|: 1.391e-07  t[s]:  16008.12
	FillingsUpdate:  mu: +0.857879085  nElectrons: 546.000000
SCF: Cycle: 10   F: -2930.396995740475177   dF: +2.274e-10   |Residual|: 2.529e-06   |deigs|: 3.457e-08  t[s]:  16039.18
	FillingsUpdate:  mu: +0.857879084  nElectrons: 546.000000
SCF: Cycle: 11   F: -2930.396995740488819   dF: -1.364e-11   |Residual|: 7.636e-07   |deigs|: 1.977e-08  t[s]:  16067.75
	FillingsUpdate:  mu: +0.857879082  nElectrons: 546.000000
SCF: Cycle: 12   F: -2930.396995740646616   dF: -1.578e-10   |Residual|: 4.661e-07   |deigs|: 6.910e-09  t[s]:  16096.46
SCF: Converged (|Delta E|<1.000000e-08 for 2 iters).

Setting wave functions to eigenvectors of Hamiltonian

# Ionic positions in lattice coordinates:
ion Tc   0.109429656424142   0.220550192376515   0.123343601471621 1
ion Tc   0.213176857623165   0.092235205863161   0.367736912798494 1
ion Tc   0.092853919697477   0.212276190976819   0.629419912177977 1
ion Tc   0.221585956233735   0.108547124123018   0.874877726577045 1
ion Tc   0.110820427575144   0.555384916240433   0.122273169015851 1
ion Tc   0.213307761415508   0.452672477291177   0.367854572558883 1
ion Tc   0.110046075576807   0.556425727476615   0.625525026505902 1
ion Tc   0.221559731407451   0.444564517766894   0.874799459496350 1
ion Tc   0.110738973291308   0.887045194793681   0.122306334326836 1
ion Tc   0.223424680910612   0.777418092292096   0.374529562164157 1
ion Tc   0.109966373243804   0.885363809197214   0.625508131961739 1
ion Tc   0.223960064517633   0.777750944185116   0.872615793163602 1
ion Tc   0.445504933491272   0.220435697545382   0.123306685296960 1
ion Tc   0.557180984815502   0.108981043549282   0.372123807073178 1
ion Tc   0.453958123377248   0.212251817165216   0.629786677744011 1
ion Tc   0.556597267528641   0.109798201700622   0.875340038572095 1
ion Tc   0.445509149844259   0.556518027804321   0.123332977370213 1
ion Tc   0.573741937290236   0.452728521950061   0.367887479850243 1
ion Tc   0.453880953192587   0.573114028243178   0.629426859955936 1
ion Tc   0.557717316158193   0.444546177501214   0.874928197747355 1
ion Tc   0.443456663953346   0.887540964848040   0.124950371547720 1
ion Tc   0.557282386093300   0.779901270954458   0.372067873525238 1
ion Tc   0.443931583958280   0.887921217881709   0.623186744871187 1
ion Tc   0.556439861459996   0.777867514842826   0.875364326652046 1
ion Tc   0.778645314730633   0.222832231671639   0.124955041208115 1
ion Tc   0.886148419134426   0.108816328603164   0.372048419744996 1
ion Tc   0.778422747404695   0.222559394808629   0.623131020442883 1
ion Tc   0.888265100342039   0.109840599574719   0.875357948235980 1
ion Tc   0.778888706990531   0.555247799055497   0.122378062766167 1
ion Tc   0.888706761743097   0.442730898347602   0.374474413117769 1
ion Tc   0.780894860222020   0.556305048078055   0.625537100543396 1
ion Tc   0.888704343974926   0.442530861780812   0.872630473364776 1
ion Tc   0.778526300050946   0.887484303303900   0.124894636763834 1
ion Tc   0.888534659894349   0.777268407632109   0.374549846167064 1
ion Tc   0.778511140955387   0.887701843154906   0.623320158202090 1
ion Tc   0.888729625687747   0.777525607920356   0.872647012970192 1
ion O   0.333440379789552   0.332627799499565   0.499453624048096 1

# Forces in Lattice coordinates:
force Tc   0.002344520491540  -0.003464950390345  -0.002019498921097 1
force Tc   0.001797422926481  -0.001085178356206   0.003315515168066 1
force Tc  -0.000446491363991  -0.002301843451793   0.000218093895033 1
force Tc   0.001977798616925  -0.003264018411455  -0.001271824349320 1
force Tc   0.001114242692531  -0.002295626651768  -0.001377751275564 1
force Tc  -0.002599634294323   0.003017853807922  -0.003835863445838 1
force Tc   0.000478875793597  -0.002264294857819  -0.000322375151512 1
force Tc   0.001307463749283  -0.000969182032007  -0.000496585095536 1
force Tc   0.001254259524509  -0.001808326031356   0.001165077910735 1
force Tc  -0.000109775935237   0.000339809810842   0.001583106043094 1
force Tc  -0.000152664117169  -0.000562131767423   0.000099588053063 1
force Tc  -0.000301372355242  -0.003066052007359   0.001053022319636 1
force Tc   0.001796087550240  -0.002064799173077  -0.000054227459219 1
force Tc   0.000416820988127  -0.001760730009306  -0.001146722849379 1
force Tc  -0.006633925771062   0.006037906453653  -0.003951331645190 1
force Tc  -0.002336869751535   0.000596810899235   0.000839083102339 1
force Tc   0.001982846251514  -0.000539518374032  -0.002049869272925 1
force Tc   0.001294192613060  -0.000407159632561  -0.001944600279016 1
force Tc   0.001562355648739   0.004302905014729   0.000804340082777 1
force Tc   0.000745191988971  -0.000504007441016  -0.001803126661859 1
force Tc   0.000491876205406  -0.001704413777812   0.000767295491675 1
force Tc   0.000932122425348  -0.000454453910676  -0.000185073411555 1
force Tc  -0.000010720605400  -0.004851025233330   0.000651959550731 1
force Tc  -0.000004892849362  -0.000513138583314   0.000432885287604 1
force Tc   0.001424892578623  -0.002689825409751   0.000896237725804 1
force Tc   0.001273433304519  -0.002337244217186  -0.000132396929353 1
force Tc   0.004597765524489  -0.003497730879895   0.001720642909357 1
force Tc   0.001223063185176  -0.002258607316824  -0.000600662419069 1
force Tc   0.001856703359470  -0.001793943118009  -0.001258028992639 1
force Tc   0.000058837649061  -0.002174331763322   0.002074404795344 1
force Tc   0.000880065511643  -0.001644880407427   0.000841754724205 1
force Tc   0.001451622121271  -0.002731529167352   0.000527444280053 1
force Tc   0.001723802859501  -0.001880099528474   0.000072062719619 1
force Tc   0.002415296309384  -0.000936998611891   0.000036616692027 1
force Tc  -0.000185858303036  -0.000825058104564  -0.000379093310599 1
force Tc  -0.000512437009108  -0.000576916375983   0.000643853163583 1
force O   0.005025355573253  -0.007329712203489  -0.007429131384067 1

# Energy components:
   Eewald =    -2586.4495122096300292
       EH =      390.9402197454468251
     Eloc =    -1807.5364074903070559
      Enl =      635.6584716193538043
      Exc =     -578.5939642251310033
 Exc_core =      221.1511686881287915
       KE =      794.7539676520108287
-------------------------------------
     Etot =    -2930.0760562201276116
       TS =        0.3209395205188930
-------------------------------------
        F =    -2930.3969957406466165

IonicMinimize: Iter:  16  F: -2930.396995740646616  |grad|_K:  1.231e-04  alpha:  1.000e+00  linmin: -2.496e-01  t[s]:  16107.06

#--- Lowdin population analysis ---
# oxidation-state Tc +0.014 +0.052 +0.053 +0.014 +0.013 +0.052 +0.013 +0.014 +0.013 +0.016 +0.012 +0.025 +0.014 +0.012 +0.052 +0.013 +0.014 +0.052 +0.053 +0.014 +0.025 +0.012 +0.015 +0.013 +0.025 +0.012 +0.015 +0.013 +0.013 +0.015 +0.012 +0.025 +0.025 +0.016 +0.015 +0.024
# oxidation-state O -0.043


-------- Electronic minimization -----------
Will mix electronic density at each iteration.
	FillingsUpdate:  mu: +0.857879082  nElectrons: 546.000000
	FillingsUpdate:  mu: +0.857879367  nElectrons: 546.000000
SCF: Cycle:  0   F: -2930.396973842415719   dF: -1.501e-05   |Residual|: 1.977e-03   |deigs|: 6.718e-07  t[s]:  16178.33
	FillingsUpdate:  mu: +0.857879584  nElectrons: 546.000000
SCF: Cycle:  1   F: -2930.396905392772169   dF: +6.845e-05   |Residual|: 3.608e-03   |deigs|: 1.301e-05  t[s]:  16221.07
	FillingsUpdate:  mu: +0.857879406  nElectrons: 546.000000
SCF: Cycle:  2   F: -2930.397002612547567   dF: -9.722e-05   |Residual|: 5.058e-04   |deigs|: 1.053e-05  t[s]:  16263.08
	FillingsUpdate:  mu: +0.857879388  nElectrons: 546.000000
SCF: Cycle:  3   F: -2930.397002556118878   dF: +5.643e-08   |Residual|: 3.572e-04   |deigs|: 1.896e-06  t[s]:  16304.90
	FillingsUpdate:  mu: +0.857879414  nElectrons: 546.000000
SCF: Cycle:  4   F: -2930.397003202580891   dF: -6.465e-07   |Residual|: 1.348e-04   |deigs|: 1.562e-06  t[s]:  16347.25
	FillingsUpdate:  mu: +0.857879432  nElectrons: 546.000000
SCF: Cycle:  5   F: -2930.397003239174410   dF: -3.659e-08   |Residual|: 7.308e-05   |deigs|: 7.981e-07  t[s]:  16389.65
	FillingsUpdate:  mu: +0.857879429  nElectrons: 546.000000
SCF: Cycle:  6   F: -2930.397003274492818   dF: -3.532e-08   |Residual|: 1.986e-05   |deigs|: 3.281e-07  t[s]:  16433.28
	FillingsUpdate:  mu: +0.857879416  nElectrons: 546.000000
SCF: Cycle:  7   F: -2930.397003276643773   dF: -2.151e-09   |Residual|: 9.094e-06   |deigs|: 1.604e-07  t[s]:  16476.08
	FillingsUpdate:  mu: +0.857879420  nElectrons: 546.000000
SCF: Cycle:  8   F: -2930.397003276265878   dF: +3.779e-10   |Residual|: 7.646e-06   |deigs|: 6.035e-08  t[s]:  16516.97
	FillingsUpdate:  mu: +0.857879423  nElectrons: 546.000000
SCF: Cycle:  9   F: -2930.397003276496889   dF: -2.310e-10   |Residual|: 1.949e-06   |deigs|: 3.991e-08  t[s]:  16550.57
	FillingsUpdate:  mu: +0.857879423  nElectrons: 546.000000
SCF: Cycle: 10   F: -2930.397003276701525   dF: -2.046e-10   |Residual|: 9.577e-07   |deigs|: 1.612e-08  t[s]:  16580.65
SCF: Converged (|Delta E|<1.000000e-08 for 2 iters).

Setting wave functions to eigenvectors of Hamiltonian

# Ionic positions in lattice coordinates:
ion Tc   0.109468800601816   0.220470120242974   0.123299451200318 1
ion Tc   0.213170943115830   0.092174707615592   0.367804678457602 1
ion Tc   0.093015125916684   0.212321188973341   0.629349543938612 1
ion Tc   0.221597861186295   0.108505474860007   0.874835299714550 1
ion Tc   0.110780322064937   0.555318500247718   0.122284133143736 1
ion Tc   0.213148376858750   0.452882243688442   0.367591419675882 1
ion Tc   0.109987160710924   0.556278599448544   0.625553312122957 1
ion Tc   0.221648587723099   0.444558876517527   0.874799305865851 1
ion Tc   0.110767497617473   0.887018565210653   0.122354103764770 1
ion Tc   0.223430360310001   0.777435937933221   0.374645923372448 1
ion Tc   0.109933038427347   0.885380359146370   0.625580962207158 1
ion Tc   0.223794083884725   0.777646031452520   0.872712598293132 1
ion Tc   0.445557196152577   0.220434024077064   0.123316750682291 1
ion Tc   0.557167037138763   0.108917523872771   0.372200733577606 1
ion Tc   0.453839672767162   0.212425143891803   0.629625072464244 1
ion Tc   0.556467618537836   0.109830071695165   0.875332863813550 1
ion Tc   0.445604091221948   0.556607461994853   0.123271665224863 1
ion Tc   0.573903374807905   0.452876024362163   0.367746498312376 1
ion Tc   0.453872480008180   0.573068333996529   0.629262407808016 1
ion Tc   0.557738749279699   0.444607573590280   0.874866697753073 1
ion Tc   0.443421604692535   0.887491028247661   0.125011977446179 1
ion Tc   0.557300933218109   0.779967715326930   0.372103404534214 1
ion Tc   0.443801766822694   0.887853882831782   0.623329095181769 1
ion Tc   0.556398958047234   0.777915129364834   0.875377670143085 1
ion Tc   0.778650878352189   0.222764869577934   0.125025736656926 1
ion Tc   0.886156662982548   0.108768355767205   0.372108923105994 1
ion Tc   0.778425667173300   0.222478003099977   0.623305768518119 1
ion Tc   0.888294343469729   0.109821588137468   0.875340989855408 1
ion Tc   0.778940668831442   0.555279913759767   0.122296180609708 1
ion Tc   0.888704883952086   0.442655292397052   0.374595064000948 1
ion Tc   0.780893574816085   0.556292908282995   0.625632016793135 1
ion Tc   0.888689858535389   0.442438235629059   0.872703640583386 1
ion Tc   0.778566093163802   0.887512557790712   0.124952313428749 1
ion Tc   0.888618152445406   0.777348861108432   0.374624160748923 1
ion Tc   0.778454773703490   0.887688436561182   0.623377684324921 1
ion Tc   0.888706532673534   0.777561502711612   0.872720235587762 1
ion O   0.333572268788474   0.332714956587860   0.498931717087739 1

# Forces in Lattice coordinates:
force Tc   0.001763296898027  -0.002033109883033  -0.000800181459514 1
force Tc   0.001379455878235  -0.002676693394630   0.000121038584282 1
force Tc   0.000371012386033  -0.000904561561478  -0.000008728340866 1
force Tc   0.001240103796018  -0.001858631808484   0.000007337474668 1
force Tc   0.000912379550338  -0.001602066916481  -0.002476272280167 1
force Tc   0.005389993594428  -0.006114889421474   0.001688865202789 1
force Tc   0.000250915929625  -0.000272467235766   0.000675621006939 1
force Tc  -0.000046835632270  -0.000617872755456  -0.000796326497446 1
force Tc   0.000800794014817  -0.001055425658147   0.000579074466422 1
force Tc  -0.000772815329994   0.001827396383994   0.000585776434439 1
force Tc   0.000670501011464  -0.001936597004133  -0.000888502304807 1
force Tc   0.002351259229720  -0.003399169873275  -0.000648933432628 1
force Tc   0.001198571964288  -0.001793833537555   0.000195290227432 1
force Tc   0.000469239299785  -0.000326034265881  -0.001148571413873 1
force Tc  -0.001669712155167   0.000672590978050  -0.002150564736564 1
force Tc   0.000194164364371  -0.001563379824623   0.001081393905060 1
force Tc   0.001349511403767  -0.001436933628248  -0.000572518125989 1
force Tc   0.004008461304615  -0.001707501219891  -0.001073124566608 1
force Tc   0.000054911132160   0.003398999300922   0.002182652547143 1
force Tc   0.000674767682877  -0.001194335189471  -0.000166945879312 1
force Tc   0.000517896866282  -0.000557600563490  -0.000598474461790 1
force Tc   0.001290319695370  -0.001268700733734  -0.000002771129837 1
force Tc   0.000459505220966  -0.003106094736036  -0.000246375145299 1
force Tc   0.000475103316779  -0.001101520899491  -0.000872084349291 1
force Tc   0.000545648337629  -0.001917270255290   0.000032843782426 1
force Tc   0.000878791856896  -0.000962545138277  -0.000321692645102 1
force Tc   0.001571455983389  -0.002078943647432  -0.000745257658420 1
force Tc   0.000406711039112  -0.001452292451300  -0.000503441824488 1
force Tc   0.001929594043428  -0.002326062062569   0.000387609749732 1
force Tc  -0.003878255518203   0.000016133669454   0.000514512205737 1
force Tc   0.000925367700437  -0.001700423649646  -0.001369175334820 1
force Tc   0.000834499788256  -0.002240262888892  -0.000497677610713 1
force Tc   0.001480863049904  -0.001981315159615  -0.000227197326690 1
force Tc   0.001548188960402  -0.002422783862781  -0.000747811701276 1
force Tc   0.000508816710009  -0.000970023708169  -0.000341865785292 1
force Tc  -0.000287630861299  -0.001407719343043   0.000530031308719 1
force O  -0.001320683410781  -0.002040202669741  -0.004983066025444 1

# Energy components:
   Eewald =    -2586.4484065176470722
       EH =      390.9413714546926713
     Eloc =    -1807.5387877875944014
      Enl =      635.6584926554371577
      Exc =     -578.5940078350230351
 Exc_core =      221.1511628146882344
       KE =      794.7541106083351679
-------------------------------------
     Etot =    -2930.0760646071112205
       TS =        0.3209386695904881
-------------------------------------
        F =    -2930.3970032767015255

IonicMinimize: Iter:  17  F: -2930.397003276701525  |grad|_K:  8.434e-05  alpha:  1.000e+00  linmin: -5.789e-02  t[s]:  16591.24
IonicMinimize: Converged (|grad|_K<1.000000e-04).

#--- Lowdin population analysis ---
# oxidation-state Tc +0.014 +0.052 +0.052 +0.014 +0.013 +0.052 +0.013 +0.014 +0.013 +0.016 +0.012 +0.024 +0.014 +0.012 +0.052 +0.013 +0.014 +0.052 +0.052 +0.014 +0.025 +0.012 +0.015 +0.013 +0.025 +0.012 +0.015 +0.013 +0.013 +0.016 +0.012 +0.024 +0.025 +0.016 +0.015 +0.024
# oxidation-state O -0.043


Dumping '/data/rc652/Tc/oct/Tc_oct.Ecomponents' ... done
End date and time: Fri Jun 28 19:47:07 2024  (Duration: 0-4:36:38.07)
Done!
