--------------------------------------------------------------------------
[[9580,1],0]: A high-performance Open MPI point-to-point messaging module
was unable to find any relevant network interfaces:

Module: OpenFabrics (openib)
  Host: node3221

Another transport will be used instead, although this may result in
lower performance.
--------------------------------------------------------------------------

*************** JDFTx 1.7.0 (git hash 3664913) ***************

Start date and time: Fri Jun 28 15:10:56 2024
Executable jdftx with command-line: -i Tc_tet.in
Running on hosts (process indices):  node3221.physics.cornell.edu (0-15)
Divided in process groups (process indices):  0 (0)  1 (1)  2 (2)  3 (3)  4 (4)  5 (5)  6 (6)  7 (7)  8 (8)  9 (9)  10 (10)  11 (11)  12 (12)  13 (13)  14 (14)  15 (15)
Resource initialization completed at t[s]:      0.01
Run totals: 16 processes, 32 threads, 0 GPUs


Input parsed successfully to the following command list (including defaults):

basis kpoint-dependent
coords-type Lattice
core-overlap-check vector
coulomb-interaction Periodic
davidson-band-ratio 1.1
dump End Ecomponents
dump-name /data/rc652/Tc/tet/Tc_tet.$VAR
elec-cutoff 20 100
elec-eigen-algo Davidson
elec-ex-corr gga-PBEsol
elec-smearing Fermi 0.01
electronic-minimize  \
	dirUpdateScheme      FletcherReeves \
	linminMethod         DirUpdateRecommended \
	nIterations          100 \
	history              15 \
	knormThreshold       0 \
	maxThreshold         no \
	energyDiffThreshold  1e-08 \
	nEnergyDiff          2 \
	alphaTstart          1 \
	alphaTmin            1e-10 \
	updateTestStepSize   yes \
	alphaTreduceFactor   0.1 \
	alphaTincreaseFactor 3 \
	nAlphaAdjustMax      3 \
	wolfeEnergy          0.0001 \
	wolfeGradient        0.9 \
	fdTest               no
electronic-scf  \
	nIterations	50 \
	energyDiffThreshold	1e-08 \
	residualThreshold	1e-07 \
	mixFraction	0.5 \
	qMetric	0.8 \
	history	10 \
	nEigSteps	2 \
	eigDiffThreshold	1e-08 \
	mixedVariable	Density \
	qKerker	0.8 \
	qKappa	-1 \
	verbose	no \
	mixFractionMag	1.5
exchange-regularization WignerSeitzTruncated
fluid None
fluid-ex-corr lda-TF lda-PZ
fluid-gummel-loop 10 1.000000e-05
fluid-minimize  \
	dirUpdateScheme      PolakRibiere \
	linminMethod         DirUpdateRecommended \
	nIterations          100 \
	history              15 \
	knormThreshold       0 \
	maxThreshold         no \
	energyDiffThreshold  0 \
	nEnergyDiff          2 \
	alphaTstart          1 \
	alphaTmin            1e-10 \
	updateTestStepSize   yes \
	alphaTreduceFactor   0.1 \
	alphaTincreaseFactor 3 \
	nAlphaAdjustMax      3 \
	wolfeEnergy          0.0001 \
	wolfeGradient        0.9 \
	fdTest               no
fluid-solvent H2O 55.338 ScalarEOS \
	epsBulk 78.4 \
	pMol 0.92466 \
	epsInf 1.77 \
	Pvap 1.06736e-10 \
	sigmaBulk 4.62e-05 \
	Rvdw 2.61727 \
	Res 1.42 \
	tauNuc 343133 \
	poleEl 15 7 1
forces-output-coords Positions
ion Tc   0.122590000000000   0.225170000000000   0.130820000000000 1
ion Tc   0.224700000000000   0.110100000000000   0.369070000000000 1
ion Tc   0.108080000000000   0.222840000000000   0.621460000000000 1
ion Tc   0.212330000000000   0.120410000000000   0.866540000000000 1
ion Tc   0.096630000000000   0.539810000000000   0.138750000000000 1
ion Tc   0.218710000000000   0.450430000000000   0.364610000000000 1
ion Tc   0.111980000000000   0.532810000000000   0.636930000000000 1
ion Tc   0.225240000000000   0.416470000000000   0.879450000000000 1
ion Tc   0.119940000000000   0.877500000000000   0.123020000000000 1
ion Tc   0.229000000000000   0.761210000000000   0.365520000000000 1
ion Tc   0.104320000000000   0.875050000000000   0.628970000000000 1
ion Tc   0.199430000000000   0.781270000000000   0.875090000000000 1
ion Tc   0.447240000000000   0.222800000000000   0.130300000000000 1
ion Tc   0.576590000000000   0.118470000000000   0.373990000000000 1
ion Tc   0.459030000000000   0.234100000000000   0.615980000000000 1
ion Tc   0.563470000000000   0.097190000000000   0.882760000000000 1
ion Tc   0.443080000000000   0.547770000000000   0.119140000000000 1
ion Tc   0.539080000000000   0.440400000000000   0.375990000000000 1
ion Tc   0.450100000000000   0.541850000000000   0.617920000000000 1
ion Tc   0.550850000000000   0.437690000000000   0.872870000000000 1
ion Tc   0.441950000000000   0.876500000000000   0.110770000000000 1
ion Tc   0.551070000000000   0.787190000000000   0.367600000000000 1
ion Tc   0.428980000000000   0.899760000000000   0.629610000000000 1
ion Tc   0.557660000000000   0.801390000000000   0.853380000000000 1
ion Tc   0.785520000000000   0.227620000000000   0.120670000000000 1
ion Tc   0.898290000000000   0.123960000000000   0.368590000000000 1
ion Tc   0.772680000000000   0.214140000000000   0.622090000000000 1
ion Tc   0.887110000000000   0.106990000000000   0.872800000000000 1
ion Tc   0.780970000000000   0.559810000000000   0.117370000000000 1
ion Tc   0.906500000000000   0.439600000000000   0.353860000000000 1
ion Tc   0.777800000000000   0.562890000000000   0.627060000000000 1
ion Tc   0.885610000000000   0.431670000000000   0.879960000000000 1
ion Tc   0.786000000000000   0.895640000000000   0.126450000000000 1
ion Tc   0.879140000000000   0.773060000000000   0.378160000000000 1
ion Tc   0.776070000000000   0.893560000000000   0.618030000000000 1
ion Tc   0.894750000000000   0.778190000000000   0.872290000000000 1
ion O   0.150000000000000   0.900000000000000   0.450000000000000 1
ion-species GBRV/$ID_pbesol.uspp
ion-width 0
ionic-minimize  \
	dirUpdateScheme      L-BFGS \
	linminMethod         DirUpdateRecommended \
	nIterations          30 \
	history              15 \
	knormThreshold       0.0001 \
	maxThreshold         no \
	energyDiffThreshold  1e-06 \
	nEnergyDiff          2 \
	alphaTstart          1 \
	alphaTmin            1e-10 \
	updateTestStepSize   yes \
	alphaTreduceFactor   0.1 \
	alphaTincreaseFactor 3 \
	nAlphaAdjustMax      3 \
	wolfeEnergy          0.0001 \
	wolfeGradient        0.9 \
	fdTest               no
kpoint   0.500000000000   0.500000000000   0.500000000000  1.00000000000000
kpoint-folding 3 3 3 
latt-move-scale 1 1 1
latt-scale 1 1 1 
lattice  \
	   7.737505261954447    7.737505261954447    0.000000000000000  \
	 -13.401756703147822   13.401756703147822   -0.000000000000000  \
	   0.000000000000000   -0.000000000000000   16.472851209747841 
lattice-minimize  \
	dirUpdateScheme      L-BFGS \
	linminMethod         DirUpdateRecommended \
	nIterations          0 \
	history              15 \
	knormThreshold       0 \
	maxThreshold         no \
	energyDiffThreshold  1e-06 \
	nEnergyDiff          2 \
	alphaTstart          1 \
	alphaTmin            1e-10 \
	updateTestStepSize   yes \
	alphaTreduceFactor   0.1 \
	alphaTincreaseFactor 3 \
	nAlphaAdjustMax      3 \
	wolfeEnergy          0.0001 \
	wolfeGradient        0.9 \
	fdTest               no
lcao-params -1 1e-06 0.01
pcm-variant GLSSA13
perturb-minimize  \
	nIterations            0 \
	algorithm              MINRES \
	residualTol            0.0001 \
	residualDiffThreshold  0.0001 \
	CGBypass               no \
	recomputeResidual      no
spintype no-spin
subspace-rotation-factor 1 yes
symmetries automatic
symmetry-threshold 0.0001



---------- Setting up symmetries ----------

Found 24 point-group symmetries of the bravais lattice
Found 1 space-group symmetries with basis
Applied RMS atom displacement 0 bohrs to make symmetries exact.

---------- Initializing the Grid ----------
R = 
[      7.73751      7.73751            0  ]
[     -13.4018      13.4018            0  ]
[            0            0      16.4729  ]
unit cell volume = 3416.34
G =
[   0.406021  -0.234416         -0  ]
[   0.406021   0.234416          0  ]
[          0          0   0.381427  ]
Minimum fftbox size, Smin = [  72  72  76  ]
Chosen fftbox size, S = [  72  72  80  ]

---------- Initializing tighter grid for wavefunction operations ----------
R = 
[      7.73751      7.73751            0  ]
[     -13.4018      13.4018            0  ]
[            0            0      16.4729  ]
unit cell volume = 3416.34
G =
[   0.406021  -0.234416         -0  ]
[   0.406021   0.234416          0  ]
[          0          0   0.381427  ]
Minimum fftbox size, Smin = [  64  64  68  ]
Chosen fftbox size, S = [  64  64  70  ]

---------- Exchange Correlation functional ----------
Initalized PBEsol GGA exchange.
Initalized PBEsol GGA correlation.

---------- Setting up pseudopotentials ----------
Width of ionic core gaussian charges (only for fluid interactions / plotting) set to 0

Reading pseudopotential file '/home/rc652/build/pseudopotentials/GBRV/tc_pbesol.uspp':
  Title: Tc.  Created by USPP 7.3.6 on 23-7-2013
  Reference state energy: -86.345700.  15 valence electrons in orbitals:
    |400>  occupation: 2  eigenvalue: -2.972801
    |410>  occupation: 6  eigenvalue: -1.943789
    |420>  occupation: 5  eigenvalue: -0.518764
    |500>  occupation: 1  eigenvalue: -0.420062
    |510>  occupation: 0  eigenvalue: -0.251266
  lMax: 2  lLocal: 3  QijEcut: 5
  6 projectors sampled on a log grid with 713 points:
    l: 0  eig: -0.420062  rCut: 1.5
    l: 0  eig: -2.972801  rCut: 1.5
    l: 1  eig: -1.943789  rCut: 1.6
    l: 1  eig: -0.251266  rCut: 1.6
    l: 2  eig: -0.518764  rCut: 1.8
    l: 2  eig: 0.000000  rCut: 1.8
  Partial core density with radius 0.9
  Transforming core density to a uniform radial grid of dG=0.02 with 1654 points.
  Transforming local potential to a uniform radial grid of dG=0.02 with 1654 points.
  Transforming nonlocal projectors to a uniform radial grid of dG=0.02 with 432 points.
  Transforming density augmentations to a uniform radial grid of dG=0.02 with 1654 points.
  Transforming atomic orbitals to a uniform radial grid of dG=0.02 with 432 points.
  Core radius for overlap checks: 1.80 bohrs.

Reading pseudopotential file '/home/rc652/build/pseudopotentials/GBRV/o_pbesol.uspp':
  Title: O.  Created by USPP 7.3.6 on 3-2-2014
  Reference state energy: -15.849885.  6 valence electrons in orbitals:
    |200>  occupation: 2  eigenvalue: -0.873214
    |210>  occupation: 4  eigenvalue: -0.330058
  lMax: 2  lLocal: 2  QijEcut: 6
  5 projectors sampled on a log grid with 511 points:
    l: 0  eig: -0.873214  rCut: 1.25
    l: 0  eig: 0.000000  rCut: 1.25
    l: 1  eig: -0.330058  rCut: 1.25
    l: 1  eig: 0.000000  rCut: 1.25
    l: 2  eig: 1.000000  rCut: 1.25
  Partial core density with radius 0.7
  Transforming core density to a uniform radial grid of dG=0.02 with 1654 points.
  Transforming local potential to a uniform radial grid of dG=0.02 with 1654 points.
  Transforming nonlocal projectors to a uniform radial grid of dG=0.02 with 432 points.
  Transforming density augmentations to a uniform radial grid of dG=0.02 with 1654 points.
  Transforming atomic orbitals to a uniform radial grid of dG=0.02 with 432 points.
  Core radius for overlap checks: 1.25 bohrs.

Initialized 2 species with 37 total atoms.

Folded 1 k-points by 3x3x3 to 27 k-points.

---------- Setting up k-points, bands, fillings ----------
Adding inversion symmetry to k-mesh for non-inversion-symmetric unit cell.
Reduced to 14 k-points under symmetry. 
Computing the number of bands and number of electrons
Calculating initial fillings.
nElectrons: 546.000000   nBands: 472   nStates: 14

----- Setting up reduced wavefunction bases (one per k-point) -----
average nbasis = 14596.296 , ideal nbasis = 14594.877

---------- Setting up ewald sum ----------
Optimum gaussian width for ewald sums = 3.291523 bohr.
Real space sum over 567 unit cells with max indices [  4  4  3  ]
Reciprocal space sum over 6859 terms with max indices [  9  9  9  ]

---------- Allocating electronic variables ----------
Initializing wave functions:  linear combination of atomic orbitals
Tc pseudo-atom occupations:   s ( 2 0 )  p ( 6 0 )  d ( 7 )
O pseudo-atom occupations:   s ( 2 )  p ( 4 )
	FillingsUpdate:  mu: +0.808079599  nElectrons: 546.000000
LCAOMinimize: Iter:   0  F: -2924.7030119445985292  |grad|_K:  2.150e-03  alpha:  1.000e+00
	FillingsUpdate:  mu: +0.843434345  nElectrons: 546.000000
LCAOMinimize: Iter:   1  F: -2927.4129462010928364  |grad|_K:  2.055e-03  alpha:  2.605e-01  linmin: -9.752e-02  cgtest:  3.365e-01  t[s]:     58.85
	FillingsUpdate:  mu: +0.855384665  nElectrons: 546.000000
LCAOMinimize: Iter:   2  F: -2928.3309028553640019  |grad|_K:  1.494e-03  alpha:  9.880e-02  linmin: -3.244e-02  cgtest: -1.794e-01  t[s]:     79.11
	FillingsUpdate:  mu: +0.871584268  nElectrons: 546.000000
LCAOMinimize: Iter:   3  F: -2928.8353481146805279  |grad|_K:  1.267e-03  alpha:  1.285e-01  linmin:  1.536e-02  cgtest: -1.148e-02  t[s]:     99.68
	FillingsUpdate:  mu: +0.878427450  nElectrons: 546.000000
LCAOMinimize: Iter:   4  F: -2929.0440368979661798  |grad|_K:  7.334e-04  alpha:  8.880e-02  linmin:  6.313e-04  cgtest:  4.128e-01  t[s]:    120.27
	FillingsUpdate:  mu: +0.877554203  nElectrons: 546.000000
LCAOMinimize: Iter:   5  F: -2929.1001873622435596  |grad|_K:  4.449e-04  alpha:  6.657e-02  linmin:  5.908e-04  cgtest:  1.009e-02  t[s]:    140.10
	FillingsUpdate:  mu: +0.877190914  nElectrons: 546.000000
LCAOMinimize: Iter:   6  F: -2929.1286211399269632  |grad|_K:  2.739e-04  alpha:  9.169e-02  linmin: -1.820e-03  cgtest:  1.333e-02  t[s]:    160.68
	FillingsUpdate:  mu: +0.876880989  nElectrons: 546.000000
LCAOMinimize: Iter:   7  F: -2929.1421933118267589  |grad|_K:  7.441e-05  alpha:  1.147e-01  linmin: -8.944e-03  cgtest: -8.607e-02  t[s]:    181.32
	FillingsUpdate:  mu: +0.876905594  nElectrons: 546.000000
LCAOMinimize: Iter:   8  F: -2929.1429459823775687  |grad|_K:  3.880e-05  alpha:  8.571e-02  linmin: -1.981e-05  cgtest: -3.056e-02  t[s]:    202.04
	FillingsUpdate:  mu: +0.876719521  nElectrons: 546.000000
LCAOMinimize: Iter:   9  F: -2929.1433692724081084  |grad|_K:  3.835e-05  alpha:  1.795e-01  linmin: -1.255e-04  cgtest:  8.486e-03  t[s]:    222.25
	FillingsUpdate:  mu: +0.876639781  nElectrons: 546.000000
LCAOMinimize: Iter:  10  F: -2929.1435750966093110  |grad|_K:  2.788e-05  alpha:  8.940e-02  linmin:  9.761e-05  cgtest: -1.981e-03  t[s]:    242.78
	FillingsUpdate:  mu: +0.876589541  nElectrons: 546.000000
LCAOMinimize: Iter:  11  F: -2929.1436745790083478  |grad|_K:  7.560e-06  alpha:  8.175e-02  linmin: -3.565e-06  cgtest:  1.838e-03  t[s]:    262.83
	FillingsUpdate:  mu: +0.876574859  nElectrons: 546.000000
LCAOMinimize: Iter:  12  F: -2929.1436870524889855  |grad|_K:  5.946e-06  alpha:  1.394e-01  linmin:  5.347e-05  cgtest: -3.890e-04  t[s]:    283.32
	FillingsUpdate:  mu: +0.876587471  nElectrons: 546.000000
LCAOMinimize: Iter:  13  F: -2929.1436928769949191  |grad|_K:  4.814e-06  alpha:  1.052e-01  linmin:  8.781e-06  cgtest:  8.073e-04  t[s]:    303.34
	FillingsUpdate:  mu: +0.876579725  nElectrons: 546.000000
LCAOMinimize: Iter:  14  F: -2929.1436959725847373  |grad|_K:  2.433e-06  alpha:  8.532e-02  linmin: -2.765e-05  cgtest:  5.202e-04  t[s]:    324.20
	FillingsUpdate:  mu: +0.876580776  nElectrons: 546.000000
LCAOMinimize: Iter:  15  F: -2929.1436976184309060  |grad|_K:  2.542e-06  alpha:  1.775e-01  linmin:  3.009e-05  cgtest: -2.843e-04  t[s]:    344.78
	FillingsUpdate:  mu: +0.876579519  nElectrons: 546.000000
LCAOMinimize: Iter:  16  F: -2929.1436989231228836  |grad|_K:  1.307e-06  alpha:  1.289e-01  linmin: -1.839e-05  cgtest:  7.544e-04  t[s]:    365.36
	FillingsUpdate:  mu: +0.876577917  nElectrons: 546.000000
LCAOMinimize: Iter:  17  F: -2929.1436991061327717  |grad|_K:  7.348e-07  alpha:  6.844e-02  linmin:  4.606e-05  cgtest: -3.866e-04  t[s]:    386.10
	FillingsUpdate:  mu: +0.876578567  nElectrons: 546.000000
LCAOMinimize: Iter:  18  F: -2929.1436991771547582  |grad|_K:  4.306e-07  alpha:  8.472e-02  linmin:  2.849e-03  cgtest: -1.054e-02  t[s]:    406.81
LCAOMinimize: Converged (|Delta F|<1.000000e-06 for 2 iters).


---- Citations for features of the code used in this run ----

   Software package:
      R. Sundararaman, K. Letchworth-Weaver, K.A. Schwarz, D. Gunceler, Y. Ozhabes and T.A. Arias, 'JDFTx: software for joint density-functional theory', SoftwareX 6, 278 (2017)

   gga-PBEsol exchange-correlation functional:
      J.P. Perdew et al., Phys. Rev. Lett. 100, 136406 (2008)

   Pseudopotentials:
      KF Garrity, JW Bennett, KM Rabe and D Vanderbilt, Comput. Mater. Sci. 81, 446 (2014)

This list may not be complete. Please suggest additional citations or
report any other bugs at https://github.com/shankar1729/jdftx/issues

Initialization completed successfully at t[s]:    415.41


-------- Electronic minimization -----------
Will mix electronic density at each iteration.
	FillingsUpdate:  mu: +0.876578567  nElectrons: 546.000000
	FillingsUpdate:  mu: +0.871753656  nElectrons: 546.000000
SCF: Cycle:  0   F: -2929.948414293929090   dF: -8.047e-01   |Residual|: 3.651e-01   |deigs|: 8.228e-02  t[s]:    499.53
	FillingsUpdate:  mu: +0.861574479  nElectrons: 546.000000
SCF: Cycle:  1   F: -2930.077118641668676   dF: -1.287e-01   |Residual|: 1.183e-01   |deigs|: 1.352e-02  t[s]:    570.45
	FillingsUpdate:  mu: +0.859743427  nElectrons: 546.000000
SCF: Cycle:  2   F: -2930.008418305785654   dF: +6.870e-02   |Residual|: 1.106e-01   |deigs|: 3.613e-03  t[s]:    641.89
	FillingsUpdate:  mu: +0.859342531  nElectrons: 546.000000
SCF: Cycle:  3   F: -2930.090807482251876   dF: -8.239e-02   |Residual|: 3.882e-02   |deigs|: 2.010e-03  t[s]:    712.87
	FillingsUpdate:  mu: +0.859424098  nElectrons: 546.000000
SCF: Cycle:  4   F: -2930.094039550820071   dF: -3.232e-03   |Residual|: 2.466e-02   |deigs|: 3.389e-04  t[s]:    755.37
	FillingsUpdate:  mu: +0.859433406  nElectrons: 546.000000
SCF: Cycle:  5   F: -2930.096168247297101   dF: -2.129e-03   |Residual|: 1.194e-02   |deigs|: 2.167e-04  t[s]:    797.40
	FillingsUpdate:  mu: +0.859408851  nElectrons: 546.000000
SCF: Cycle:  6   F: -2930.096802209673115   dF: -6.340e-04   |Residual|: 3.175e-03   |deigs|: 8.075e-05  t[s]:    839.35
	FillingsUpdate:  mu: +0.859396393  nElectrons: 546.000000
SCF: Cycle:  7   F: -2930.096841815223343   dF: -3.961e-05   |Residual|: 1.902e-03   |deigs|: 2.893e-05  t[s]:    882.08
	FillingsUpdate:  mu: +0.859380018  nElectrons: 546.000000
SCF: Cycle:  8   F: -2930.096857777667083   dF: -1.596e-05   |Residual|: 5.811e-04   |deigs|: 2.283e-05  t[s]:    924.78
	FillingsUpdate:  mu: +0.859382232  nElectrons: 546.000000
SCF: Cycle:  9   F: -2930.096858828980658   dF: -1.051e-06   |Residual|: 3.376e-04   |deigs|: 6.495e-06  t[s]:    966.41
	FillingsUpdate:  mu: +0.859387665  nElectrons: 546.000000
SCF: Cycle: 10   F: -2930.096859237369245   dF: -4.084e-07   |Residual|: 1.185e-04   |deigs|: 7.098e-06  t[s]:   1009.03
	FillingsUpdate:  mu: +0.859386016  nElectrons: 546.000000
SCF: Cycle: 11   F: -2930.096859215768291   dF: +2.160e-08   |Residual|: 1.165e-04   |deigs|: 2.586e-06  t[s]:   1051.52
	FillingsUpdate:  mu: +0.859386189  nElectrons: 546.000000
SCF: Cycle: 12   F: -2930.096859291302280   dF: -7.553e-08   |Residual|: 2.927e-05   |deigs|: 9.350e-07  t[s]:   1093.44
	FillingsUpdate:  mu: +0.859386148  nElectrons: 546.000000
SCF: Cycle: 13   F: -2930.096859288667929   dF: +2.634e-09   |Residual|: 2.650e-05   |deigs|: 3.081e-07  t[s]:   1136.22
	FillingsUpdate:  mu: +0.859386143  nElectrons: 546.000000
SCF: Cycle: 14   F: -2930.096859293171292   dF: -4.503e-09   |Residual|: 4.384e-06   |deigs|: 2.728e-07  t[s]:   1178.66
	FillingsUpdate:  mu: +0.859386130  nElectrons: 546.000000
SCF: Cycle: 15   F: -2930.096859293522357   dF: -3.511e-10   |Residual|: 5.243e-06   |deigs|: 1.653e-07  t[s]:   1215.86
SCF: Converged (|Delta E|<1.000000e-08 for 2 iters).

Setting wave functions to eigenvectors of Hamiltonian

# Ionic positions in lattice coordinates:
ion Tc   0.122590000000000   0.225170000000000   0.130820000000000 1
ion Tc   0.224700000000000   0.110100000000000   0.369070000000000 1
ion Tc   0.108080000000000   0.222840000000000   0.621460000000000 1
ion Tc   0.212330000000000   0.120410000000000   0.866540000000000 1
ion Tc   0.096630000000000   0.539810000000000   0.138750000000000 1
ion Tc   0.218710000000000   0.450430000000000   0.364610000000000 1
ion Tc   0.111980000000000   0.532810000000000   0.636930000000000 1
ion Tc   0.225240000000000   0.416470000000000   0.879450000000000 1
ion Tc   0.119940000000000   0.877500000000000   0.123020000000000 1
ion Tc   0.229000000000000   0.761210000000000   0.365520000000000 1
ion Tc   0.104320000000000   0.875050000000000   0.628970000000000 1
ion Tc   0.199430000000000   0.781270000000000   0.875090000000000 1
ion Tc   0.447240000000000   0.222800000000000   0.130300000000000 1
ion Tc   0.576590000000000   0.118470000000000   0.373990000000000 1
ion Tc   0.459030000000000   0.234100000000000   0.615980000000000 1
ion Tc   0.563470000000000   0.097190000000000   0.882760000000000 1
ion Tc   0.443080000000000   0.547770000000000   0.119140000000000 1
ion Tc   0.539080000000000   0.440400000000000   0.375990000000000 1
ion Tc   0.450100000000000   0.541850000000000   0.617920000000000 1
ion Tc   0.550850000000000   0.437690000000000   0.872870000000000 1
ion Tc   0.441950000000000   0.876500000000000   0.110770000000000 1
ion Tc   0.551070000000000   0.787190000000000   0.367600000000000 1
ion Tc   0.428980000000000   0.899760000000000   0.629610000000000 1
ion Tc   0.557660000000000   0.801390000000000   0.853380000000000 1
ion Tc   0.785520000000000   0.227620000000000   0.120670000000000 1
ion Tc   0.898290000000000   0.123960000000000   0.368590000000000 1
ion Tc   0.772680000000000   0.214140000000000   0.622090000000000 1
ion Tc   0.887110000000000   0.106990000000000   0.872800000000000 1
ion Tc   0.780970000000000   0.559810000000000   0.117370000000000 1
ion Tc   0.906500000000000   0.439600000000000   0.353860000000000 1
ion Tc   0.777800000000000   0.562890000000000   0.627060000000000 1
ion Tc   0.885610000000000   0.431670000000000   0.879960000000000 1
ion Tc   0.786000000000000   0.895640000000000   0.126450000000000 1
ion Tc   0.879140000000000   0.773060000000000   0.378160000000000 1
ion Tc   0.776070000000000   0.893560000000000   0.618030000000000 1
ion Tc   0.894750000000000   0.778190000000000   0.872290000000000 1
ion O   0.150000000000000   0.900000000000000   0.450000000000000 1

# Forces in Lattice coordinates:
force Tc  -0.156551651678848  -0.157330918013971  -0.158916436953492 1
force Tc  -0.354472164660785   2.700170178751662  -1.446235709200732 1
force Tc   0.087666706615159  -0.128098760963811  -0.034972188630903 1
force Tc   0.751540985292600  -0.820028793241149   0.091488040318959 1
force Tc   0.419931338485606   0.173434761581992  -1.173371267394737 1
force Tc   0.690504637121159  -0.628239257285051   0.513990277120403 1
force Tc  -0.252580143099236   0.378390827629122  -0.082503990754232 1
force Tc  -0.513597593152549   1.041718636159532  -0.130295510562660 1
force Tc  -0.360512541800173   0.409109727348848  -0.039688784015732 1
force Tc   1.406033001003610  -1.253266345630189  -1.043907446232795 1
force Tc  -0.781548680860299   0.305049860079228   4.947161724506008 1
force Tc   0.674176712975230  -0.641569274424953  -0.026015597424462 1
force Tc   0.081981236674035  -0.109489120002526  -0.191505817508129 1
force Tc  -0.409485295692463   0.105377028879968  -0.142222816403085 1
force Tc  -0.103357922907687  -0.217372362579293   0.268658034053701 1
force Tc  -0.645393906675391   0.837434734744980  -0.197058755579681 1
force Tc   0.054871951198472   0.207277237307964  -0.003392420137350 1
force Tc   0.493494264465273  -0.063393757361265  -0.248968297953231 1
force Tc  -0.483179423952467   0.647955006334955   0.133858574883644 1
force Tc   0.201574435176232  -0.036378655854429   0.057078893880295 1
force Tc   0.077747276897447   0.065922047541057   0.294068745375804 1
force Tc   0.409223118983371  -0.287723228639673   0.187823967889200 1
force Tc   0.662843626353678  -0.584471402253072  -0.102579131933126 1
force Tc   0.332675788622870  -0.895033503805374   0.210404089367321 1
force Tc  -0.127586146312736  -0.310398967040545   0.011084597353081 1
force Tc   0.053503676271458  -0.433694259943797   0.071214746145850 1
force Tc   0.042757650105280   0.218031491658514   0.123005428476126 1
force Tc   0.034673914764475  -0.080195744906959  -0.035845651783801 1
force Tc  -0.167146605402188   0.073437769190138   0.128667905523411 1
force Tc  -1.028157849400990   0.518659699161279   1.029070932025662 1
force Tc   0.255655093031510  -0.411690519960999  -0.024408382502957 1
force Tc  -0.026413233904080   0.289938294020418  -0.336308287433193 1
force Tc  -0.084371907998889  -0.093815922906872  -0.086835128616677 1
force Tc  -0.189338319805275  -0.156093454197950  -0.538502414877497 1
force Tc  -0.127678095587953  -0.028472893789871  -0.006533094881320 1
force Tc  -0.552400950961679   0.094557810696961   0.231105595624240 1
force O  -0.356580807497553  -0.740493520625341  -2.347228032458438 1

# Energy components:
   Eewald =    -2569.9525484754153695
       EH =      406.3156441310321725
     Eloc =    -1841.0680474217247138
      Enl =      636.2670578473710066
      Exc =     -579.1410162091625580
 Exc_core =      221.1514330151096885
       KE =      796.6488423457788031
-------------------------------------
     Etot =    -2929.7786347670107716
       TS =        0.3182245265117615
-------------------------------------
        F =    -2930.0968592935223569

IonicMinimize: Iter:   0  F: -2930.096859293522357  |grad|_K:  4.556e-02  t[s]:   1226.32

#--- Lowdin population analysis ---
# oxidation-state Tc +0.009 +0.027 +0.014 +0.022 +0.011 -0.015 +0.028 +0.033 +0.003 +0.019 +0.029 +0.017 +0.020 +0.008 +0.001 +0.022 +0.020 +0.023 +0.022 +0.020 +0.014 +0.008 +0.004 +0.040 +0.014 +0.003 +0.025 +0.001 +0.007 +0.032 +0.011 +0.018 +0.032 +0.028 +0.019 +0.002
# oxidation-state O +0.189


-------- Electronic minimization -----------
Will mix electronic density at each iteration.
	FillingsUpdate:  mu: +0.859386130  nElectrons: 546.000000
	FillingsUpdate:  mu: +0.859579845  nElectrons: 546.000000
SCF: Cycle:  0   F: -2920.091830383118122   dF: +9.500e+00   |Residual|: 9.889e-01   |deigs|: 2.273e-03  t[s]:   1324.54
	FillingsUpdate:  mu: +0.863765251  nElectrons: 546.000000
SCF: Cycle:  1   F: -2903.604878226085020   dF: +1.649e+01   |Residual|: 1.688e+00   |deigs|: 3.575e-02  t[s]:   1394.71
	FillingsUpdate:  mu: +0.860298659  nElectrons: 546.000000
SCF: Cycle:  2   F: -2929.518175432420321   dF: -2.591e+01   |Residual|: 3.037e-01   |deigs|: 3.154e-02  t[s]:   1465.93
	FillingsUpdate:  mu: +0.859418157  nElectrons: 546.000000
SCF: Cycle:  3   F: -2929.855771711892885   dF: -3.376e-01   |Residual|: 1.985e-01   |deigs|: 3.133e-03  t[s]:   1536.45
	FillingsUpdate:  mu: +0.859277242  nElectrons: 546.000000
SCF: Cycle:  4   F: -2930.066925680407621   dF: -2.112e-01   |Residual|: 1.132e-01   |deigs|: 1.766e-03  t[s]:   1608.58
	FillingsUpdate:  mu: +0.859060709  nElectrons: 546.000000
SCF: Cycle:  5   F: -2930.157498700693395   dF: -9.057e-02   |Residual|: 2.982e-02   |deigs|: 1.034e-03  t[s]:   1678.16
	FillingsUpdate:  mu: +0.859078282  nElectrons: 546.000000
SCF: Cycle:  6   F: -2930.157771386499462   dF: -2.727e-04   |Residual|: 2.593e-02   |deigs|: 2.840e-04  t[s]:   1720.26
	FillingsUpdate:  mu: +0.859090266  nElectrons: 546.000000
SCF: Cycle:  7   F: -2930.161796360222525   dF: -4.025e-03   |Residual|: 6.615e-03   |deigs|: 1.975e-04  t[s]:   1762.58
	FillingsUpdate:  mu: +0.859085174  nElectrons: 546.000000
SCF: Cycle:  8   F: -2930.161814121481257   dF: -1.776e-05   |Residual|: 5.483e-03   |deigs|: 4.525e-05  t[s]:   1804.66
	FillingsUpdate:  mu: +0.859078351  nElectrons: 546.000000
SCF: Cycle:  9   F: -2930.161981828092394   dF: -1.677e-04   |Residual|: 1.073e-03   |deigs|: 2.871e-05  t[s]:   1847.32
	FillingsUpdate:  mu: +0.859081229  nElectrons: 546.000000
SCF: Cycle: 10   F: -2930.161981600345371   dF: +2.277e-07   |Residual|: 1.001e-03   |deigs|: 9.020e-06  t[s]:   1890.03
	FillingsUpdate:  mu: +0.859082603  nElectrons: 546.000000
SCF: Cycle: 11   F: -2930.161986106885706   dF: -4.507e-06   |Residual|: 2.250e-04   |deigs|: 5.620e-06  t[s]:   1932.51
	FillingsUpdate:  mu: +0.859082039  nElectrons: 546.000000
SCF: Cycle: 12   F: -2930.161985805747008   dF: +3.011e-07   |Residual|: 2.988e-04   |deigs|: 2.546e-06  t[s]:   1974.63
	FillingsUpdate:  mu: +0.859081919  nElectrons: 546.000000
SCF: Cycle: 13   F: -2930.161986312686622   dF: -5.069e-07   |Residual|: 5.623e-05   |deigs|: 1.388e-06  t[s]:   2017.18
	FillingsUpdate:  mu: +0.859081871  nElectrons: 546.000000
SCF: Cycle: 14   F: -2930.161986303253343   dF: +9.433e-09   |Residual|: 5.345e-05   |deigs|: 4.483e-07  t[s]:   2059.49
	FillingsUpdate:  mu: +0.859081866  nElectrons: 546.000000
SCF: Cycle: 15   F: -2930.161986319416883   dF: -1.616e-08   |Residual|: 1.809e-05   |deigs|: 2.970e-07  t[s]:   2102.08
	FillingsUpdate:  mu: +0.859081881  nElectrons: 546.000000
SCF: Cycle: 16   F: -2930.161986318446907   dF: +9.700e-10   |Residual|: 1.932e-05   |deigs|: 1.772e-07  t[s]:   2143.61
	FillingsUpdate:  mu: +0.859081871  nElectrons: 546.000000
SCF: Cycle: 17   F: -2930.161986321527365   dF: -3.080e-09   |Residual|: 5.069e-06   |deigs|: 1.321e-07  t[s]:   2184.73
	FillingsUpdate:  mu: +0.859081881  nElectrons: 546.000000
SCF: Cycle: 18   F: -2930.161986321731547   dF: -2.042e-10   |Residual|: 3.873e-06   |deigs|: 6.004e-08  t[s]:   2219.21
SCF: Converged (|Delta E|<1.000000e-08 for 2 iters).

Setting wave functions to eigenvectors of Hamiltonian

# Ionic positions in lattice coordinates:
ion Tc   0.122160037569630   0.224739851300285   0.130631063573272 1
ion Tc   0.226518600110865   0.114709334993020   0.367324457948680 1
ion Tc   0.108122893350711   0.222686331715551   0.621420934951907 1
ion Tc   0.212953670578384   0.119598673332025   0.866653848613586 1
ion Tc   0.097555326997038   0.540510694570355   0.137334401214522 1
ion Tc   0.219397352319214   0.449913294431734   0.365234731478767 1
ion Tc   0.111863952506662   0.533270827384446   0.636833460266234 1
ion Tc   0.225253014397113   0.417904216200269   0.879295671534142 1
ion Tc   0.119654834171004   0.877918357639677   0.122975231721120 1
ion Tc   0.230423606005025   0.760205041308257   0.364260946771282 1
ion Tc   0.103170605917456   0.874893665788778   0.634955250627785 1
ion Tc   0.200075347311841   0.780714027809809   0.875061765117002 1
ion Tc   0.447289505426748   0.222675135733505   0.130071657021869 1
ion Tc   0.575937927953425   0.118288745429706   0.373821249229001 1
ion Tc   0.458642371514113   0.233608752566492   0.616308079701943 1
ion Tc   0.563055640501140   0.098130629791553   0.882524942499045 1
ion Tc   0.443369325350782   0.548199062817702   0.119139120696749 1
ion Tc   0.539923389523883   0.440735235488883   0.375692174320730 1
ion Tc   0.449808907484247   0.542592647880701   0.618085082378078 1
ion Tc   0.551184767679976   0.437807939150259   0.872942241630736 1
ion Tc   0.442151996957866   0.876691720947800   0.111128805922720 1
ion Tc   0.551554527438030   0.787038439587723   0.367830336457697 1
ion Tc   0.429656798383665   0.899297985937845   0.629489185730502 1
ion Tc   0.557449948293734   0.800059044362934   0.853637639975056 1
ion Tc   0.785003136201304   0.226936674582064   0.120686626071941 1
ion Tc   0.897991340965783   0.123216844114251   0.368679334474461 1
ion Tc   0.772957017443405   0.214577643790238   0.622241958929136 1
ion Tc   0.887099838845809   0.106875438712514   0.872759878774402 1
ion Tc   0.780731473822397   0.559791756927398   0.117528805904716 1
ion Tc   0.905095202420675   0.439608641253316   0.355107558668439 1
ion Tc   0.777890743415051   0.562371693835376   0.627033708535267 1
ion Tc   0.885826333594529   0.432175824873666   0.879556564219330 1
ion Tc   0.785759916984863   0.895391816053270   0.126348223124444 1
ion Tc   0.878651271069246   0.772602163545039   0.377512074353588 1
ion Tc   0.775810488894765   0.893391631679991   0.618025323043690 1
ion Tc   0.893826957603057   0.777858436247382   0.872572671901302 1
ion O   0.148671930996565   0.898321778216186   0.447164992616860 1

# Forces in Lattice coordinates:
force Tc  -0.164760275678148  -0.127564861528530  -0.181238015691977 1
force Tc  -0.237021437382372   2.054074217417266  -1.074245390672986 1
force Tc   0.095141458228816  -0.133043093534306  -0.025151586512052 1
force Tc   0.689923983179267  -0.731344842123012   0.115478233703111 1
force Tc   0.371121436969860   0.137533385814638  -1.026550118567787 1
force Tc   0.607885520988242  -0.574146557131680   0.463172973006747 1
force Tc  -0.243112175279429   0.371549008722112  -0.087610406416659 1
force Tc  -0.480229438852976   0.968111139764725  -0.135526710363586 1
force Tc  -0.348046458316726   0.394686450496304  -0.033124327955818 1
force Tc   1.282560673273875  -1.109210197228072  -0.953898613257881 1
force Tc  -0.438866681816544   0.339934755121518   3.167766612344862 1
force Tc   0.675210623399605  -0.636400106969772  -0.003086440867914 1
force Tc   0.085589936580715  -0.102877237152854  -0.199454150232373 1
force Tc  -0.385876025416181   0.101812754697162  -0.136254013075950 1
force Tc  -0.113512543906060  -0.197043776940387   0.260907327516645 1
force Tc  -0.599464365364339   0.767409973030370  -0.205486514266525 1
force Tc   0.043466930115451   0.200060241078285  -0.002147700900376 1
force Tc   0.492309352051504  -0.060059045657408  -0.220923299125661 1
force Tc  -0.451724665819614   0.607021727440592   0.131011849137185 1
force Tc   0.183993186957091  -0.030988283235916   0.049531109804955 1
force Tc   0.082317441602137   0.070529847977156   0.273488188712698 1
force Tc   0.403097129021277  -0.283750445156538   0.191508354390003 1
force Tc   0.609045468112271  -0.556599241375397  -0.107213776248560 1
force Tc   0.305229270066491  -0.828531332946239   0.221070678594173 1
force Tc  -0.116524243707979  -0.276479604602980   0.014791040982396 1
force Tc   0.030916730074088  -0.389696188111686   0.070228076658640 1
force Tc   0.038520923255579   0.204967711625781   0.113989576587543 1
force Tc   0.032036408887169  -0.073053597442966  -0.038853874051389 1
force Tc  -0.139456635544023   0.048297048000165   0.143397287577643 1
force Tc  -0.921744158976815   0.475322518471253   0.919750516541655 1
force Tc   0.237461374883141  -0.402039232449096  -0.037718157766873 1
force Tc  -0.029551504067376   0.273899227228439  -0.319100027573878 1
force Tc  -0.082816698329409  -0.089182970154670  -0.075629498993327 1
force Tc  -0.131921888524898  -0.141491017920920  -0.501041985770285 1
force Tc  -0.125942062282607  -0.020746996309931  -0.000822884501165 1
force Tc  -0.548454369603523   0.096003849166002   0.232056584883983 1
force O  -0.696123083642791  -0.353263882606249  -1.065086711090117 1

# Energy components:
   Eewald =    -2572.2925074050413059
       EH =      404.2236227791130432
     Eloc =    -1836.4128691640296438
      Enl =      636.1604188666431128
      Exc =     -579.0685583873853375
 Exc_core =      221.1513801008990754
       KE =      796.3950764846644006
-------------------------------------
     Etot =    -2929.8434367251365984
       TS =        0.3185495965948884
-------------------------------------
        F =    -2930.1619863217315469

IonicMinimize: Iter:   1  F: -2930.161986321731547  |grad|_K:  3.424e-02  alpha:  3.281e-01  linmin: -9.768e-01  t[s]:   2229.79

#--- Lowdin population analysis ---
# oxidation-state Tc +0.010 +0.040 +0.013 +0.022 +0.009 -0.016 +0.027 +0.031 +0.003 +0.034 +0.041 +0.018 +0.021 +0.007 +0.002 +0.022 +0.022 +0.020 +0.023 +0.020 +0.013 +0.006 +0.006 +0.039 +0.015 +0.002 +0.024 +0.004 +0.008 +0.030 +0.011 +0.019 +0.030 +0.037 +0.018 +0.003
# oxidation-state O +0.141


-------- Electronic minimization -----------
Will mix electronic density at each iteration.
	FillingsUpdate:  mu: +0.859081881  nElectrons: 546.000000
	FillingsUpdate:  mu: +0.861140217  nElectrons: 546.000000
SCF: Cycle:  0   F: -2909.284614787547980   dF: +1.971e+01   |Residual|: 1.436e+00   |deigs|: 4.737e-03  t[s]:   2328.33
	FillingsUpdate:  mu: +0.866729913  nElectrons: 546.000000
SCF: Cycle:  1   F: -2878.212999860917989   dF: +3.107e+01   |Residual|: 2.421e+00   |deigs|: 4.717e-02  t[s]:   2398.39
	FillingsUpdate:  mu: +0.861303483  nElectrons: 546.000000
SCF: Cycle:  2   F: -2929.016778151086783   dF: -5.080e+01   |Residual|: 4.484e-01   |deigs|: 4.735e-02  t[s]:   2470.08
	FillingsUpdate:  mu: +0.859519862  nElectrons: 546.000000
SCF: Cycle:  3   F: -2929.603301659492445   dF: -5.865e-01   |Residual|: 3.187e-01   |deigs|: 5.428e-03  t[s]:   2541.24
	FillingsUpdate:  mu: +0.858976422  nElectrons: 546.000000
SCF: Cycle:  4   F: -2930.074400961083938   dF: -4.711e-01   |Residual|: 1.595e-01   |deigs|: 2.706e-03  t[s]:   2611.32
	FillingsUpdate:  mu: +0.858607278  nElectrons: 546.000000
SCF: Cycle:  5   F: -2930.222041497825558   dF: -1.476e-01   |Residual|: 4.477e-02   |deigs|: 1.642e-03  t[s]:   2679.85
	FillingsUpdate:  mu: +0.858638540  nElectrons: 546.000000
SCF: Cycle:  6   F: -2930.221263168055430   dF: +7.783e-04   |Residual|: 4.022e-02   |deigs|: 2.978e-04  t[s]:   2736.95
	FillingsUpdate:  mu: +0.858636895  nElectrons: 546.000000
SCF: Cycle:  7   F: -2930.231997330701233   dF: -1.073e-02   |Residual|: 9.640e-03   |deigs|: 2.738e-04  t[s]:   2778.73
	FillingsUpdate:  mu: +0.858614187  nElectrons: 546.000000
SCF: Cycle:  8   F: -2930.231791847565546   dF: +2.055e-04   |Residual|: 9.232e-03   |deigs|: 6.265e-05  t[s]:   2821.03
	FillingsUpdate:  mu: +0.858603530  nElectrons: 546.000000
SCF: Cycle:  9   F: -2930.232359520905902   dF: -5.677e-04   |Residual|: 1.486e-03   |deigs|: 3.973e-05  t[s]:   2863.92
	FillingsUpdate:  mu: +0.858611225  nElectrons: 546.000000
SCF: Cycle: 10   F: -2930.232352702494609   dF: +6.818e-06   |Residual|: 1.721e-03   |deigs|: 1.215e-05  t[s]:   2906.45
	FillingsUpdate:  mu: +0.858615034  nElectrons: 546.000000
SCF: Cycle: 11   F: -2930.232367683198845   dF: -1.498e-05   |Residual|: 3.852e-04   |deigs|: 9.003e-06  t[s]:   2949.52
	FillingsUpdate:  mu: +0.858613380  nElectrons: 546.000000
SCF: Cycle: 12   F: -2930.232367607524338   dF: +7.567e-08   |Residual|: 3.190e-04   |deigs|: 3.927e-06  t[s]:   2991.68
	FillingsUpdate:  mu: +0.858613155  nElectrons: 546.000000
SCF: Cycle: 13   F: -2930.232368177050830   dF: -5.695e-07   |Residual|: 1.000e-04   |deigs|: 1.564e-06  t[s]:   3033.42
	FillingsUpdate:  mu: +0.858612892  nElectrons: 546.000000
SCF: Cycle: 14   F: -2930.232368179419609   dF: -2.369e-09   |Residual|: 6.149e-05   |deigs|: 6.351e-07  t[s]:   3075.41
	FillingsUpdate:  mu: +0.858612906  nElectrons: 546.000000
SCF: Cycle: 15   F: -2930.232368203587157   dF: -2.417e-08   |Residual|: 1.827e-05   |deigs|: 4.219e-07  t[s]:   3117.40
	FillingsUpdate:  mu: +0.858612966  nElectrons: 546.000000
SCF: Cycle: 16   F: -2930.232368203224269   dF: +3.629e-10   |Residual|: 1.735e-05   |deigs|: 3.138e-07  t[s]:   3160.05
	FillingsUpdate:  mu: +0.858612976  nElectrons: 546.000000
SCF: Cycle: 17   F: -2930.232368204954128   dF: -1.730e-09   |Residual|: 6.892e-06   |deigs|: 2.793e-07  t[s]:   3201.72
	FillingsUpdate:  mu: +0.858612994  nElectrons: 546.000000
SCF: Cycle: 18   F: -2930.232368205361126   dF: -4.070e-10   |Residual|: 4.287e-06   |deigs|: 2.094e-07  t[s]:   3237.63
SCF: Converged (|Delta E|<1.000000e-08 for 2 iters).

Setting wave functions to eigenvectors of Hamiltonian

# Ionic positions in lattice coordinates:
ion Tc   0.121204959267771   0.223911956528424   0.130087778112115 1
ion Tc   0.229360185624792   0.121464959254951   0.364921720268886 1
ion Tc   0.108255903149122   0.222320092076031   0.621369520302730 1
ion Tc   0.214286758470933   0.118101743371277   0.867021177994015 1
ion Tc   0.099256123459436   0.541732355919935   0.134693977888799 1
ion Tc   0.220620299460820   0.448797335105281   0.366456013791823 1
ion Tc   0.111634476719352   0.534327177080316   0.636581811167967 1
ion Tc   0.225259668710625   0.420854075252510   0.878909110521867 1
ion Tc   0.119026825461244   0.878834961441586   0.122896027380318 1
ion Tc   0.233386129456405   0.758422730010121   0.361730965641535 1
ion Tc   0.102925793515742   0.875919704509380   0.640925884597045 1
ion Tc   0.201599692526589   0.779458929394401   0.875094024796816 1
ion Tc   0.447450778642242   0.222440741432357   0.129500892246041 1
ion Tc   0.574568616068707   0.117922061636780   0.373451135562767 1
ion Tc   0.457740784436505   0.232568621607705   0.617031843734682 1
ion Tc   0.562165441761323   0.099999429723753   0.881936427525615 1
ion Tc   0.443940328624474   0.549108671509453   0.119138216899734 1
ion Tc   0.541887027433098   0.441532290549378   0.375120481397016 1
ion Tc   0.449205774986439   0.544148489033696   0.618451771373669 1
ion Tc   0.551862280761324   0.438058382471299   0.873072104117916 1
ion Tc   0.442667529609884   0.877183096744587   0.111866755224770 1
ion Tc   0.552652673092754   0.786691371317815   0.368377881065988 1
ion Tc   0.430961126964783   0.898229559537479   0.629183205104914 1
ion Tc   0.557000284047816   0.797319650569643   0.854279820501767 1
ion Tc   0.783989936756909   0.225613120377196   0.120737406209451 1
ion Tc   0.897292573385387   0.121708709436873   0.368878214680257 1
ion Tc   0.773528024001493   0.215491948403422   0.622550607981268 1
ion Tc   0.887082067751905   0.106647517703242   0.872648761940536 1
ion Tc   0.780278408490290   0.559672355444592   0.117959333159747 1
ion Tc   0.902400033931854   0.439694437651274   0.357515813061737 1
ion Tc   0.778011149793145   0.561169569491194   0.626908775922469 1
ion Tc   0.886253630274784   0.433232290060718   0.878690977336946 1
ion Tc   0.785227400630172   0.894850447691029   0.126157187981654 1
ion Tc   0.877950881788543   0.771828882472754   0.376168436428741 1
ion Tc   0.775244448612456   0.893057291146572   0.618035516509577 1
ion Tc   0.891711984020113   0.777109790692018   0.873229695687420 1
ion O   0.144599998310768   0.895885253350958   0.446290725881401 1

# Forces in Lattice coordinates:
force Tc  -0.169189058865939  -0.078309499739528  -0.209913692051780 1
force Tc  -0.067992311743162   1.175571586902898  -0.647403187077997 1
force Tc   0.094812201806650  -0.121253272672898  -0.001625557632406 1
force Tc   0.576178561932010  -0.581028160252210   0.147633338315054 1
force Tc   0.289352529489549   0.082722168713676  -0.791324095182437 1
force Tc   0.459263182692086  -0.472390282302261   0.375020662458490 1
force Tc  -0.221204989555369   0.350257090341377  -0.108257691966771 1
force Tc  -0.413804735655358   0.824241191009087  -0.142216818648232 1
force Tc  -0.313973527317973   0.353656481551335  -0.026162993371612 1
force Tc   0.804109383759676  -0.582807485781452  -0.633422286509331 1
force Tc  -0.222142472908365   0.322631057539183   2.107241481520856 1
force Tc   0.629161240214180  -0.589080900969452   0.028617728831644 1
force Tc   0.086719038936590  -0.091532605375020  -0.207620192570563 1
force Tc  -0.337941018733244   0.088842885253888  -0.118665598300513 1
force Tc  -0.119458637099791  -0.159227759001956   0.240009400217264 1
force Tc  -0.511789446918667   0.635862336946036  -0.217912758308710 1
force Tc   0.025213888496964   0.180974772512125   0.000400376887975 1
force Tc   0.478232589681075  -0.058482195912173  -0.168994899725703 1
force Tc  -0.387032228436146   0.523014206217869   0.124368879452184 1
force Tc   0.144707551688997  -0.016857080906057   0.033756761029466 1
force Tc   0.084245347735376   0.082670967938045   0.222848276383861 1
force Tc   0.389166822590772  -0.275208893236198   0.193222648579497 1
force Tc   0.534554167511188  -0.504822231518821  -0.112353062333829 1
force Tc   0.253703846899714  -0.702205517891868   0.236270179405596 1
force Tc  -0.096133823226992  -0.217210820619642   0.017613865007089 1
force Tc  -0.002567814189857  -0.310892247434041   0.070176650149966 1
force Tc   0.029911689587954   0.177318075352081   0.092173789200123 1
force Tc   0.027563245033234  -0.054831541894336  -0.041642047981009 1
force Tc  -0.092202824021273   0.008641870077422   0.157890932903005 1
force Tc  -0.731699276344977   0.395155380137069   0.744095861833097 1
force Tc   0.204656398534485  -0.361092377176590  -0.053507629579926 1
force Tc  -0.032231556141881   0.235979772023322  -0.280257830184254 1
force Tc  -0.077404852536240  -0.080901577152412  -0.065454195041500 1
force Tc  -0.097744857098040  -0.119055941752109  -0.471868354699857 1
force Tc  -0.107133844546039  -0.017710527405121   0.014368993576713 1
force Tc  -0.485015338407018   0.082964316046177   0.216095666176612 1
force O  -0.617079892762486  -0.129643184026525  -0.760459018631177 1

# Energy components:
   Eewald =    -2575.5695461370382873
       EH =      401.2149313493617910
     Eloc =    -1829.8283179738316448
      Enl =      636.0271315689446965
      Exc =     -578.9714158350938078
 Exc_core =      221.1513428323638095
       KE =      796.0624656578952454
-------------------------------------
     Etot =    -2929.9134085373980270
       TS =        0.3189596679632835
-------------------------------------
        F =    -2930.2323682053611265

IonicMinimize: Iter:   2  F: -2930.232368205361126  |grad|_K:  2.486e-02  alpha:  3.565e-01  linmin: -9.833e-01  t[s]:   3248.12

#--- Lowdin population analysis ---
# oxidation-state Tc +0.012 +0.052 +0.012 +0.019 +0.008 -0.015 +0.025 +0.028 +0.004 +0.049 +0.057 +0.018 +0.021 +0.008 +0.004 +0.021 +0.025 +0.017 +0.023 +0.019 +0.013 +0.004 +0.008 +0.037 +0.015 +0.002 +0.023 +0.007 +0.009 +0.025 +0.010 +0.020 +0.028 +0.047 +0.017 +0.004
# oxidation-state O +0.091


-------- Electronic minimization -----------
Will mix electronic density at each iteration.
	FillingsUpdate:  mu: +0.858612994  nElectrons: 546.000000
	FillingsUpdate:  mu: +0.862753350  nElectrons: 546.000000
SCF: Cycle:  0   F: -2902.110554632354251   dF: +2.654e+01   |Residual|: 1.621e+00   |deigs|: 5.791e-03  t[s]:   3345.82
	FillingsUpdate:  mu: +0.870011923  nElectrons: 546.000000
SCF: Cycle:  1   F: -2860.707667921636130   dF: +4.140e+01   |Residual|: 2.785e+00   |deigs|: 4.968e-02  t[s]:   3417.75
	FillingsUpdate:  mu: +0.861694957  nElectrons: 546.000000
SCF: Cycle:  2   F: -2929.269946710978729   dF: -6.856e+01   |Residual|: 4.083e-01   |deigs|: 5.925e-02  t[s]:   3489.13
	FillingsUpdate:  mu: +0.859042797  nElectrons: 546.000000
SCF: Cycle:  3   F: -2928.743371743978514   dF: +5.266e-01   |Residual|: 4.668e-01   |deigs|: 5.206e-03  t[s]:   3559.27
	FillingsUpdate:  mu: +0.858360907  nElectrons: 546.000000
SCF: Cycle:  4   F: -2930.224125591686516   dF: -1.481e+00   |Residual|: 9.972e-02   |deigs|: 5.240e-03  t[s]:   3630.58
	FillingsUpdate:  mu: +0.858144056  nElectrons: 546.000000
SCF: Cycle:  5   F: -2930.270324610667103   dF: -4.620e-02   |Residual|: 5.801e-02   |deigs|: 1.455e-03  t[s]:   3695.74
	FillingsUpdate:  mu: +0.858124906  nElectrons: 546.000000
SCF: Cycle:  6   F: -2930.281480923128129   dF: -1.116e-02   |Residual|: 3.736e-02   |deigs|: 3.471e-04  t[s]:   3753.38
	FillingsUpdate:  mu: +0.858090025  nElectrons: 546.000000
SCF: Cycle:  7   F: -2930.290520471025047   dF: -9.040e-03   |Residual|: 1.086e-02   |deigs|: 2.484e-04  t[s]:   3795.87
	FillingsUpdate:  mu: +0.858061785  nElectrons: 546.000000
SCF: Cycle:  8   F: -2930.290318882277461   dF: +2.016e-04   |Residual|: 1.049e-02   |deigs|: 6.752e-05  t[s]:   3837.42
	FillingsUpdate:  mu: +0.858050946  nElectrons: 546.000000
SCF: Cycle:  9   F: -2930.291022416748547   dF: -7.035e-04   |Residual|: 1.811e-03   |deigs|: 4.495e-05  t[s]:   3879.36
	FillingsUpdate:  mu: +0.858064332  nElectrons: 546.000000
SCF: Cycle: 10   F: -2930.291019377661087   dF: +3.039e-06   |Residual|: 1.886e-03   |deigs|: 1.922e-05  t[s]:   3921.64
	FillingsUpdate:  mu: +0.858070448  nElectrons: 546.000000
SCF: Cycle: 11   F: -2930.291036642828203   dF: -1.727e-05   |Residual|: 4.888e-04   |deigs|: 1.150e-05  t[s]:   3963.62
	FillingsUpdate:  mu: +0.858066818  nElectrons: 546.000000
SCF: Cycle: 12   F: -2930.291037376059649   dF: -7.332e-07   |Residual|: 3.071e-04   |deigs|: 5.603e-06  t[s]:   4005.62
	FillingsUpdate:  mu: +0.858066578  nElectrons: 546.000000
SCF: Cycle: 13   F: -2930.291037797259378   dF: -4.212e-07   |Residual|: 1.460e-04   |deigs|: 1.591e-06  t[s]:   4047.29
	FillingsUpdate:  mu: +0.858066185  nElectrons: 546.000000
SCF: Cycle: 14   F: -2930.291037849623535   dF: -5.236e-08   |Residual|: 5.646e-05   |deigs|: 9.252e-07  t[s]:   4089.55
	FillingsUpdate:  mu: +0.858066225  nElectrons: 546.000000
SCF: Cycle: 15   F: -2930.291037857160063   dF: -7.537e-09   |Residual|: 4.374e-05   |deigs|: 5.258e-07  t[s]:   4130.64
	FillingsUpdate:  mu: +0.858066240  nElectrons: 546.000000
SCF: Cycle: 16   F: -2930.291037863399652   dF: -6.240e-09   |Residual|: 2.885e-05   |deigs|: 5.434e-07  t[s]:   4172.43
SCF: Converged (|Delta E|<1.000000e-08 for 2 iters).

Setting wave functions to eigenvectors of Hamiltonian

# Ionic positions in lattice coordinates:
ion Tc   0.119704112120577   0.222910606271187   0.128914656648676 1
ion Tc   0.231824486816310   0.125771060295560   0.363277316336272 1
ion Tc   0.108550094849142   0.221802789777995   0.621443218254526 1
ion Tc   0.216280674746167   0.116359027268389   0.867893885748393 1
ion Tc   0.101203482594037   0.542957196321157   0.131519889942946 1
ion Tc   0.221809121023602   0.447074811655559   0.368051729368056 1
ion Tc   0.111339204368567   0.536118465122236   0.635966950524662 1
ion Tc   0.225215644945036   0.425012738519979   0.878162881408532 1
ion Tc   0.118040995466956   0.880225417381686   0.122792458626089 1
ion Tc   0.236279337076132   0.758448500431915   0.359555178399831 1
ion Tc   0.103943894340979   0.878269983875151   0.646685589267181 1
ion Tc   0.204074468399894   0.777467515906466   0.875359118600205 1
ion Tc   0.447805439889702   0.222136736248389   0.128414941363362 1
ion Tc   0.572532003276229   0.117368203380372   0.372908137469609 1
ion Tc   0.456268463952265   0.231065931638112   0.618184494878195 1
ion Tc   0.560790034176682   0.102452559657327   0.880785002160606 1
ion Tc   0.444680373265302   0.550449216964734   0.119151211684543 1
ion Tc   0.545276477031707   0.442899476510062   0.374445961318746 1
ion Tc   0.448358983691848   0.546409159912024   0.619063699095569 1
ion Tc   0.552740764081022   0.438454531573032   0.873191376079197 1
ion Tc   0.443677660266573   0.878210946113219   0.112830790310606 1
ion Tc   0.554534538048660   0.786080168031132   0.369371384905489 1
ion Tc   0.432848369101804   0.896471021248510   0.628594044798358 1
ion Tc   0.556312036643553   0.793431369999204   0.855539359562163 1
ion Tc   0.782683364274388   0.223947041594959   0.120841250201105 1
ion Tc   0.896103169621370   0.119638763535330   0.369236036258827 1
ion Tc   0.774320685175904   0.216802184115116   0.622947501100923 1
ion Tc   0.887104347938425   0.106412540119560   0.872427802588715 1
ion Tc   0.779748410790733   0.559295057977156   0.118822346792666 1
ion Tc   0.899098382914494   0.440001116212777   0.360669000153483 1
ion Tc   0.778119436347922   0.559292288076644   0.626578404489736 1
ion Tc   0.886797173157947   0.434717991861119   0.877400811796744 1
ion Tc   0.784369672436976   0.893988917145948   0.125868083749335 1
ion Tc   0.877044563847028   0.770782317163609   0.373895808645502 1
ion Tc   0.774452043776805   0.892578441308630   0.618161623008531 1
ion Tc   0.888565921674800   0.775972872561631   0.874284249899040 1
ion O   0.139992167870462   0.894033034224122   0.444633804563581 1

# Forces in Lattice coordinates:
force Tc  -0.154914164156153  -0.036292640150945  -0.209531711152419 1
force Tc   0.002044754508478   0.762106598566894  -0.442701324910566 1
force Tc   0.084464548547834  -0.095573735406771   0.024908139041248 1
force Tc   0.433234046240283  -0.409460488440185   0.179153882506102 1
force Tc   0.207647109654430   0.041768697609542  -0.557710159819357 1
force Tc   0.294778425813695  -0.324444346246536   0.275491493553563 1
force Tc  -0.185884297217302   0.309435862953713  -0.136859137061888 1
force Tc  -0.323735263553203   0.637321293450391  -0.134385474386345 1
force Tc  -0.257416603778542   0.285524885977169  -0.043642813805848 1
force Tc   0.491257873385707  -0.315860677851427  -0.430131122848386 1
force Tc  -0.091901327989192   0.259491641050371   1.295097711272993 1
force Tc   0.535572877096369  -0.496326221050987   0.049995869887228 1
force Tc   0.076254923524506  -0.071987919748818  -0.195062488647796 1
force Tc  -0.267055718485184   0.066894701264457  -0.091743272277407 1
force Tc  -0.114272546200169  -0.111462857169537   0.205025322564711 1
force Tc  -0.398723762353434   0.475717752704862  -0.221254253258010 1
force Tc   0.011031476835230   0.146094200171268   0.010621289040140 1
force Tc   0.415234968365670  -0.060187446056222  -0.106598153919644 1
force Tc  -0.298218594392716   0.403827089370960   0.103644269535267 1
force Tc   0.098336112817022   0.002527485426131   0.016607817020717 1
force Tc   0.076659115987492   0.095090351959550   0.171813956931449 1
force Tc   0.327000951761225  -0.245514195675870   0.179689421272620 1
force Tc   0.444103024469412  -0.427649231746010  -0.109462734140894 1
force Tc   0.195030041440524  -0.552111545231895   0.252026473232551 1
force Tc  -0.071929571714052  -0.148391080627278   0.014647390806217 1
force Tc  -0.025959295732389  -0.214686432159879   0.065444175438960 1
force Tc   0.020568046848636   0.135395781483630   0.062740086653125 1
force Tc   0.020286848288963  -0.026002778372935  -0.041020956132386 1
force Tc  -0.045173542223615  -0.034521362132740   0.156418077684029 1
force Tc  -0.513444186929352   0.290475906310610   0.552955781847662 1
force Tc   0.159651549047650  -0.284527040784768  -0.057941052962962 1
force Tc  -0.034045889969342   0.185031273426341  -0.225963548536650 1
force Tc  -0.071013851958505  -0.064673757601692  -0.057267210064840 1
force Tc  -0.091631884260578  -0.090852593236693  -0.413954228510128 1
force Tc  -0.064127436611453  -0.027732830482072   0.034004524225761 1
force Tc  -0.364449857351886   0.056318404292043   0.159408939983774 1
force O  -0.514670451010006  -0.106382435218036  -0.319294757455107 1

# Energy components:
   Eewald =    -2578.8870897399597197
       EH =      398.0985041537742859
     Eloc =    -1823.0980772063066979
      Enl =      635.9015632655678019
      Exc =     -578.8754068794519299
 Exc_core =      221.1513251694487963
       KE =      795.7375549145181139
-------------------------------------
     Etot =    -2929.9716263224095201
       TS =        0.3194115409899860
-------------------------------------
        F =    -2930.2910378633996515

IonicMinimize: Iter:   3  F: -2930.291037863399652  |grad|_K:  1.779e-02  alpha:  3.352e-01  linmin: -9.865e-01  t[s]:   4183.00

#--- Lowdin population analysis ---
# oxidation-state Tc +0.013 +0.061 +0.011 +0.017 +0.008 -0.013 +0.023 +0.024 +0.006 +0.060 +0.069 +0.016 +0.020 +0.008 +0.005 +0.021 +0.030 +0.013 +0.022 +0.018 +0.012 +0.003 +0.009 +0.032 +0.016 +0.002 +0.021 +0.012 +0.010 +0.021 +0.009 +0.021 +0.024 +0.055 +0.015 +0.006
# oxidation-state O +0.057


-------- Electronic minimization -----------
Will mix electronic density at each iteration.
	FillingsUpdate:  mu: +0.858066240  nElectrons: 546.000000
	FillingsUpdate:  mu: +0.863433641  nElectrons: 546.000000
SCF: Cycle:  0   F: -2890.855572575806946   dF: +3.707e+01   |Residual|: 1.929e+00   |deigs|: 8.046e-03  t[s]:   4279.53
	FillingsUpdate:  mu: +0.874454813  nElectrons: 546.000000
SCF: Cycle:  1   F: -2841.725632831121857   dF: +4.913e+01   |Residual|: 3.181e+00   |deigs|: 5.742e-02  t[s]:   4350.67
	FillingsUpdate:  mu: +0.862378450  nElectrons: 546.000000
SCF: Cycle:  2   F: -2928.966215197279780   dF: -8.724e+01   |Residual|: 4.952e-01   |deigs|: 7.176e-02  t[s]:   4421.96
	FillingsUpdate:  mu: +0.859023682  nElectrons: 546.000000
SCF: Cycle:  3   F: -2927.825147787173137   dF: +1.141e+00   |Residual|: 6.137e-01   |deigs|: 6.644e-03  t[s]:   4493.57
	FillingsUpdate:  mu: +0.857819722  nElectrons: 546.000000
SCF: Cycle:  4   F: -2930.282061311760572   dF: -2.457e+00   |Residual|: 1.023e-01   |deigs|: 7.887e-03  t[s]:   4564.13
	FillingsUpdate:  mu: +0.857681122  nElectrons: 546.000000
SCF: Cycle:  5   F: -2930.299935955685214   dF: -1.787e-02   |Residual|: 8.281e-02   |deigs|: 1.513e-03  t[s]:   4629.64
	FillingsUpdate:  mu: +0.857610732  nElectrons: 546.000000
SCF: Cycle:  6   F: -2930.332694072739287   dF: -3.276e-02   |Residual|: 3.870e-02   |deigs|: 4.558e-04  t[s]:   4689.99
	FillingsUpdate:  mu: +0.857543656  nElectrons: 546.000000
SCF: Cycle:  7   F: -2930.339288985865096   dF: -6.595e-03   |Residual|: 1.395e-02   |deigs|: 2.870e-04  t[s]:   4754.49
	FillingsUpdate:  mu: +0.857501489  nElectrons: 546.000000
SCF: Cycle:  8   F: -2930.339231473323252   dF: +5.751e-05   |Residual|: 1.226e-02   |deigs|: 1.094e-04  t[s]:   4796.90
	FillingsUpdate:  mu: +0.857491327  nElectrons: 546.000000
SCF: Cycle:  9   F: -2930.340112259964826   dF: -8.808e-04   |Residual|: 2.386e-03   |deigs|: 5.577e-05  t[s]:   4839.05
	FillingsUpdate:  mu: +0.857510690  nElectrons: 546.000000
SCF: Cycle: 10   F: -2930.340119163670806   dF: -6.904e-06   |Residual|: 2.147e-03   |deigs|: 2.962e-05  t[s]:   4881.51
	FillingsUpdate:  mu: +0.857516753  nElectrons: 546.000000
SCF: Cycle: 11   F: -2930.340141786329241   dF: -2.262e-05   |Residual|: 8.533e-04   |deigs|: 1.404e-05  t[s]:   4924.85
	FillingsUpdate:  mu: +0.857512190  nElectrons: 546.000000
SCF: Cycle: 12   F: -2930.340145969130845   dF: -4.183e-06   |Residual|: 2.868e-04   |deigs|: 7.420e-06  t[s]:   4967.45
	FillingsUpdate:  mu: +0.857511902  nElectrons: 546.000000
SCF: Cycle: 13   F: -2930.340146166033719   dF: -1.969e-07   |Residual|: 2.088e-04   |deigs|: 2.016e-06  t[s]:   5009.16
	FillingsUpdate:  mu: +0.857511520  nElectrons: 546.000000
SCF: Cycle: 14   F: -2930.340146345201902   dF: -1.792e-07   |Residual|: 6.224e-05   |deigs|: 1.134e-06  t[s]:   5050.90
	FillingsUpdate:  mu: +0.857511530  nElectrons: 546.000000
SCF: Cycle: 15   F: -2930.340146328356695   dF: +1.685e-08   |Residual|: 7.383e-05   |deigs|: 5.696e-07  t[s]:   5092.74
	FillingsUpdate:  mu: +0.857511499  nElectrons: 546.000000
SCF: Cycle: 16   F: -2930.340146365070723   dF: -3.671e-08   |Residual|: 2.433e-05   |deigs|: 5.245e-07  t[s]:   5134.89
	FillingsUpdate:  mu: +0.857511522  nElectrons: 546.000000
SCF: Cycle: 17   F: -2930.340146367517264   dF: -2.447e-09   |Residual|: 1.427e-05   |deigs|: 3.341e-07  t[s]:   5176.65
	FillingsUpdate:  mu: +0.857511555  nElectrons: 546.000000
SCF: Cycle: 18   F: -2930.340146368648675   dF: -1.131e-09   |Residual|: 7.704e-06   |deigs|: 2.618e-07  t[s]:   5216.61
SCF: Converged (|Delta E|<1.000000e-08 for 2 iters).

Setting wave functions to eigenvectors of Hamiltonian

# Ionic positions in lattice coordinates:
ion Tc   0.117633647223217   0.221861221474194   0.126910633378783 1
ion Tc   0.235117019542642   0.130591434108259   0.361250469790778 1
ion Tc   0.109093459260036   0.221250119475497   0.621845240311275 1
ion Tc   0.218884773699438   0.114755665670893   0.869754731350840 1
ion Tc   0.103215734684536   0.544015676375848   0.128097231885698 1
ion Tc   0.222618598306507   0.445191170083496   0.369870340316128 1
ion Tc   0.111053712441821   0.538905436646114   0.634511615065592 1
ion Tc   0.225096274879322   0.430152260418220   0.876938712619252 1
ion Tc   0.116662315402073   0.882013714817501   0.122315239176615 1
ion Tc   0.238771319220441   0.759379228181300   0.357387720646305 1
ion Tc   0.105934282589745   0.881563628441273   0.652123208640130 1
ion Tc   0.207626219701542   0.774718565943621   0.875986852086609 1
ion Tc   0.448380315850047   0.221809375448831   0.126653197894616 1
ion Tc   0.569880083682934   0.116577474667088   0.372227369268386 1
ion Tc   0.454168460089213   0.229218806669722   0.619833150739476 1
ion Tc   0.558878235306048   0.105196309484019   0.878696980812050 1
ion Tc   0.445508345545462   0.552134354003806   0.119291278718547 1
ion Tc   0.550099735303687   0.444676678741643   0.373883972465826 1
ion Tc   0.447317637760286   0.549197810056673   0.619886937619718 1
ion Tc   0.553730176110432   0.439116103362225   0.873210127206396 1
ion Tc   0.445415147449913   0.880165110685026   0.114022750034772 1
ion Tc   0.556985006831835   0.784934171933910   0.370946956705651 1
ion Tc   0.435478756744597   0.893902084121435   0.627579043355417 1
ion Tc   0.555347862147997   0.788378541143457   0.857950945749180 1
ion Tc   0.781266895382378   0.222232638517698   0.120956441956595 1
ion Tc   0.894452739574704   0.117321838809065   0.369801579116111 1
ion Tc   0.775236578600789   0.218357781155797   0.623315572101940 1
ion Tc   0.887270679400407   0.106428608990684   0.872035564462804 1
ion Tc   0.779167399372221   0.558296168596758   0.120273769313294 1
ion Tc   0.895756921835820   0.440551383432453   0.364376270737036 1
ion Tc   0.778262043243861   0.556933109780684   0.625974244187516 1
ion Tc   0.887325047072620   0.436516874864300   0.875673093532304 1
ion Tc   0.783074998917062   0.892776180021905   0.125395044497292 1
ion Tc   0.875455856191935   0.769255423321159   0.370434273749619 1
ion Tc   0.773718428587522   0.891873695016425   0.618593113781795 1
ion Tc   0.884892996941136   0.774535849985287   0.875424242905263 1
ion O   0.133712295105772   0.890525505553736   0.444442083820388 1

# Forces in Lattice coordinates:
force Tc  -0.129421207082495   0.000861016925001  -0.173235852905821 1
force Tc   0.041892186922554   0.295661681644048  -0.210636043023264 1
force Tc   0.064602277651592  -0.059439513108774   0.037046488703451 1
force Tc   0.273290695164029  -0.241049137185045   0.191760489654876 1
force Tc   0.130665734654483   0.023434382536195  -0.349021508312236 1
force Tc   0.162387913032125  -0.186110713814748   0.189352288872467 1
force Tc  -0.139496658187840   0.250181778374618  -0.159363649983884 1
force Tc  -0.224588287076254   0.430166875577256  -0.111837035756660 1
force Tc  -0.182381569840585   0.202970861949587  -0.049136163707467 1
force Tc   0.256585413191203  -0.151349370488065  -0.292793688680029 1
force Tc  -0.045575771785118   0.171326318638885   0.764777946064240 1
force Tc   0.407546917944243  -0.359791263621214   0.050515958263139 1
force Tc   0.062597229505064  -0.047105472034385  -0.159872876073235 1
force Tc  -0.180196521268335   0.038894520110327  -0.050696444632968 1
force Tc  -0.093142839099949  -0.067808646036265   0.146806529173406 1
force Tc  -0.257235205959497   0.294468671868825  -0.206214692884472 1
force Tc   0.003377601789950   0.095611186235506   0.026405449020077 1
force Tc   0.294235989656161  -0.053961003533658  -0.042024443648757 1
force Tc  -0.191655914927758   0.261856460122797   0.073720039843818 1
force Tc   0.052454726544915   0.020551835977497  -0.003708816590576 1
force Tc   0.056162128353605   0.097687423676009   0.128439798523483 1
force Tc   0.224406413598864  -0.188013978418775   0.156944469180510 1
force Tc   0.333105220596705  -0.316404450888719  -0.095425402686409 1
force Tc   0.132731209758034  -0.384753986730863   0.248622196592019 1
force Tc  -0.046029772089309  -0.083785596058607   0.007297957844536 1
force Tc  -0.030279866789538  -0.124037470969281   0.059792960097041 1
force Tc   0.013061859607552   0.078280916360073   0.023886497661427 1
force Tc   0.007099624919478   0.004318856791554  -0.038693935151482 1
force Tc  -0.003066048203216  -0.071473036489472   0.125523969567922 1
force Tc  -0.307980166085363   0.173366975366206   0.342673678065337 1
force Tc   0.100187338156975  -0.186904958023978  -0.049688874703951 1
force Tc  -0.034694052645240   0.119483625854882  -0.159088965779655 1
force Tc  -0.059878469584246  -0.041613260005142  -0.049976859075660 1
force Tc  -0.085862476140173  -0.047820620051604  -0.359206170574738 1
force Tc  -0.010043251200513  -0.040256014431991   0.054940764076715 1
force Tc  -0.207778565591982   0.027611504566835   0.089463796712150 1
force O  -0.376088769063544   0.058419246354229  -0.177426437272573 1

# Energy components:
   Eewald =    -2581.8208952353165841
       EH =      395.3275438205029104
     Eloc =    -1817.1283700589076489
      Enl =      635.7900233201734181
      Exc =     -578.7895203378502629
 Exc_core =      221.1512518894597292
       KE =      795.4496097544872555
-------------------------------------
     Etot =    -2930.0203568474516942
       TS =        0.3197895211969035
-------------------------------------
        F =    -2930.3401463686486750

IonicMinimize: Iter:   4  F: -2930.340146368648675  |grad|_K:  1.141e-02  alpha:  3.765e-01  linmin: -9.801e-01  t[s]:   5227.03

#--- Lowdin population analysis ---
# oxidation-state Tc +0.013 +0.067 +0.010 +0.014 +0.008 -0.009 +0.020 +0.020 +0.008 +0.069 +0.081 +0.015 +0.019 +0.009 +0.006 +0.021 +0.035 +0.009 +0.022 +0.017 +0.012 +0.002 +0.009 +0.027 +0.016 +0.004 +0.020 +0.017 +0.011 +0.016 +0.009 +0.022 +0.020 +0.062 +0.013 +0.008
# oxidation-state O +0.028


-------- Electronic minimization -----------
Will mix electronic density at each iteration.
	FillingsUpdate:  mu: +0.857511555  nElectrons: 546.000000
	FillingsUpdate:  mu: +0.862218846  nElectrons: 546.000000
SCF: Cycle:  0   F: -2892.733524710552956   dF: +3.512e+01   |Residual|: 1.906e+00   |deigs|: 7.816e-03  t[s]:   5323.66
	FillingsUpdate:  mu: +0.873577392  nElectrons: 546.000000
SCF: Cycle:  1   F: -2846.443481994096146   dF: +4.629e+01   |Residual|: 3.079e+00   |deigs|: 5.500e-02  t[s]:   5393.64
	FillingsUpdate:  mu: +0.861705595  nElectrons: 546.000000
SCF: Cycle:  2   F: -2928.864121810736378   dF: -8.242e+01   |Residual|: 5.125e-01   |deigs|: 6.953e-02  t[s]:   5464.25
	FillingsUpdate:  mu: +0.858698995  nElectrons: 546.000000
SCF: Cycle:  3   F: -2927.626580331642799   dF: +1.238e+00   |Residual|: 6.467e-01   |deigs|: 6.620e-03  t[s]:   5535.48
	FillingsUpdate:  mu: +0.857413467  nElectrons: 546.000000
SCF: Cycle:  4   F: -2930.322680605217101   dF: -2.696e+00   |Residual|: 9.986e-02   |deigs|: 8.687e-03  t[s]:   5606.36
	FillingsUpdate:  mu: +0.857310164  nElectrons: 546.000000
SCF: Cycle:  5   F: -2930.316076925308607   dF: +6.604e-03   |Residual|: 9.997e-02   |deigs|: 1.222e-03  t[s]:   5676.37
	FillingsUpdate:  mu: +0.857205487  nElectrons: 546.000000
SCF: Cycle:  6   F: -2930.367268436340964   dF: -5.119e-02   |Residual|: 3.232e-02   |deigs|: 5.815e-04  t[s]:   5736.17
	FillingsUpdate:  mu: +0.857116538  nElectrons: 546.000000
SCF: Cycle:  7   F: -2930.369973211551496   dF: -2.705e-03   |Residual|: 1.492e-02   |deigs|: 2.849e-04  t[s]:   5802.94
	FillingsUpdate:  mu: +0.857084084  nElectrons: 546.000000
SCF: Cycle:  8   F: -2930.370293868653789   dF: -3.207e-04   |Residual|: 1.121e-02   |deigs|: 1.205e-04  t[s]:   5845.12
	FillingsUpdate:  mu: +0.857081128  nElectrons: 546.000000
SCF: Cycle:  9   F: -2930.370989070549513   dF: -6.952e-04   |Residual|: 2.518e-03   |deigs|: 5.840e-05  t[s]:   5888.69
	FillingsUpdate:  mu: +0.857099213  nElectrons: 546.000000
SCF: Cycle: 10   F: -2930.371002655087977   dF: -1.358e-05   |Residual|: 2.105e-03   |deigs|: 3.119e-05  t[s]:   5931.03
	FillingsUpdate:  mu: +0.857104527  nElectrons: 546.000000
SCF: Cycle: 11   F: -2930.371023895661892   dF: -2.124e-05   |Residual|: 8.675e-04   |deigs|: 1.378e-05  t[s]:   5974.45
	FillingsUpdate:  mu: +0.857099657  nElectrons: 546.000000
SCF: Cycle: 12   F: -2930.371028783739803   dF: -4.888e-06   |Residual|: 2.562e-04   |deigs|: 7.624e-06  t[s]:   6016.37
	FillingsUpdate:  mu: +0.857099322  nElectrons: 546.000000
SCF: Cycle: 13   F: -2930.371028759464025   dF: +2.428e-08   |Residual|: 2.380e-04   |deigs|: 1.506e-06  t[s]:   6058.32
	FillingsUpdate:  mu: +0.857098952  nElectrons: 546.000000
SCF: Cycle: 14   F: -2930.371029002472369   dF: -2.430e-07   |Residual|: 6.394e-05   |deigs|: 9.747e-07  t[s]:   6100.25
	FillingsUpdate:  mu: +0.857098963  nElectrons: 546.000000
SCF: Cycle: 15   F: -2930.371028977304377   dF: +2.517e-08   |Residual|: 8.287e-05   |deigs|: 6.238e-07  t[s]:   6141.95
	FillingsUpdate:  mu: +0.857098928  nElectrons: 546.000000
SCF: Cycle: 16   F: -2930.371029025857297   dF: -4.855e-08   |Residual|: 2.172e-05   |deigs|: 5.908e-07  t[s]:   6183.35
	FillingsUpdate:  mu: +0.857098963  nElectrons: 546.000000
SCF: Cycle: 17   F: -2930.371029026380256   dF: -5.230e-10   |Residual|: 1.712e-05   |deigs|: 3.739e-07  t[s]:   6224.97
	FillingsUpdate:  mu: +0.857098990  nElectrons: 546.000000
SCF: Cycle: 18   F: -2930.371029028016892   dF: -1.637e-09   |Residual|: 6.788e-06   |deigs|: 3.093e-07  t[s]:   6266.42
SCF: Converged (|Delta E|<1.000000e-08 for 2 iters).

Setting wave functions to eigenvectors of Hamiltonian

# Ionic positions in lattice coordinates:
ion Tc   0.115290306253253   0.221090899967060   0.124522830767692 1
ion Tc   0.237080945963449   0.131903223866441   0.360156508745502 1
ion Tc   0.109860974998108   0.220941712089889   0.622554894118858 1
ion Tc   0.221413171503560   0.113666448464620   0.872723434884727 1
ion Tc   0.105108854352400   0.545041415325011   0.124919588289854 1
ion Tc   0.223122199648573   0.443717906265651   0.371837210293056 1
ion Tc   0.110928194468749   0.542495689701932   0.632002136974627 1
ion Tc   0.224833133415931   0.435250888938152   0.875434812406911 1
ion Tc   0.115226874415497   0.883939730358296   0.121527861966977 1
ion Tc   0.240500565409682   0.760217085704513   0.354770324602674 1
ion Tc   0.107508919638731   0.884481388441642   0.657709388936846 1
ion Tc   0.211947042489499   0.772015103279069   0.876832710072091 1
ion Tc   0.449223761141385   0.221661615316666   0.124518705515836 1
ion Tc   0.567170468844153   0.115636903081970   0.371769553435306 1
ion Tc   0.451817011189259   0.227362600459318   0.621594074832154 1
ion Tc   0.556972406685582   0.107490204606114   0.875754453892950 1
ion Tc   0.446219002289602   0.553677886952980   0.119776689608848 1
ion Tc   0.554890441529550   0.446209893907362   0.373802919759815 1
ion Tc   0.446383508358022   0.551830141901230   0.620762939603549 1
ion Tc   0.554633873343682   0.440081436979109   0.873007952373119 1
ion Tc   0.447598922589577   0.882937416456719   0.115480908881344 1
ion Tc   0.559134020655194   0.783307883408785   0.373085203921612 1
ion Tc   0.438629644726660   0.891146440683288   0.626263935322639 1
ion Tc   0.554269542962421   0.783015403484871   0.861608959823520 1
ion Tc   0.780070058133833   0.220890810061298   0.121030899544216 1
ion Tc   0.892811666402826   0.115345696921422   0.370632247711010 1
ion Tc   0.775966408549365   0.219561287190049   0.623391567018072 1
ion Tc   0.887528042880690   0.106901056628473   0.871491049253643 1
ion Tc   0.778630206136782   0.556482273458009   0.121985711003343 1
ion Tc   0.892893933978350   0.440942126033974   0.367683678137610 1
ion Tc   0.778295139037694   0.554675544528168   0.625262306905282 1
ion Tc   0.887496035465995   0.438029549867301   0.873867944762999 1
ion Tc   0.781531249015759   0.891499731359316   0.124743097695706 1
ion Tc   0.873355722933629   0.767746065859630   0.365689709523170 1
ion Tc   0.773568620569656   0.891047840481941   0.619558111401314 1
ion Tc   0.882150817963816   0.773368023475473   0.876231860569093 1
ion O   0.128428312059083   0.889700674494257   0.443883817444036 1

# Forces in Lattice coordinates:
force Tc  -0.089027877218152   0.017871842302483  -0.081850171819553 1
force Tc   0.008107076512760   0.233580927924007  -0.197446442162464 1
force Tc   0.040246673372672  -0.020876036892295   0.030932001613918 1
force Tc   0.139640057149810  -0.105853624240108   0.164564109592696 1
force Tc   0.067553266296311   0.017827964430915  -0.163432441536794 1
force Tc   0.085092534018312  -0.109601259637090   0.122760328422333 1
force Tc  -0.087776557299961   0.179704916094501  -0.157546667592604 1
force Tc  -0.138657456543690   0.246778508257367  -0.083685801256740 1
force Tc  -0.107651999098866   0.116305228076465  -0.051010319641805 1
force Tc   0.022788945409360   0.020656281817972  -0.131104879283728 1
force Tc   0.002856444814194   0.066256601437945   0.313687506279113 1
force Tc   0.271612537494059  -0.204377832432143   0.034666919939033 1
force Tc   0.035219054867811  -0.017960084089470  -0.079380743871608 1
force Tc  -0.101060329939321   0.010846794414183  -0.009920066911828 1
force Tc  -0.058529751152306  -0.038719178600129   0.086306421091219 1
force Tc  -0.117120439728228   0.131351306570291  -0.150431046082762 1
force Tc  -0.000005762677238   0.042469764233046   0.039354057432651 1
force Tc   0.157296505537540  -0.057906632015140  -0.000679997061839 1
force Tc  -0.094012147905989   0.125361631453176   0.042709491314845 1
force Tc   0.018097583068007   0.030712319150547  -0.007643428766279 1
force Tc   0.030052944898806   0.085594626848353   0.082212677003143 1
force Tc   0.118274776931555  -0.119198450505897   0.098615053221053 1
force Tc   0.199402109704709  -0.196189867421166  -0.068188433465567 1
force Tc   0.080583141554391  -0.217226318877798   0.196031161291184 1
force Tc  -0.022691478105318  -0.036972823484516  -0.004427258188087 1
force Tc  -0.022698415344063  -0.056347029399097   0.047383112701399 1
force Tc   0.013787568685157   0.030441148874680  -0.007027673939719 1
force Tc  -0.004037426859465   0.022112109539917  -0.025410008433571 1
force Tc   0.018747930361643  -0.085476417695688   0.062520607656141 1
force Tc  -0.141419982221984   0.064701442979040   0.216600324336401 1
force Tc   0.041887304039731  -0.092444322737424  -0.035697245214886 1
force Tc  -0.026699387722209   0.062971582390405  -0.093736402184842 1
force Tc  -0.048168473794074  -0.014600717747123  -0.050789415872560 1
force Tc  -0.042200742246913  -0.011170332202102  -0.273943123660911 1
force Tc   0.033980563991401  -0.052084117197044   0.069805172296533 1
force Tc  -0.087185619065652   0.005562368989103   0.061460193008898 1
force O  -0.188569765703746  -0.081820992256934   0.068728482252085 1

# Energy components:
   Eewald =    -2583.5625589601781940
       EH =      393.6902892235727904
     Eloc =    -1813.5845664019357173
      Enl =      635.7187497306568957
      Exc =     -578.7360631974280523
 Exc_core =      221.1510199023428811
       KE =      795.2720621206588021
-------------------------------------
     Etot =    -2930.0510675823106794
       TS =        0.3199614457060826
-------------------------------------
        F =    -2930.3710290280168920

IonicMinimize: Iter:   5  F: -2930.371029028016892  |grad|_K:  6.610e-03  alpha:  4.454e-01  linmin: -9.424e-01  t[s]:   6276.97

#--- Lowdin population analysis ---
# oxidation-state Tc +0.013 +0.072 +0.009 +0.013 +0.010 -0.005 +0.017 +0.017 +0.009 +0.074 +0.089 +0.014 +0.017 +0.010 +0.007 +0.022 +0.040 +0.005 +0.021 +0.015 +0.013 +0.001 +0.009 +0.021 +0.015 +0.005 +0.020 +0.023 +0.013 +0.012 +0.009 +0.024 +0.017 +0.068 +0.011 +0.011
# oxidation-state O +0.007


-------- Electronic minimization -----------
Will mix electronic density at each iteration.
	FillingsUpdate:  mu: +0.857098990  nElectrons: 546.000000
	FillingsUpdate:  mu: +0.859502589  nElectrons: 546.000000
SCF: Cycle:  0   F: -2906.367595709239595   dF: +2.160e+01   |Residual|: 1.682e+00   |deigs|: 6.554e-03  t[s]:   6375.71
	FillingsUpdate:  mu: +0.867468827  nElectrons: 546.000000
SCF: Cycle:  1   F: -2871.820419294005660   dF: +3.455e+01   |Residual|: 2.635e+00   |deigs|: 4.312e-02  t[s]:   6446.48
	FillingsUpdate:  mu: +0.860015101  nElectrons: 546.000000
SCF: Cycle:  2   F: -2929.322463074945972   dF: -5.750e+01   |Residual|: 4.349e-01   |deigs|: 5.478e-02  t[s]:   6517.20
	FillingsUpdate:  mu: +0.857899022  nElectrons: 546.000000
SCF: Cycle:  3   F: -2928.510983840061272   dF: +8.115e-01   |Residual|: 5.512e-01   |deigs|: 4.944e-03  t[s]:   6588.76
	FillingsUpdate:  mu: +0.857186568  nElectrons: 546.000000
SCF: Cycle:  4   F: -2930.353662101992995   dF: -1.843e+00   |Residual|: 8.763e-02   |deigs|: 6.347e-03  t[s]:   6659.86
	FillingsUpdate:  mu: +0.857061539  nElectrons: 546.000000
SCF: Cycle:  5   F: -2930.361139072888818   dF: -7.477e-03   |Residual|: 7.149e-02   |deigs|: 1.301e-03  t[s]:   6724.86
	FillingsUpdate:  mu: +0.856942900  nElectrons: 546.000000
SCF: Cycle:  6   F: -2930.380600765064628   dF: -1.946e-02   |Residual|: 3.570e-02   |deigs|: 5.061e-04  t[s]:   6783.13
	FillingsUpdate:  mu: +0.856879705  nElectrons: 546.000000
SCF: Cycle:  7   F: -2930.386002918301529   dF: -5.402e-03   |Residual|: 9.928e-03   |deigs|: 2.654e-04  t[s]:   6847.74
	FillingsUpdate:  mu: +0.856862835  nElectrons: 546.000000
SCF: Cycle:  8   F: -2930.385695069244775   dF: +3.078e-04   |Residual|: 1.012e-02   |deigs|: 6.795e-05  t[s]:   6890.15
	FillingsUpdate:  mu: +0.856866768  nElectrons: 546.000000
SCF: Cycle:  9   F: -2930.386305482077205   dF: -6.104e-04   |Residual|: 1.803e-03   |deigs|: 5.269e-05  t[s]:   6933.90
	FillingsUpdate:  mu: +0.856881053  nElectrons: 546.000000
SCF: Cycle: 10   F: -2930.386307174959256   dF: -1.693e-06   |Residual|: 1.477e-03   |deigs|: 2.157e-05  t[s]:   6977.35
	FillingsUpdate:  mu: +0.856883208  nElectrons: 546.000000
SCF: Cycle: 11   F: -2930.386318899096750   dF: -1.172e-05   |Residual|: 4.624e-04   |deigs|: 7.244e-06  t[s]:   7019.26
	FillingsUpdate:  mu: +0.856879846  nElectrons: 546.000000
SCF: Cycle: 12   F: -2930.386319869093768   dF: -9.700e-07   |Residual|: 2.057e-04   |deigs|: 4.917e-06  t[s]:   7061.18
	FillingsUpdate:  mu: +0.856879318  nElectrons: 546.000000
SCF: Cycle: 13   F: -2930.386319758557875   dF: +1.105e-07   |Residual|: 2.191e-04   |deigs|: 1.831e-06  t[s]:   7104.89
	FillingsUpdate:  mu: +0.856879116  nElectrons: 546.000000
SCF: Cycle: 14   F: -2930.386319999681746   dF: -2.411e-07   |Residual|: 4.070e-05   |deigs|: 1.288e-06  t[s]:   7147.88
	FillingsUpdate:  mu: +0.856879093  nElectrons: 546.000000
SCF: Cycle: 15   F: -2930.386319984464535   dF: +1.522e-08   |Residual|: 5.795e-05   |deigs|: 4.377e-07  t[s]:   7189.34
	FillingsUpdate:  mu: +0.856879085  nElectrons: 546.000000
SCF: Cycle: 16   F: -2930.386320006760798   dF: -2.230e-08   |Residual|: 1.365e-05   |deigs|: 3.764e-07  t[s]:   7231.11
	FillingsUpdate:  mu: +0.856879120  nElectrons: 546.000000
SCF: Cycle: 17   F: -2930.386320007104587   dF: -3.438e-10   |Residual|: 1.046e-05   |deigs|: 2.379e-07  t[s]:   7272.14
	FillingsUpdate:  mu: +0.856879139  nElectrons: 546.000000
SCF: Cycle: 18   F: -2930.386320007571612   dF: -4.670e-10   |Residual|: 4.036e-06   |deigs|: 1.679e-07  t[s]:   7310.21
SCF: Converged (|Delta E|<1.000000e-08 for 2 iters).

Setting wave functions to eigenvectors of Hamiltonian

# Ionic positions in lattice coordinates:
ion Tc   0.112943848446061   0.220670916420114   0.122797170323195 1
ion Tc   0.239717684274428   0.136019460490508   0.356960256908259 1
ion Tc   0.110878587574183   0.221170523507669   0.623327133984602 1
ion Tc   0.223713324654500   0.113342471628013   0.876534100139722 1
ion Tc   0.106821272058463   0.546165814269420   0.122596372535395 1
ion Tc   0.223431770822679   0.442060524555957   0.374000107759072 1
ion Tc   0.111157159708980   0.546855518565029   0.628217372046146 1
ion Tc   0.224260062414071   0.439855087536540   0.873598560257293 1
ion Tc   0.113813779558512   0.885657651294266   0.120271167918866 1
ion Tc   0.239843253026253   0.762337517011379   0.353014276721797 1
ion Tc   0.108844042551952   0.886228621948224   0.661663465280394 1
ion Tc   0.217214159098587   0.770305375743718   0.877628181322327 1
ion Tc   0.450103612226552   0.221816663680456   0.122870801550210 1
ion Tc   0.564545810423841   0.114415689889767   0.371742683588593 1
ion Tc   0.449520136351067   0.225549774995681   0.623188674755136 1
ion Tc   0.555648345004635   0.108928582462585   0.872363601225015 1
ion Tc   0.446621314779013   0.554644989981632   0.120719313672650 1
ion Tc   0.558321264334355   0.446452670431287   0.374156807603427 1
ion Tc   0.445630665201683   0.553696789147806   0.621523500583874 1
ion Tc   0.555413621665467   0.441406234431183   0.872674250890582 1
[...]
force Tc   0.003024088680033  -0.002358106236668   0.002018981188903 1
force Tc   0.006849288526784  -0.007316396944903   0.003095436149532 1
force Tc   0.002987313568819  -0.003867367113420   0.002116746491199 1
force Tc   0.003152536469405  -0.005167100258663   0.003433622263982 1
force Tc   0.001885689483415   0.000785356566430  -0.001526397650153 1
force Tc   0.004347407038637  -0.005084412812915   0.004931385853781 1
force Tc  -0.001240251911502  -0.000492876845819   0.002502635163261 1
force Tc  -0.008419046983259   0.006254892977457   0.007014114683547 1
force Tc  -0.000628246422138  -0.001847003812586  -0.003058462965688 1
force Tc   0.001639846507759  -0.004346641811838   0.006729013964270 1
force Tc   0.002726607826144  -0.002168125416436   0.001281979366767 1
force Tc  -0.000938845225610   0.000875880960686   0.001454947397875 1
force Tc   0.005210600979456  -0.001085585643711  -0.001456481140757 1
force Tc   0.000650826242983  -0.001773604095642   0.003581739705242 1
force Tc   0.001844859530077  -0.001376288847663   0.001006407772564 1
force Tc  -0.000194842563514   0.000492862813523   0.001359917917414 1
force Tc   0.001297803343328  -0.001098539059425  -0.002014531082138 1
force Tc   0.004911339961812  -0.002163957150756  -0.001185516618723 1
force Tc   0.002163953005235  -0.002650864179576  -0.003436103194004 1
force Tc  -0.002806153987942   0.002437131236681  -0.000283032924658 1
force Tc  -0.003173926810409   0.000374716193515  -0.000105857659364 1
force Tc   0.001664612539702  -0.002734061850496  -0.006842547174355 1
force Tc   0.003969423593721  -0.003630300325125  -0.001253239589532 1
force Tc   0.000361490907467   0.000125976868876  -0.000576186768879 1
force Tc   0.000918829429152  -0.002366053069739   0.000809143852110 1
force Tc   0.005064701139347  -0.001132040126643  -0.000539270164019 1
force Tc   0.002057373250434  -0.004577648431911  -0.003251292134836 1
force Tc  -0.002997263012809  -0.000150548397707   0.004024772777093 1
force Tc   0.003196484207053  -0.000441910639394  -0.000204913406052 1
force Tc   0.004116397557552  -0.005947646262744   0.003789006356041 1
force Tc   0.001321134907744  -0.001270586185206  -0.007538349958053 1
force Tc  -0.005043821471632   0.002963448893109  -0.002623948279484 1
force Tc   0.000101314372927   0.000810577284337  -0.002447111933468 1
force Tc   0.002161189442609  -0.001393526513272   0.000654459194418 1
force O  -0.001077959502497  -0.008935279251236  -0.004071348621061 1

# Energy components:
   Eewald =    -2584.4363274161373738
       EH =      392.8888556332568101
     Eloc =    -1811.8085902044188060
      Enl =      635.6682058560954829
      Exc =     -578.7038330914483595
 Exc_core =      221.1510949081713306
       KE =      795.1676680360484397
-------------------------------------
     Etot =    -2930.0729262784329876
       TS =        0.3196802414765190
-------------------------------------
        F =    -2930.3926065199093500

IonicMinimize: Iter:  13  F: -2930.392606519909350  |grad|_K:  1.910e-04  alpha:  1.000e+00  linmin: -5.866e-01  t[s]:  13128.45

#--- Lowdin population analysis ---
# oxidation-state Tc +0.013 +0.075 +0.010 +0.014 +0.013 +0.002 +0.010 +0.012 +0.008 +0.075 +0.095 +0.014 +0.013 +0.009 +0.010 +0.026 +0.047 +0.002 +0.018 +0.013 +0.013 +0.002 +0.010 +0.012 +0.013 +0.009 +0.020 +0.026 +0.013 +0.009 +0.010 +0.027 +0.013 +0.075 +0.010 +0.014
# oxidation-state O -0.012


-------- Electronic minimization -----------
Will mix electronic density at each iteration.
	FillingsUpdate:  mu: +0.856801650  nElectrons: 546.000000
	FillingsUpdate:  mu: +0.856799940  nElectrons: 546.000000
SCF: Cycle:  0   F: -2930.392595653810076   dF: -5.726e-05   |Residual|: 2.497e-03   |deigs|: 1.689e-06  t[s]:  13199.45
	FillingsUpdate:  mu: +0.856800212  nElectrons: 546.000000
SCF: Cycle:  1   F: -2930.392525505618778   dF: +7.015e-05   |Residual|: 3.735e-03   |deigs|: 2.597e-05  t[s]:  13242.15
	FillingsUpdate:  mu: +0.856799978  nElectrons: 546.000000
SCF: Cycle:  2   F: -2930.392628695592066   dF: -1.032e-04   |Residual|: 8.038e-04   |deigs|: 1.864e-05  t[s]:  13284.38
	FillingsUpdate:  mu: +0.856799678  nElectrons: 546.000000
SCF: Cycle:  3   F: -2930.392629520221362   dF: -8.246e-07   |Residual|: 5.132e-04   |deigs|: 3.486e-06  t[s]:  13327.95
	FillingsUpdate:  mu: +0.856799804  nElectrons: 546.000000
SCF: Cycle:  4   F: -2930.392630747337080   dF: -1.227e-06   |Residual|: 2.106e-04   |deigs|: 3.226e-06  t[s]:  13370.32
	FillingsUpdate:  mu: +0.856799930  nElectrons: 546.000000
SCF: Cycle:  5   F: -2930.392630901757911   dF: -1.544e-07   |Residual|: 8.015e-05   |deigs|: 1.388e-06  t[s]:  13412.95
	FillingsUpdate:  mu: +0.856799831  nElectrons: 546.000000
SCF: Cycle:  6   F: -2930.392630914897836   dF: -1.314e-08   |Residual|: 5.275e-05   |deigs|: 7.545e-07  t[s]:  13454.75
	FillingsUpdate:  mu: +0.856799824  nElectrons: 546.000000
SCF: Cycle:  7   F: -2930.392630928550716   dF: -1.365e-08   |Residual|: 1.291e-05   |deigs|: 3.040e-07  t[s]:  13497.33
	FillingsUpdate:  mu: +0.856799828  nElectrons: 546.000000
SCF: Cycle:  8   F: -2930.392630928487961   dF: +6.276e-11   |Residual|: 8.889e-06   |deigs|: 9.035e-08  t[s]:  13539.31
	FillingsUpdate:  mu: +0.856799827  nElectrons: 546.000000
SCF: Cycle:  9   F: -2930.392630928796734   dF: -3.088e-10   |Residual|: 3.721e-06   |deigs|: 4.558e-08  t[s]:  13578.28
	FillingsUpdate:  mu: +0.856799829  nElectrons: 546.000000
SCF: Cycle: 10   F: -2930.392630928820836   dF: -2.410e-11   |Residual|: 1.423e-06   |deigs|: 1.939e-08  t[s]:  13609.37
SCF: Converged (|Delta E|<1.000000e-08 for 2 iters).

Setting wave functions to eigenvectors of Hamiltonian

# Ionic positions in lattice coordinates:
ion Tc   0.109041177077966   0.222437676497875   0.121456533328350 1
ion Tc   0.234757508138089   0.131493854137217   0.353624616751625 1
ion Tc   0.112965092004895   0.222524510876161   0.623075246647442 1
ion Tc   0.226826878334906   0.116417333544541   0.879392560033844 1
ion Tc   0.109281978367925   0.549156779440301   0.121673037457607 1
ion Tc   0.223241594633902   0.442612302733148   0.374860950314932 1
ion Tc   0.112890450232683   0.552015820128990   0.623216505046068 1
ion Tc   0.223611385881454   0.442900220472359   0.871100670863132 1
ion Tc   0.112600423230807   0.887215715944313   0.117177210470816 1
ion Tc   0.234628872498912   0.765420993285141   0.353973036827212 1
ion Tc   0.112545647230431   0.887174650973169   0.667476814835619 1
ion Tc   0.227051955918266   0.772737266065001   0.879448531450345 1
ion Tc   0.450748132198985   0.222304142701025   0.121321446868314 1
ion Tc   0.561168044501994   0.111354978739783   0.373556289293792 1
ion Tc   0.447549349254749   0.222612343891017   0.623125223525246 1
ion Tc   0.557936280084139   0.109849660273943   0.869516662916021 1
ion Tc   0.445707312093526   0.553741153011899   0.122214407469696 1
ion Tc   0.557391370359480   0.442357900123878   0.374780608126066 1
ion Tc   0.445733799568784   0.553657546843902   0.622553150697489 1
ion Tc   0.556792287413035   0.442668456852452   0.871262046714109 1
ion Tc   0.450903329033780   0.890437744093268   0.121827845022847 1
ion Tc   0.557209058721609   0.776163817018672   0.374869269412363 1
ion Tc   0.447549302017657   0.886427525085750   0.623298054670485 1
ion Tc   0.556798717822682   0.775784146729541   0.871529519254156 1
ion Tc   0.779009606558679   0.220647637901189   0.120047541973944 1
ion Tc   0.888367067630806   0.111374041778403   0.373425360363693 1
ion Tc   0.779114793894871   0.220292138718026   0.622149648830798 1
ion Tc   0.889486181625523   0.109813793539407   0.869527239757014 1
ion Tc   0.777337183312686   0.549167575058838   0.121681128288317 1
ion Tc   0.888409259548675   0.438699725191216   0.373534555977943 1
ion Tc   0.776941688843420   0.551823379645170   0.623101357143333 1
ion Tc   0.889630216819075   0.441584589906559   0.869769758482507 1
ion Tc   0.777507748035197   0.890485353455425   0.121865394975391 1
ion Tc   0.868800655175083   0.765201745848165   0.354184365099220 1
ion Tc   0.776894715187775   0.886375330431479   0.623255602963637 1
ion Tc   0.883160080873585   0.772608225153986   0.879386550505873 1
ion O   0.112900855873970   0.887769923908789   0.449611257640754 1

# Forces in Lattice coordinates:
force Tc   0.002123070991645  -0.001671976524490   0.000592043274228 1
force Tc   0.000326711986067  -0.001284602928077  -0.001514208875345 1
force Tc   0.002803886887667  -0.000910402866084   0.001772996300918 1
force Tc   0.003862224168353  -0.003583152264226   0.000424872400376 1
force Tc   0.001952553649740  -0.002989090269872   0.001869632836132 1
force Tc   0.001852707931751  -0.001561483519415   0.000990604436216 1
force Tc   0.001227934041568  -0.000391030425519   0.001019217868364 1
force Tc   0.003507592121597  -0.005524352262691   0.002338492080922 1
force Tc   0.001814491869441  -0.002769480856741  -0.000412686759632 1
force Tc  -0.002666920145638  -0.000338702343044   0.000504675524301 1
force Tc   0.000726598447719  -0.002490131808396  -0.004658611849424 1
force Tc   0.000805439544818  -0.001403920603235   0.002211136478829 1
force Tc   0.002227746807796  -0.001114191115553   0.002925058825971 1
force Tc   0.000220813091770  -0.001826352659585   0.002437519776403 1
force Tc   0.000686100040956  -0.001340825425334  -0.001369043393159 1
force Tc   0.003611204127705  -0.004360801510048   0.000752176520644 1
force Tc   0.002468013749083  -0.002447808404558   0.003150711738577 1
force Tc   0.000435572057176  -0.000274776192981   0.001538726592402 1
force Tc   0.001832214305952  -0.001757073098778   0.000019305423134 1
force Tc   0.001403447353558  -0.001765146874839   0.000759408715271 1
force Tc  -0.000145846949515  -0.000356004050862  -0.000942913527586 1
force Tc  -0.001596908782468   0.001830359570928  -0.000555513022375 1
force Tc  -0.001533066758592   0.000559851335868  -0.000267975586513 1
force Tc   0.002023565820808  -0.001122870033823  -0.002901878856084 1
force Tc   0.003316301217263  -0.002445601836319   0.000931365294211 1
force Tc   0.000281628272577  -0.000198524589546   0.001254050438988 1
force Tc   0.002281258634713  -0.002459209062561   0.000017103784370 1
force Tc   0.002216093872204  -0.001508059339367   0.000581457943323 1
force Tc   0.003883182931452  -0.004743115233942  -0.001581044931889 1
force Tc   0.001859051461899  -0.002048708266993   0.000173219701179 1
force Tc  -0.000575038654736   0.001967313639151   0.001399995002181 1
force Tc   0.003337333243295  -0.003262238998893  -0.001031387809498 1
force Tc  -0.000956967979448  -0.000045026930417  -0.004016063453430 1
force Tc  -0.002241466711865   0.000631784947715  -0.005414230496378 1
force Tc   0.002061451390788  -0.001678279012347  -0.000704200470727 1
force Tc   0.003384312868894  -0.002805052711724   0.002342695312772 1
force O   0.000412337440922  -0.001531620361176   0.002725886865612 1

# Energy components:
   Eewald =    -2584.4441492952214503
       EH =      392.8816038572712728
     Eloc =    -1811.7928769944437590
      Enl =      635.6680501550335975
      Exc =     -578.7035914955592943
 Exc_core =      221.1511029563400825
       KE =      795.1669336765993421
-------------------------------------
     Etot =    -2930.0729271399800382
       TS =        0.3197037888409682
-------------------------------------
        F =    -2930.3926309288208358

IonicMinimize: Iter:  14  F: -2930.392630928820836  |grad|_K:  1.045e-04  alpha:  1.000e+00  linmin: -3.179e-01  t[s]:  13619.94

#--- Lowdin population analysis ---
# oxidation-state Tc +0.013 +0.075 +0.010 +0.014 +0.013 +0.002 +0.010 +0.013 +0.008 +0.075 +0.095 +0.014 +0.013 +0.009 +0.010 +0.026 +0.047 +0.002 +0.018 +0.013 +0.013 +0.002 +0.010 +0.012 +0.013 +0.009 +0.020 +0.026 +0.013 +0.009 +0.010 +0.026 +0.013 +0.075 +0.010 +0.014
# oxidation-state O -0.012


-------- Electronic minimization -----------
Will mix electronic density at each iteration.
	FillingsUpdate:  mu: +0.856799829  nElectrons: 546.000000
	FillingsUpdate:  mu: +0.856800681  nElectrons: 546.000000
SCF: Cycle:  0   F: -2930.392627103150517   dF: -2.657e-05   |Residual|: 1.530e-03   |deigs|: 7.580e-07  t[s]:  13689.98
	FillingsUpdate:  mu: +0.856800659  nElectrons: 546.000000
SCF: Cycle:  1   F: -2930.392597895661311   dF: +2.921e-05   |Residual|: 2.387e-03   |deigs|: 1.306e-05  t[s]:  13731.35
	FillingsUpdate:  mu: +0.856801000  nElectrons: 546.000000
SCF: Cycle:  2   F: -2930.392638623350649   dF: -4.073e-05   |Residual|: 5.063e-04   |deigs|: 8.734e-06  t[s]:  13773.13
	FillingsUpdate:  mu: +0.856800701  nElectrons: 546.000000
SCF: Cycle:  3   F: -2930.392639086926920   dF: -4.636e-07   |Residual|: 2.213e-04   |deigs|: 2.142e-06  t[s]:  13815.70
	FillingsUpdate:  mu: +0.856800819  nElectrons: 546.000000
SCF: Cycle:  4   F: -2930.392639199655150   dF: -1.127e-07   |Residual|: 1.525e-04   |deigs|: 1.665e-06  t[s]:  13858.34
	FillingsUpdate:  mu: +0.856800967  nElectrons: 546.000000
SCF: Cycle:  5   F: -2930.392639341409449   dF: -1.418e-07   |Residual|: 4.446e-05   |deigs|: 1.035e-06  t[s]:  13899.79
	FillingsUpdate:  mu: +0.856800898  nElectrons: 546.000000
SCF: Cycle:  6   F: -2930.392639344537201   dF: -3.128e-09   |Residual|: 2.822e-05   |deigs|: 5.306e-07  t[s]:  13941.14
	FillingsUpdate:  mu: +0.856800903  nElectrons: 546.000000
SCF: Cycle:  7   F: -2930.392639348928697   dF: -4.391e-09   |Residual|: 9.130e-06   |deigs|: 1.661e-07  t[s]:  13983.22
SCF: Converged (|Delta E|<1.000000e-08 for 2 iters).

Setting wave functions to eigenvectors of Hamiltonian

# Ionic positions in lattice coordinates:
ion Tc   0.109112346178280   0.222434200101011   0.121466172878417 1
ion Tc   0.234698758588015   0.131507818586791   0.353631796939147 1
ion Tc   0.113116536081287   0.222586463321522   0.623132688016586 1
ion Tc   0.227005879395316   0.116338907596538   0.879403929510500 1
ion Tc   0.109317055678208   0.549129500395678   0.121821157341543 1
ion Tc   0.223212194673276   0.442636710900069   0.374892641698303 1
ion Tc   0.112936062553268   0.552050723659264   0.623283925078519 1
ion Tc   0.223761545212033   0.442825080333592   0.871218868735884 1
ion Tc   0.112569930094877   0.887172072773339   0.117202506845545 1
ion Tc   0.234360064451816   0.765447162981126   0.354082423924302 1
ion Tc   0.112570045518386   0.887169108839753   0.667439913901347 1
ion Tc   0.227055235943697   0.772645775143979   0.879593977052277 1
ion Tc   0.450803688055409   0.222315157527599   0.121391682684469 1
ion Tc   0.561067931771593   0.111335828580765   0.373587239646720 1
ion Tc   0.447624484601307   0.222629493939568   0.623095145538318 1
ion Tc   0.558021788299474   0.109785074202535   0.869598324000805 1
ion Tc   0.445775512631953   0.553744367161314   0.122252966763048 1
ion Tc   0.557333196120943   0.442397379260459   0.374817745781564 1
ion Tc   0.445780722636393   0.553691305544309   0.622527896130242 1
ion Tc   0.556942202876009   0.442698839443478   0.871230579103799 1
ion Tc   0.450818368192427   0.890390903117025   0.121834475158781 1
ion Tc   0.556985892500884   0.776258146463728   0.374857821956478 1
ion Tc   0.447458987905239   0.886465099627897   0.623308817099702 1
ion Tc   0.556906074485158   0.775814314003479   0.871350777594758 1
ion Tc   0.779092836040183   0.220625825126992   0.120050973543066 1
ion Tc   0.888299794078635   0.111400543392677   0.373426552572985 1
ion Tc   0.779183946208858   0.220293313503178   0.622173438336111 1
ion Tc   0.889650936171265   0.109855260348902   0.869474976059022 1
ion Tc   0.777359564639837   0.549048777719025   0.121573403428675 1
ion Tc   0.888333492559382   0.438705898740635   0.373571625172832 1
ion Tc   0.777036288505579   0.551961335427140   0.623102860607167 1
ion Tc   0.889799016217390   0.441550971869207   0.869771637267606 1
ion Tc   0.777428781637102   0.890529737254339   0.121647667632442 1
ion Tc   0.868461215566579   0.765157342495525   0.353935975819295 1
ion Tc   0.776911903116837   0.886396820901189   0.623171294678203 1
ion Tc   0.883296073925566   0.772628655235422   0.879365434523173 1
ion O   0.112401646887544   0.887686084480948   0.449580686978369 1

# Forces in Lattice coordinates:
force Tc   0.001742953553188  -0.001850614555413   0.000400769034095 1
force Tc   0.000591750712375  -0.003519281763612   0.000334600390275 1
force Tc   0.001683561330264  -0.000900660867741   0.000664409092021 1
force Tc   0.001871652001657  -0.001792405205961   0.000600307260112 1
force Tc   0.001653426566396  -0.002356823278260   0.000423826382036 1
force Tc   0.001650414846741  -0.001190702628632   0.000046305527739 1
force Tc   0.001158636693105  -0.001359571327075   0.000525658211154 1
force Tc   0.002412370614272  -0.003404964209366   0.000923110096926 1
force Tc   0.001936928585848  -0.002008746300954  -0.001025895930671 1
force Tc  -0.000250026487488  -0.000731689738871  -0.000024327415004 1
force Tc   0.001202183090339  -0.002562793817099  -0.002551115692102 1
force Tc   0.001343088272978  -0.001151174713584  -0.000878220734477 1
force Tc   0.001736023353791  -0.001652813299614   0.001479179845311 1
force Tc   0.001360223686928  -0.001411449569785   0.000972666545327 1
force Tc   0.000436669454752  -0.001075629178271  -0.000074393657247 1
force Tc   0.002727420633716  -0.002879345193724   0.000299159604649 1
force Tc   0.002006983673041  -0.001676989679137   0.002344624996761 1
force Tc   0.001190500762796  -0.001282522748656   0.001095497112852 1
force Tc   0.001481143194520  -0.001657222104730   0.000534550631366 1
force Tc   0.000981125257153  -0.002032461150914   0.000832404702524 1
force Tc   0.000542185681890  -0.000655074520647  -0.000060117186867 1
force Tc   0.000984188868489  -0.000595827446523  -0.000128219037978 1
force Tc   0.000601496663735  -0.000545302964262   0.000201695217068 1
force Tc   0.000854009005479  -0.001189531232306   0.000179734767896 1
force Tc   0.001618735234221  -0.001667938627498   0.001502337447211 1
force Tc   0.001022328728283  -0.000772143816650   0.000984272635439 1
force Tc   0.001636440526237  -0.001722237542957  -0.000772880605910 1
force Tc   0.001750854946051  -0.001793834854833   0.000439435999260 1
force Tc   0.003023080319382  -0.002548869632683  -0.000586126803467 1
force Tc   0.002273359114373  -0.002333802670291   0.000220888373288 1
force Tc  -0.000459448374927   0.000011838199443   0.000966707292058 1
force Tc   0.001859078429915  -0.001924334583290  -0.001351631452114 1
force Tc  -0.000030393812762  -0.000917220200115  -0.000458183999569 1
force Tc  -0.000020604370392  -0.001224672437383  -0.002979306199903 1
force Tc   0.002282048439104  -0.001991060641895  -0.000006618986023 1
force Tc   0.002954202545449  -0.002708502070601   0.001377545781730 1
force O   0.001956955966249  -0.000307113688647   0.000922656283231 1

# Energy components:
   Eewald =    -2584.4461076308202792
       EH =      392.8799438287966836
     Eloc =    -1811.7890288286430405
      Enl =      635.6679748394869875
      Exc =     -578.7035002518251758
 Exc_core =      221.1511046004243326
       KE =      795.1666826151426903
-------------------------------------
     Etot =    -2930.0729308274380855
       TS =        0.3197085214907981
-------------------------------------
        F =    -2930.3926393489286966

IonicMinimize: Iter:  15  F: -2930.392639348928697  |grad|_K:  5.529e-05  alpha:  1.000e+00  linmin: -2.271e-01  t[s]:  13993.75
IonicMinimize: Converged (|grad|_K<1.000000e-04).

#--- Lowdin population analysis ---
# oxidation-state Tc +0.013 +0.075 +0.010 +0.014 +0.013 +0.002 +0.010 +0.013 +0.008 +0.075 +0.095 +0.014 +0.013 +0.009 +0.010 +0.026 +0.047 +0.002 +0.018 +0.013 +0.013 +0.002 +0.010 +0.012 +0.013 +0.009 +0.021 +0.026 +0.013 +0.009 +0.010 +0.026 +0.013 +0.075 +0.010 +0.014
# oxidation-state O -0.012


Dumping '/data/rc652/Tc/tet/Tc_tet.Ecomponents' ... done
End date and time: Fri Jun 28 19:04:17 2024  (Duration: 0-3:53:20.48)
Done!
