--------------------------------------------------------------------------
[[7469,1],1]: A high-performance Open MPI point-to-point messaging module
was unable to find any relevant network interfaces:

Module: OpenFabrics (openib)
  Host: node3219

Another transport will be used instead, although this may result in
lower performance.
--------------------------------------------------------------------------

*************** JDFTx 1.7.0  ***************

Start date and time: Tue Mar 12 10:26:30 2024
Executable jdftx with command-line: -i /home/cam559/Valla_project/Zr/Zr8O15.in
Running on hosts (process indices):  node3219.physics.cornell.edu (0-9)
Divided in process groups (process indices):  0 (0)  1 (1)  2 (2)  3 (3)  4 (4)  5 (5)  6 (6)  7 (7)  8 (8)  9 (9)
Resource initialization completed at t[s]:      0.00
Run totals: 10 processes, 40 threads, 0 GPUs


Input parsed successfully to the following command list (including defaults):

basis kpoint-dependent
coords-type Cartesian
core-overlap-check vector
coulomb-interaction Periodic
davidson-band-ratio 1.1
dump End Ecomponents
dump-name Zr8O15.$VAR
elec-cutoff 20 100
elec-eigen-algo Davidson
elec-ex-corr gga-PBE
elec-smearing Fermi 0.004
electronic-minimize  \
	dirUpdateScheme      FletcherReeves \
	linminMethod         DirUpdateRecommended \
	nIterations          100 \
	history              15 \
	knormThreshold       0 \
	energyDiffThreshold  1e-08 \
	nEnergyDiff          2 \
	alphaTstart          1 \
	alphaTmin            1e-10 \
	updateTestStepSize   yes \
	alphaTreduceFactor   0.1 \
	alphaTincreaseFactor 3 \
	nAlphaAdjustMax      3 \
	wolfeEnergy          0.0001 \
	wolfeGradient        0.9 \
	fdTest               no
exchange-regularization WignerSeitzTruncated
fluid None
fluid-ex-corr lda-TF lda-PZ
fluid-gummel-loop 10 1.000000e-05
fluid-minimize  \
	dirUpdateScheme      PolakRibiere \
	linminMethod         DirUpdateRecommended \
	nIterations          100 \
	history              15 \
	knormThreshold       0 \
	energyDiffThreshold  0 \
	nEnergyDiff          2 \
	alphaTstart          1 \
	alphaTmin            1e-10 \
	updateTestStepSize   yes \
	alphaTreduceFactor   0.1 \
	alphaTincreaseFactor 3 \
	nAlphaAdjustMax      3 \
	wolfeEnergy          0.0001 \
	wolfeGradient        0.9 \
	fdTest               no
fluid-solvent H2O 55.338 ScalarEOS \
	epsBulk 78.4 \
	pMol 0.92466 \
	epsInf 1.77 \
	Pvap 1.06736e-10 \
	sigmaBulk 4.62e-05 \
	Rvdw 2.61727 \
	Res 1.42 \
	tauNuc 343133 \
	poleEl 15 7 1
forces-output-coords Positions
initial-state Zr8O15.$VAR
ion Zr   0.000000000000000   0.000000000000000   0.000000000000000 1
ion Zr   0.000000000000000   0.000000000000000   6.801647000000001 1
ion Zr   1.963467000000000   5.553521000000001   3.400822000000000 1
ion Zr   1.963467000000000   5.553521000000001  10.202469000000001 1
ion Zr   5.890399000000000   0.000000000000000   3.400821999999999 1
ion Zr   5.890399000000000   0.000000000000000  10.202469000000001 1
ion Zr   7.853866000000001   5.553521000000001   6.801645000000001 1
ion Zr   7.853866000000001   5.553521000000001  13.603291000000002 1
ion O   1.963467000000000   1.388380000000000   3.400823000000000 1
ion O   5.890400000000001   4.165141000000001  10.202469000000001 1
ion O   1.963467000000000   1.388380000000000  10.202470000000000 1
ion O   5.890400000000001   4.165141000000001  17.004114999999999 1
ion O   3.926934000000001   6.941901000000001   6.801645000000001 1
ion O   7.853867000000001   9.718662000000002  13.603291000000000 1
ion O   3.926934000000001   6.941901000000001  13.603292000000000 1
ion O   7.853867000000001   9.718662000000002  20.404938000000001 1
ion O   7.853865000000002   1.388380000000000   6.801645000000001 1
ion O  11.780798000000003   4.165141000000001  13.603291000000000 1
ion O   7.853865000000002   1.388380000000000  13.603292000000000 1
ion O  11.780798000000003   4.165141000000001  20.404938000000001 1
ion O   9.817333000000001   6.941901000000001  10.202468000000000 1
ion O  13.744266000000001   9.718662000000002  17.004113000000004 1
ion O   9.817333000000001   6.941901000000001  17.004114000000001 1
ion-species GBRV/$ID_pbe.uspp
ion-width 0
ionic-minimize  \
	dirUpdateScheme      L-BFGS \
	linminMethod         DirUpdateRecommended \
	nIterations          30 \
	history              15 \
	knormThreshold       0.0001 \
	energyDiffThreshold  1e-05 \
	nEnergyDiff          2 \
	alphaTstart          1 \
	alphaTmin            1e-10 \
	updateTestStepSize   yes \
	alphaTreduceFactor   0.1 \
	alphaTincreaseFactor 3 \
	nAlphaAdjustMax      3 \
	wolfeEnergy          0.0001 \
	wolfeGradient        0.9 \
	fdTest               no
kpoint   0.000000000000   0.000000000000   0.000000000000  1.00000000000000
kpoint-folding 4 4 4 
latt-move-scale 1 1 1
latt-scale 1 1 1 
lattice  \
	  11.780797000000000    3.926935000000000   -0.000000000000000  \
	   0.000000000000000   11.107042000000000   -0.000000000000000  \
	   6.801645000000000    6.801645000000000   13.603293000000001 
lattice-minimize  \
	dirUpdateScheme      L-BFGS \
	linminMethod         DirUpdateRecommended \
	nIterations          0 \
	history              15 \
	knormThreshold       0 \
	energyDiffThreshold  1e-06 \
	nEnergyDiff          2 \
	alphaTstart          1 \
	alphaTmin            1e-10 \
	updateTestStepSize   yes \
	alphaTreduceFactor   0.1 \
	alphaTincreaseFactor 3 \
	nAlphaAdjustMax      3 \
	wolfeEnergy          0.0001 \
	wolfeGradient        0.9 \
	fdTest               no
lcao-params -1 1e-06 0.004
pcm-variant GLSSA13
spintype no-spin
subspace-rotation-factor 1 yes
symmetries automatic
symmetry-threshold 0.0001



---------- Setting up symmetries ----------

Found 48 point-group symmetries of the bravais lattice
Found 24 space-group symmetries with basis
Applied RMS atom displacement 4.88661e-07 bohrs to make symmetries exact.

---------- Initializing the Grid ----------
R = 
[      11.7808      3.92693            0  ]
[            0       11.107            0  ]
[      6.80164      6.80164      13.6033  ]
unit cell volume = 1779.99
G =
[   0.533341  -0.188565          0  ]
[         -0   0.565694          0  ]
[  -0.266671  -0.188565   0.461887  ]
Minimum fftbox size, Smin = [  64  64  64  ]
Chosen fftbox size, S = [  64  64  64  ]

---------- Initializing tighter grid for wavefunction operations ----------
R = 
[      11.7808      3.92693            0  ]
[            0       11.107            0  ]
[      6.80164      6.80164      13.6033  ]
unit cell volume = 1779.99
G =
[   0.533341  -0.188565          0  ]
[         -0   0.565694          0  ]
[  -0.266671  -0.188565   0.461887  ]
Minimum fftbox size, Smin = [  56  56  56  ]
Chosen fftbox size, S = [  56  56  56  ]

---------- Exchange Correlation functional ----------
Initalized PBE GGA exchange.
Initalized PBE GGA correlation.

---------- Setting up pseudopotentials ----------
Width of ionic core gaussian charges (only for fluid interactions / plotting) set to 0

Reading pseudopotential file '/home/cam559/JDFTx/build/pseudopotentials/GBRV/zr_pbe.uspp':
  Title: Zr.  Created by USPP 7.3.6 on 14-9-2013
  Reference state energy: -49.308156.  12 valence electrons in orbitals:
    |400>  occupation: 2  eigenvalue: -2.002953
    |410>  occupation: 6  eigenvalue: -1.192957
    |420>  occupation: 2  eigenvalue: -0.132269
    |500>  occupation: 2  eigenvalue: -0.163143
    |510>  occupation: 0  eigenvalue: -0.053997
  lMax: 2  lLocal: 3  QijEcut: 5
  6 projectors sampled on a log grid with 625 points:
    l: 0  eig: -2.002953  rCut: 1.8
    l: 0  eig: -0.132269  rCut: 1.8
    l: 1  eig: -1.192956  rCut: 2
    l: 1  eig: 0.150000  rCut: 2
    l: 2  eig: -0.163145  rCut: 2.2
    l: 2  eig: 0.150000  rCut: 2.2
  Partial core density with radius 1.2
  Transforming core density to a uniform radial grid of dG=0.02 with 1739 points.
  Transforming local potential to a uniform radial grid of dG=0.02 with 1739 points.
  Transforming nonlocal projectors to a uniform radial grid of dG=0.02 with 432 points.
  Transforming density augmentations to a uniform radial grid of dG=0.02 with 1739 points.
  Transforming atomic orbitals to a uniform radial grid of dG=0.02 with 432 points.
  Core radius for overlap checks: 2.20 bohrs.

Reading pseudopotential file '/home/cam559/JDFTx/build/pseudopotentials/GBRV/o_pbe.uspp':
  Title: O.  Created by USPP 7.3.6 on 3-2-2014
  Reference state energy: -15.894388.  6 valence electrons in orbitals:
    |200>  occupation: 2  eigenvalue: -0.878823
    |210>  occupation: 4  eigenvalue: -0.332131
  lMax: 2  lLocal: 2  QijEcut: 6
  5 projectors sampled on a log grid with 511 points:
    l: 0  eig: -0.878823  rCut: 1.25
    l: 0  eig: 0.000000  rCut: 1.25
    l: 1  eig: -0.332132  rCut: 1.25
    l: 1  eig: 0.000000  rCut: 1.25
    l: 2  eig: 1.000000  rCut: 1.25
  Partial core density with radius 0.7
  Transforming core density to a uniform radial grid of dG=0.02 with 1739 points.
  Transforming local potential to a uniform radial grid of dG=0.02 with 1739 points.
  Transforming nonlocal projectors to a uniform radial grid of dG=0.02 with 432 points.
  Transforming density augmentations to a uniform radial grid of dG=0.02 with 1739 points.
  Transforming atomic orbitals to a uniform radial grid of dG=0.02 with 432 points.
  Core radius for overlap checks: 1.25 bohrs.

Initialized 2 species with 23 total atoms.

Folded 1 k-points by 4x4x4 to 64 k-points.

---------- Setting up k-points, bands, fillings ----------
Adding inversion symmetry to k-mesh for non-inversion-symmetric unit cell.
Reduced to 8 k-points under symmetry. 
Computing the number of bands and number of electrons
Calculating initial fillings.
nElectrons: 186.000000   nBands: 164   nStates: 8

----- Setting up reduced wavefunction bases (one per k-point) -----
average nbasis = 7602.641 , ideal nbasis = 7604.246

---------- Setting up ewald sum ----------
Optimum gaussian width for ewald sums = 2.907881 bohr.
Real space sum over 729 unit cells with max indices [  4  4  4  ]
Reciprocal space sum over 6859 terms with max indices [  9  9  9  ]

---------- Allocating electronic variables ----------
Initializing wave functions:  linear combination of atomic orbitals
Zr pseudo-atom occupations:   s ( 2 2 )  p ( 6 0 )  d ( 2 )
O pseudo-atom occupations:   s ( 2 )  p ( 4 )
	FillingsUpdate:  mu: +0.575498975  nElectrons: 186.000000
LCAOMinimize: Iter:   0  F: -617.3684159639955169  |grad|_K:  7.646e-03  alpha:  1.000e+00
	FillingsUpdate:  mu: +0.559491157  nElectrons: 186.000000
LCAOMinimize: Iter:   1  F: -618.6654442279590285  |grad|_K:  5.859e-03  alpha:  1.101e-01  linmin: -3.781e-01  cgtest:  9.206e-01  t[s]:     22.16
LCAOMinimize: Encountered beta<0, resetting CG.
LCAOMinimize: 	Predicted alpha/alphaT>3.000000, increasing alphaT to 3.304232e-01.
	FillingsUpdate:  mu: +0.573362348  nElectrons: 186.000000
LCAOMinimize: Iter:   2  F: -619.9677037328468714  |grad|_K:  1.746e-03  alpha:  3.718e-01  linmin:  3.717e-01  cgtest: -7.421e-01  t[s]:     30.59
LCAOMinimize: 	Bad step direction: g.d > 0.
LCAOMinimize: 	Undoing step.
LCAOMinimize: 	Step failed: resetting search direction.
	FillingsUpdate:  mu: +0.573362348  nElectrons: 186.000000
LCAOMinimize: Iter:   3  F: -619.9677037328468714  |grad|_K:  1.746e-03  alpha:  0.000e+00
	FillingsUpdate:  mu: +0.562490221  nElectrons: 186.000000
LCAOMinimize: Iter:   4  F: -620.0481915798206956  |grad|_K:  1.764e-04  alpha:  2.540e-01  linmin: -2.023e-02  cgtest:  3.748e-02  t[s]:     41.88
	FillingsUpdate:  mu: +0.561257845  nElectrons: 186.000000
LCAOMinimize: Iter:   5  F: -620.0490617151765491  |grad|_K:  5.087e-05  alpha:  2.559e-01  linmin:  7.946e-03  cgtest: -2.307e-02  t[s]:     48.61
	FillingsUpdate:  mu: +0.560656351  nElectrons: 186.000000
LCAOMinimize: Iter:   6  F: -620.0492381758220972  |grad|_K:  1.724e-05  alpha:  6.307e-01  linmin:  1.223e-03  cgtest:  1.537e-02  t[s]:     55.73
	FillingsUpdate:  mu: +0.560655722  nElectrons: 186.000000
LCAOMinimize: Iter:   7  F: -620.0492490200687143  |grad|_K:  6.527e-06  alpha:  3.354e-01  linmin: -1.551e-04  cgtest:  5.064e-03  t[s]:     62.05
	FillingsUpdate:  mu: +0.560660691  nElectrons: 186.000000
LCAOMinimize: Iter:   8  F: -620.0492509538288459  |grad|_K:  1.865e-06  alpha:  4.168e-01  linmin:  8.075e-05  cgtest: -1.405e-03  t[s]:     68.56
	FillingsUpdate:  mu: +0.560663445  nElectrons: 186.000000
LCAOMinimize: Iter:   9  F: -620.0492510639276134  |grad|_K:  5.275e-07  alpha:  2.908e-01  linmin:  1.642e-05  cgtest:  1.534e-04  t[s]:     75.04
	FillingsUpdate:  mu: +0.560666009  nElectrons: 186.000000
LCAOMinimize: Iter:  10  F: -620.0492510828631794  |grad|_K:  3.101e-07  alpha:  6.253e-01  linmin:  1.613e-04  cgtest: -7.097e-04  t[s]:     81.75
LCAOMinimize: Converged (|Delta F|<1.000000e-06 for 2 iters).


---- Citations for features of the code used in this run ----

   Software package:
      R. Sundararaman, K. Letchworth-Weaver, K.A. Schwarz, D. Gunceler, Y. Ozhabes and T.A. Arias, 'JDFTx: software for joint density-functional theory', SoftwareX 6, 278 (2017)

   gga-PBE exchange-correlation functional:
      J.P. Perdew, K. Burke and M. Ernzerhof, Phys. Rev. Lett. 77, 3865 (1996)

   Pseudopotentials:
      KF Garrity, JW Bennett, KM Rabe and D Vanderbilt, Comput. Mater. Sci. 81, 446 (2014)

   Total energy minimization with Auxiliary Hamiltonian:
      C. Freysoldt, S. Boeck, and J. Neugebauer, Phys. Rev. B 79, 241103(R) (2009)

This list may not be complete. Please suggest additional citations or
report any other bugs at https://github.com/shankar1729/jdftx/issues

Initialization completed successfully at t[s]:     85.92


-------- Electronic minimization -----------
	FillingsUpdate:  mu: +0.560666009  nElectrons: 186.000000
ElecMinimize: Iter:   0  F: -620.049251082862952  |grad|_K:  2.692e-04  alpha:  1.000e+00
	FillingsUpdate:  mu: +0.551304529  nElectrons: 186.000000
	SubspaceRotationAdjust: set factor to 0.863
ElecMinimize: Iter:   1  F: -620.438333496271639  |grad|_K:  1.727e-04  alpha:  5.290e-01  linmin:  3.715e-03  t[s]:    119.86
	FillingsUpdate:  mu: +0.543867810  nElectrons: 186.000000
	SubspaceRotationAdjust: set factor to 0.573
ElecMinimize: Iter:   2  F: -620.557784629717389  |grad|_K:  5.891e-05  alpha:  4.077e-01  linmin: -4.915e-04  t[s]:    143.06
	FillingsUpdate:  mu: +0.547919023  nElectrons: 186.000000
	SubspaceRotationAdjust: set factor to 0.755
ElecMinimize: Iter:   3  F: -620.579741054290025  |grad|_K:  2.618e-05  alpha:  6.239e-01  linmin:  4.103e-04  t[s]:    164.73
	FillingsUpdate:  mu: +0.547442310  nElectrons: 186.000000
	SubspaceRotationAdjust: set factor to 0.881
ElecMinimize: Iter:   4  F: -620.583158183575279  |grad|_K:  1.290e-05  alpha:  5.028e-01  linmin:  1.037e-04  t[s]:    187.62
	FillingsUpdate:  mu: +0.546682747  nElectrons: 186.000000
	SubspaceRotationAdjust: set factor to 1.03
ElecMinimize: Iter:   5  F: -620.584029655407562  |grad|_K:  6.774e-06  alpha:  5.223e-01  linmin:  2.899e-05  t[s]:    210.84
	FillingsUpdate:  mu: +0.547229711  nElectrons: 186.000000
	SubspaceRotationAdjust: set factor to 0.919
ElecMinimize: Iter:   6  F: -620.584278650693022  |grad|_K:  3.083e-06  alpha:  5.396e-01  linmin:  5.089e-05  t[s]:    234.92
	FillingsUpdate:  mu: +0.547102217  nElectrons: 186.000000
	SubspaceRotationAdjust: set factor to 0.944
ElecMinimize: Iter:   7  F: -620.584332312502283  |grad|_K:  1.272e-06  alpha:  5.647e-01  linmin:  1.819e-05  t[s]:    258.86
	FillingsUpdate:  mu: +0.547120952  nElectrons: 186.000000
	SubspaceRotationAdjust: set factor to 1.19
ElecMinimize: Iter:   8  F: -620.584341246153372  |grad|_K:  6.739e-07  alpha:  5.495e-01  linmin:  1.061e-05  t[s]:    281.46
	FillingsUpdate:  mu: +0.547135387  nElectrons: 186.000000
	SubspaceRotationAdjust: set factor to 1.21
ElecMinimize: Iter:   9  F: -620.584343576123842  |grad|_K:  4.193e-07  alpha:  5.097e-01  linmin:  4.577e-06  t[s]:    304.21
	FillingsUpdate:  mu: +0.547135574  nElectrons: 186.000000
	SubspaceRotationAdjust: set factor to 0.845
ElecMinimize: Iter:  10  F: -620.584344224462257  |grad|_K:  2.143e-07  alpha:  3.659e-01  linmin:  8.370e-09  t[s]:    327.51
	FillingsUpdate:  mu: +0.547135603  nElectrons: 186.000000
	SubspaceRotationAdjust: set factor to 0.607
ElecMinimize: Iter:  11  F: -620.584344422990625  |grad|_K:  9.363e-08  alpha:  4.284e-01  linmin: -4.770e-08  t[s]:    350.77
	FillingsUpdate:  mu: +0.547134699  nElectrons: 186.000000
	SubspaceRotationAdjust: set factor to 0.678
ElecMinimize: Iter:  12  F: -620.584344467100550  |grad|_K:  4.809e-08  alpha:  4.984e-01  linmin:  1.207e-07  t[s]:    373.70
	FillingsUpdate:  mu: +0.547135271  nElectrons: 186.000000
	SubspaceRotationAdjust: set factor to 0.913
ElecMinimize: Iter:  13  F: -620.584344479984338  |grad|_K:  2.663e-08  alpha:  5.519e-01  linmin:  6.195e-07  t[s]:    397.20
	FillingsUpdate:  mu: +0.547135331  nElectrons: 186.000000
	SubspaceRotationAdjust: set factor to 1.27
ElecMinimize: Iter:  14  F: -620.584344484400390  |grad|_K:  1.506e-08  alpha:  6.178e-01  linmin:  6.078e-07  t[s]:    419.24
	FillingsUpdate:  mu: +0.547134995  nElectrons: 186.000000
	SubspaceRotationAdjust: set factor to 1.35
ElecMinimize: Iter:  15  F: -620.584344485633551  |grad|_K:  7.871e-09  alpha:  5.397e-01  linmin:  3.015e-07  t[s]:    441.99
ElecMinimize: Converged (|Delta F|<1.000000e-08 for 2 iters).
Setting wave functions to eigenvectors of Hamiltonian

# Ionic positions in cartesian coordinates:
ion Zr   0.000000048505820  -0.000000084173965  -0.000000217601838 1
ion Zr   0.000000048505820  -0.000000084173965   6.801646641514925 1
ion Zr   1.963467652173967   5.553521209043638   3.400822461956503 1
ion Zr   1.963467637287845   5.553520994393456  10.202468961956525 1
ion Zr   5.890398859510051  -0.000000084173965   3.400822461956504 1
ion Zr   5.890398652173910  -0.000000026658625  10.202468961956523 1
ion Zr   7.853866159616951   5.553520994393456   6.801644949064806 1
ion Zr   7.853866159616951   5.553520994393456  13.603291474848236 1
ion O   1.963466652173914   1.388380239130436   3.400822836956523 1
ion O   5.890399652173913   4.165140739130435  10.202468586956522 1
ion O   1.963466555948854   1.388380171089056  10.202469336956542 1
ion O   5.890399555948854   4.165140671089056  17.004115086956542 1
ion O   3.926934104061409   6.941901307171817   6.801645253623189 1
ion O   7.853867104061408   9.718661807171816  13.603291003623188 1
ion O   3.926934104061409   6.941901307171817  13.603291920289857 1
ion O   7.853867104061408   9.718661807171816  20.404937670289854 1
ion O   7.853865200286419   1.388380171089056   6.801645253623189 1
ion O  11.780798200286418   4.165140671089056  13.603291003623188 1
ion O   7.853865200286419   1.388380171089056  13.603291920289857 1
ion O  11.780798200286418   4.165140671089056  20.404937670289854 1
ion O   9.817332748398973   6.941901307171817  10.202467836956504 1
ion O  13.744265748398973   9.718661807171816  17.004113586956503 1
ion O   9.817332652173913   6.941901239130435  17.004114336956519 1

# Forces in Cartesian coordinates:
force Zr   0.000453781045434   0.000320871543391   0.000785971631980 1
force Zr   0.000453780845286   0.000320871401865  -0.000785971631980 1
force Zr  -0.000000000000000  -0.000962614744727  -0.000000000000000 1
force Zr  -0.005429626747187   0.001919664237379   0.000000000000000 1
force Zr  -0.000907561890721   0.000320871799471  -0.000000000000000 1
force Zr  -0.000000000000000  -0.005758988801373   0.000000000000000 1
force Zr   0.002714812774883   0.001919661858645  -0.004702194571151 1
force Zr   0.002714813972304   0.001919662705350   0.004702194571151 1
force O   0.000000000000000   0.000000000000000  -0.000000000000000 1
force O  -0.000000000000000   0.000000000000000  -0.000000000000000 1
force O  -0.010500048523980  -0.007424652945460   0.000000000000000 1
force O   0.001957282379394   0.001384007164355  -0.000000000000000 1
force O  -0.005250025419803   0.007424655908165  -0.009093308521044 1
force O   0.000978641405521  -0.001384007716624   0.001695056217881 1
force O  -0.005250023104177   0.007424657545559   0.009093308521044 1
force O   0.000978640973872  -0.001384008021845  -0.001695056217881 1
force O   0.005250023104177  -0.007424657545559  -0.009093308521044 1
force O  -0.000978640973872   0.001384008021845   0.001695056217881 1
force O   0.005250025419803  -0.007424655908164   0.009093308521044 1
force O  -0.000978641405521   0.001384007716624  -0.001695056217881 1
force O   0.010500048523980   0.007424652945459  -0.000000000000000 1
force O  -0.001957282379394  -0.001384007164355   0.000000000000000 1
force O  -0.000000000000000   0.000000000000000  -0.000000000000000 1

# Energy components:
   Eewald =     -517.5426946976222098
       EH =      111.4888064233095832
     Eloc =     -409.6459179950654175
      Enl =       78.6576737224134490
      Exc =     -126.6144475128331379
 Exc_core =       19.9305384587325278
       KE =      223.1422922431138431
-------------------------------------
     Etot =     -620.5837493579515467
       TS =        0.0005951276820177
-------------------------------------
        F =     -620.5843444856335509

IonicMinimize: Iter:   0  F: -620.584344485633551  |grad|_K:  4.106e-03  t[s]:    445.94

#--- Lowdin population analysis ---
# oxidation-state Zr +0.832 +0.832 +0.832 +0.963 +0.832 +0.963 +0.963 +0.963
# oxidation-state O -0.436 -0.457 -0.451 -0.454 -0.451 -0.454 -0.451 -0.454 -0.451 -0.454 -0.451 -0.454 -0.451 -0.454 -0.454


-------- Electronic minimization -----------
	FillingsUpdate:  mu: +0.548314925  nElectrons: 186.000000
ElecMinimize: Iter:   0  F: -620.585301658584626  |grad|_K:  4.553e-06  alpha:  1.000e+00
	FillingsUpdate:  mu: +0.547748840  nElectrons: 186.000000
	SubspaceRotationAdjust: set factor to 0.834
ElecMinimize: Iter:   1  F: -620.585409904704420  |grad|_K:  2.832e-06  alpha:  5.165e-01  linmin: -2.347e-05  t[s]:    486.41
	FillingsUpdate:  mu: +0.547977921  nElectrons: 186.000000
	SubspaceRotationAdjust: set factor to 0.721
ElecMinimize: Iter:   2  F: -620.585430377911848  |grad|_K:  8.090e-07  alpha:  2.527e-01  linmin:  7.067e-07  t[s]:    508.85
	FillingsUpdate:  mu: +0.548073792  nElectrons: 186.000000
	SubspaceRotationAdjust: set factor to 0.649
ElecMinimize: Iter:   3  F: -620.585433198483088  |grad|_K:  3.109e-07  alpha:  4.270e-01  linmin:  4.505e-07  t[s]:    531.93
	FillingsUpdate:  mu: +0.548045152  nElectrons: 186.000000
	SubspaceRotationAdjust: set factor to 0.574
ElecMinimize: Iter:   4  F: -620.585433705534797  |grad|_K:  1.305e-07  alpha:  5.197e-01  linmin:  8.113e-07  t[s]:    554.36
	FillingsUpdate:  mu: +0.548043807  nElectrons: 186.000000
	SubspaceRotationAdjust: set factor to 0.574
ElecMinimize: Iter:   5  F: -620.585433798949680  |grad|_K:  6.558e-08  alpha:  5.435e-01  linmin:  3.956e-07  t[s]:    576.09
	FillingsUpdate:  mu: +0.548045490  nElectrons: 186.000000
	SubspaceRotationAdjust: set factor to 0.624
ElecMinimize: Iter:   6  F: -620.585433820659887  |grad|_K:  2.885e-08  alpha:  5.001e-01  linmin:  7.630e-07  t[s]:    598.68
	FillingsUpdate:  mu: +0.548045922  nElectrons: 186.000000
	SubspaceRotationAdjust: set factor to 0.711
ElecMinimize: Iter:   7  F: -620.585433825440987  |grad|_K:  1.471e-08  alpha:  5.695e-01  linmin:  7.199e-07  t[s]:    621.35
	FillingsUpdate:  mu: +0.548045857  nElectrons: 186.000000
	SubspaceRotationAdjust: set factor to 0.821
ElecMinimize: Iter:   8  F: -620.585433826691201  |grad|_K:  7.642e-09  alpha:  5.720e-01  linmin: -1.453e-06  t[s]:    643.38
ElecMinimize: Converged (|Delta F|<1.000000e-08 for 2 iters).
Setting wave functions to eigenvectors of Hamiltonian

# Ionic positions in cartesian coordinates:
ion Zr   0.000453829551254   0.000320787369427   0.000785754030141 1
ion Zr   0.000453829351105   0.000320787227900   6.800860669882945 1
ion Zr   1.963467652173967   5.552558594298911   3.400822461956503 1
ion Zr   1.958038010540659   5.555440658630836  10.202468961956527 1
ion Zr   5.889491297619331   0.000320787625506   3.400822461956504 1
ion Zr   5.890398652173911  -0.005759015459998  10.202468961956525 1
ion Zr   7.856580972391833   5.555440656252101   6.796942754493655 1
ion Zr   7.856580973589255   5.555440657098806  13.607993669419386 1
ion O   1.963466652173914   1.388380239130436   3.400822836956523 1
ion O   5.890399652173913   4.165140739130435  10.202468586956522 1
ion O   1.952966507424875   1.380955518143596  10.202469336956542 1
ion O   5.892356838328248   4.166524678253411  17.004115086956542 1
ion O   3.921684078641605   6.949325963079981   6.792551945102145 1
ion O   7.854845745466930   9.717277799455193  13.604986059841071 1
ion O   3.921684080957232   6.949325964717376  13.612385228810901 1
ion O   7.854845745035282   9.717277799149970  20.403242614071974 1
ion O   7.859115223390596   1.380955513543496   6.792551945102145 1
ion O  11.779819559312546   4.166524679110902  13.604986059841071 1
ion O   7.859115225706222   1.380955515180891  13.612385228810901 1
ion O  11.779819558880897   4.166524678805680  20.403242614071971 1
ion O   9.827832796922953   6.949325960117275  10.202467836956504 1
ion O  13.742308466019580   9.717277800007462  17.004113586956507 1
ion O   9.817332652173913   6.941901239130435  17.004114336956519 1

# Forces in Cartesian coordinates:
force Zr  -0.000148351566062  -0.000104900362071  -0.000256952386305 1
force Zr  -0.000148351500629  -0.000104900315802   0.000256952386305 1
force Zr  -0.000000000000000   0.000314701123663   0.000000000000000 1
force Zr  -0.004243844574954   0.001500426647882  -0.000000000000000 1
force Zr   0.000296703066691  -0.000104900445789  -0.000000000000000 1
force Zr   0.000000000000000  -0.004501276886960  -0.000000000000000 1
force Zr   0.002121921819519   0.001500424788643  -0.003675277113938 1
force Zr   0.002121922755435   0.001500425450435   0.003675277113938 1
force O  -0.000000000000000   0.000000000000000  -0.000000000000000 1
force O   0.000000000000000  -0.000000000000000   0.000000000000000 1
force O  -0.009256599858884  -0.006545402266498   0.000000000000000 1
force O   0.002160640131181   0.001527802759903  -0.000000000000000 1
force O  -0.004628300950143   0.006545404878350  -0.008016450417390 1
force O   0.001080320303839  -0.001527803369551   0.001871169192305 1
force O  -0.004628298908740   0.006545406321839   0.008016450417390 1
force O   0.001080319827342  -0.001527803706485  -0.001871169192305 1
force O   0.004628298908741  -0.006545406321840  -0.008016450417391 1
force O  -0.001080319827342   0.001527803706485   0.001871169192305 1
force O   0.004628300950143  -0.006545404878350   0.008016450417390 1
force O  -0.001080320303839   0.001527803369551  -0.001871169192305 1
force O   0.009256599858883   0.006545402266498  -0.000000000000000 1
force O  -0.002160640131181  -0.001527802759903   0.000000000000000 1
force O  -0.000000000000000  -0.000000000000000   0.000000000000000 1

# Energy components:
   Eewald =     -517.6249303552408492
       EH =      111.4026448301926280
     Eloc =     -409.4798217123857285
      Enl =       78.6592846857299293
      Exc =     -126.6149311771511634
 Exc_core =       19.9305384142384092
       KE =      223.1424270721857397
-------------------------------------
     Etot =     -620.5847882424309319
       TS =        0.0006455842602548
-------------------------------------
        F =     -620.5854338266912009

IonicMinimize: Iter:   1  F: -620.585433826691201  |grad|_K:  3.601e-03  alpha:  1.000e+00  linmin: -9.953e-01  t[s]:    647.40

#--- Lowdin population analysis ---
# oxidation-state Zr +0.831 +0.831 +0.831 +0.964 +0.831 +0.964 +0.964 +0.964
# oxidation-state O -0.436 -0.458 -0.452 -0.454 -0.452 -0.454 -0.452 -0.454 -0.452 -0.454 -0.452 -0.454 -0.452 -0.454 -0.452


-------- Electronic minimization -----------
	FillingsUpdate:  mu: +0.526312062  nElectrons: 186.000000
ElecMinimize: Iter:   0  F: -619.786598300545734  |grad|_K:  4.344e-04  alpha:  1.000e+00
	FillingsUpdate:  mu: +0.554842760  nElectrons: 186.000000
	SubspaceRotationAdjust: set factor to 0.499
ElecMinimize: Iter:   1  F: -620.507540710201852  |grad|_K:  1.349e-04  alpha:  3.734e-01  linmin: -7.305e-04  t[s]:    689.35
	FillingsUpdate:  mu: +0.554040706  nElectrons: 186.000000
	SubspaceRotationAdjust: set factor to 0.412
ElecMinimize: Iter:   2  F: -620.576035677035065  |grad|_K:  4.789e-05  alpha:  3.689e-01  linmin: -8.563e-04  t[s]:    711.15
	FillingsUpdate:  mu: +0.551658405  nElectrons: 186.000000
	SubspaceRotationAdjust: set factor to 0.636
ElecMinimize: Iter:   3  F: -620.586427904964694  |grad|_K:  1.927e-05  alpha:  4.408e-01  linmin:  3.935e-05  t[s]:    733.99
	FillingsUpdate:  mu: +0.551061575  nElectrons: 186.000000
	SubspaceRotationAdjust: set factor to 0.877
ElecMinimize: Iter:   4  F: -620.588921305207123  |grad|_K:  1.168e-05  alpha:  6.670e-01  linmin:  1.029e-04  t[s]:    756.75
	FillingsUpdate:  mu: +0.550650056  nElectrons: 186.000000
	SubspaceRotationAdjust: set factor to 1.17
ElecMinimize: Iter:   5  F: -620.589716872031545  |grad|_K:  6.692e-06  alpha:  5.794e-01  linmin:  4.525e-05  t[s]:    778.57
	FillingsUpdate:  mu: +0.550678366  nElectrons: 186.000000
	SubspaceRotationAdjust: set factor to 1.21
ElecMinimize: Iter:   6  F: -620.589934929964443  |grad|_K:  3.411e-06  alpha:  4.835e-01  linmin:  1.163e-05  t[s]:    800.91
	FillingsUpdate:  mu: +0.550771418  nElectrons: 186.000000
	SubspaceRotationAdjust: set factor to 0.906
ElecMinimize: Iter:   7  F: -620.589979584665912  |grad|_K:  1.822e-06  alpha:  3.806e-01  linmin: -3.891e-06  t[s]:    823.02
	FillingsUpdate:  mu: +0.550793305  nElectrons: 186.000000
	SubspaceRotationAdjust: set factor to 0.676
ElecMinimize: Iter:   8  F: -620.589992663951080  |grad|_K:  8.702e-07  alpha:  3.901e-01  linmin:  4.252e-06  t[s]:    844.77
	FillingsUpdate:  mu: +0.550775742  nElectrons: 186.000000
	SubspaceRotationAdjust: set factor to 0.785
ElecMinimize: Iter:   9  F: -620.589996871072572  |grad|_K:  4.794e-07  alpha:  5.506e-01  linmin:  1.903e-06  t[s]:    868.37
	FillingsUpdate:  mu: +0.550780031  nElectrons: 186.000000
	SubspaceRotationAdjust: set factor to 1.14
ElecMinimize: Iter:  10  F: -620.589997898839783  |grad|_K:  2.196e-07  alpha:  4.431e-01  linmin:  3.455e-07  t[s]:    890.60
	FillingsUpdate:  mu: +0.550788935  nElectrons: 186.000000
	SubspaceRotationAdjust: set factor to 1.47
ElecMinimize: Iter:  11  F: -620.589998199145725  |grad|_K:  1.285e-07  alpha:  6.169e-01  linmin:  3.510e-07  t[s]:    913.20
	FillingsUpdate:  mu: +0.550782273  nElectrons: 186.000000
	SubspaceRotationAdjust: set factor to 1.41
ElecMinimize: Iter:  12  F: -620.589998271814125  |grad|_K:  7.033e-08  alpha:  4.357e-01  linmin:  2.397e-08  t[s]:    937.31
	FillingsUpdate:  mu: +0.550781707  nElectrons: 186.000000
	SubspaceRotationAdjust: set factor to 1.02
ElecMinimize: Iter:  13  F: -620.589998290002768  |grad|_K:  4.185e-08  alpha:  3.643e-01  linmin:  4.871e-07  t[s]:    960.31
	FillingsUpdate:  mu: +0.550782350  nElectrons: 186.000000
	SubspaceRotationAdjust: set factor to 0.891
ElecMinimize: Iter:  14  F: -620.589998295968144  |grad|_K:  2.311e-08  alpha:  3.374e-01  linmin: -2.725e-07  t[s]:    983.54
	FillingsUpdate:  mu: +0.550782772  nElectrons: 186.000000
	SubspaceRotationAdjust: set factor to 1.37
ElecMinimize: Iter:  15  F: -620.589998298622618  |grad|_K:  1.140e-08  alpha:  4.905e-01  linmin: -2.570e-06  t[s]:   1008.43
ElecMinimize: Converged (|Delta F|<1.000000e-08 for 2 iters).
Setting wave functions to eigenvectors of Hamiltonian

# Ionic positions in cartesian coordinates:
ion Zr  -0.014930531879175  -0.010557595158767  -0.025860735024646 1
ion Zr  -0.014930525293750  -0.010557590502170   6.827507158937731 1
ion Zr   1.963467652173967   5.585193745767102   3.400822461956503 1
ion Zr   1.934536261602828   5.563749787241782  10.202468961956527 1
ion Zr   5.920260013694616  -0.010557603584422   3.400822461956504 1
ion Zr   5.890398652173910  -0.030686384365378  10.202468961956523 1
ion Zr   7.868331844269273   5.563749774566867   6.776589643421096 1
ion Zr   7.868331850649648   5.563749779078472  13.628346780491945 1
ion O   1.963466652173914   1.388380239130436   3.400822836956523 1
ion O   5.890399652173913   4.165140739130435  10.202468586956522 1
ion O   1.871316852692658   1.323220513574920  10.202469336956543 1
ion O   5.922584186823231   4.187898633956965  17.004115086956542 1
ion O   3.880859242272200   7.007060990687012   6.721841271773243 1
ion O   7.869959423047514   9.695903835222659  13.631163710830993 1
ion O   3.880859262594420   7.007061005056987  13.683095902139803 1
ion O   7.869959415949682   9.695903830203735  20.377064963082052 1
ion O   7.899940041753408   1.323220473203886   6.721841271773243 1
ion O  11.764705888398147   4.187898648057138  13.631163710830993 1
ion O   7.899940062075628   1.323220487573860  13.683095902139801 1
ion O  11.764705881300312   4.187898643038214  20.377064963082049 1
ion O   9.909482451655171   7.007060964685953  10.202467836956504 1
ion O  13.712081117524598   9.695903844303910  17.004113586956503 1
ion O   9.817332652173913   6.941901239130435  17.004114336956519 1

# Forces in Cartesian coordinates:
force Zr   0.000637610888826   0.000450858827268   0.001104374181998 1
force Zr   0.000637610607595   0.000450858628408  -0.001104374181999 1
force Zr  -0.000000000000000  -0.001352576642762   0.000000000000000 1
force Zr  -0.004955643435865   0.001752085717855   0.000000000000000 1
force Zr  -0.001275221496419   0.000450859187085  -0.000000000000000 1
force Zr  -0.000000000000000  -0.005256253584195  -0.000000000000000 1
force Zr   0.002477821171486   0.001752083546774  -0.004291712993486 1
force Zr   0.002477822264379   0.001752084319565   0.004291712993487 1
force O  -0.000000000000000   0.000000000000000   0.000000000000000 1
force O   0.000000000000000   0.000000000000000  -0.000000000000000 1
force O  -0.000650671455710  -0.000460094039482   0.000000000000000 1
force O   0.001610253734967   0.001138620941508  -0.000000000000000 1
force O  -0.000325335799603   0.000460094223077  -0.000563497995184 1
force O   0.000805127045042  -0.001138621395859   0.001394520603955 1
force O  -0.000325335656107   0.000460094324543   0.000563497995185 1
force O   0.000805126689925  -0.001138621646965  -0.001394520603955 1
force O   0.000325335656107  -0.000460094324543  -0.000563497995184 1
force O  -0.000805126689925   0.001138621646965   0.001394520603955 1
force O   0.000325335799603  -0.000460094223077   0.000563497995184 1
force O  -0.000805127045042   0.001138621395859  -0.001394520603955 1
force O   0.000650671455709   0.000460094039482  -0.000000000000000 1
force O  -0.001610253734967  -0.001138620941508  -0.000000000000000 1
force O  -0.000000000000000  -0.000000000000000   0.000000000000000 1

# Energy components:
   Eewald =     -518.5008634477271698
       EH =      110.5368353014846434
     Eloc =     -407.7511438382628057
      Enl =       78.6711230068459599
      Exc =     -126.6161683479472799
 Exc_core =       19.9305386141042575
       KE =      223.1405561840882115
-------------------------------------
     Etot =     -620.5891225274142471
       TS =        0.0008757712083438
-------------------------------------
        F =     -620.5899982986226178

IonicMinimize: Iter:   2  F: -620.589998298622618  |grad|_K:  1.450e-03  alpha:  8.048e-01  linmin: -3.833e-01  t[s]:   1012.42

#--- Lowdin population analysis ---
# oxidation-state Zr +0.826 +0.826 +0.826 +0.968 +0.826 +0.968 +0.968 +0.968
# oxidation-state O -0.448 -0.468 -0.450 -0.454 -0.450 -0.454 -0.450 -0.454 -0.450 -0.454 -0.450 -0.454 -0.450 -0.454 -0.441


-------- Electronic minimization -----------
	FillingsUpdate:  mu: +0.548108078  nElectrons: 186.000000
ElecMinimize: Iter:   0  F: -620.272701183332742  |grad|_K:  3.208e-04  alpha:  1.000e+00
	FillingsUpdate:  mu: +0.552773744  nElectrons: 186.000000
	SubspaceRotationAdjust: set factor to 1.08
ElecMinimize: Iter:   1  F: -620.541456033145437  |grad|_K:  1.152e-04  alpha:  2.423e-01  linmin: -2.837e-03  t[s]:   1052.14
	FillingsUpdate:  mu: +0.552761715  nElectrons: 186.000000
	SubspaceRotationAdjust: set factor to 0.806
ElecMinimize: Iter:   2  F: -620.579577697895161  |grad|_K:  4.416e-05  alpha:  2.660e-01  linmin: -3.944e-04  t[s]:   1073.43
	FillingsUpdate:  mu: +0.552061431  nElectrons: 186.000000
	SubspaceRotationAdjust: set factor to 1.03
ElecMinimize: Iter:   3  F: -620.587839321289380  |grad|_K:  1.590e-05  alpha:  4.139e-01  linmin:  6.149e-05  t[s]:   1097.63
	FillingsUpdate:  mu: +0.551546283  nElectrons: 186.000000
	SubspaceRotationAdjust: set factor to 1.16
ElecMinimize: Iter:   4  F: -620.589105774792870  |grad|_K:  8.781e-06  alpha:  4.969e-01  linmin: -5.230e-06  t[s]:   1119.90
	FillingsUpdate:  mu: +0.551839482  nElectrons: 186.000000
	SubspaceRotationAdjust: set factor to 0.881
ElecMinimize: Iter:   5  F: -620.589423191158517  |grad|_K:  4.228e-06  alpha:  4.076e-01  linmin:  9.885e-06  t[s]:   1143.42
	FillingsUpdate:  mu: +0.551877638  nElectrons: 186.000000
	SubspaceRotationAdjust: set factor to 0.538
ElecMinimize: Iter:   6  F: -620.589492441600214  |grad|_K:  1.811e-06  alpha:  3.840e-01  linmin: -4.328e-06  t[s]:   1166.08
	FillingsUpdate:  mu: +0.551847774  nElectrons: 186.000000
	SubspaceRotationAdjust: set factor to 0.439
ElecMinimize: Iter:   7  F: -620.589505162478190  |grad|_K:  7.425e-07  alpha:  3.842e-01  linmin: -5.121e-06  t[s]:   1188.31
	FillingsUpdate:  mu: +0.551848126  nElectrons: 186.000000
	SubspaceRotationAdjust: set factor to 0.545
ElecMinimize: Iter:   8  F: -620.589507862736127  |grad|_K:  3.267e-07  alpha:  4.852e-01  linmin:  4.436e-08  t[s]:   1210.72
	FillingsUpdate:  mu: +0.551852812  nElectrons: 186.000000
	SubspaceRotationAdjust: set factor to 0.636
ElecMinimize: Iter:   9  F: -620.589508467293740  |grad|_K:  1.710e-07  alpha:  5.613e-01  linmin:  9.638e-07  t[s]:   1235.17
	FillingsUpdate:  mu: +0.551852958  nElectrons: 186.000000
	SubspaceRotationAdjust: set factor to 0.801
ElecMinimize: Iter:  10  F: -620.589508638007487  |grad|_K:  1.033e-07  alpha:  5.781e-01  linmin:  6.551e-07  t[s]:   1256.71
	FillingsUpdate:  mu: +0.551852268  nElectrons: 186.000000
	SubspaceRotationAdjust: set factor to 1.03
ElecMinimize: Iter:  11  F: -620.589508692998152  |grad|_K:  4.788e-08  alpha:  5.104e-01  linmin: -1.235e-07  t[s]:   1280.55
	FillingsUpdate:  mu: +0.551851966  nElectrons: 186.000000
	SubspaceRotationAdjust: set factor to 1.18
ElecMinimize: Iter:  12  F: -620.589508705231765  |grad|_K:  2.433e-08  alpha:  5.286e-01  linmin: -1.162e-06  t[s]:   1302.17
	FillingsUpdate:  mu: +0.551851984  nElectrons: 186.000000
	SubspaceRotationAdjust: set factor to 1.08
ElecMinimize: Iter:  13  F: -620.589508708132144  |grad|_K:  1.251e-08  alpha:  4.837e-01  linmin:  4.973e-07  t[s]:   1324.16
	FillingsUpdate:  mu: +0.551852078  nElectrons: 186.000000
	SubspaceRotationAdjust: set factor to 0.927
ElecMinimize: Iter:  14  F: -620.589508708836547  |grad|_K:  7.576e-09  alpha:  4.462e-01  linmin: -1.512e-07  t[s]:   1345.67
ElecMinimize: Converged (|Delta F|<1.000000e-08 for 2 iters).
Setting wave functions to eigenvectors of Hamiltonian
IonicMinimize: 	Wolfe criterion not satisfied: alpha: 1  (E-E0)/|gdotd0|: 0.295319  gdotd/gdotd0: -1.59615 (taking cubic step)

-------- Electronic minimization -----------
	FillingsUpdate:  mu: +0.551255843  nElectrons: 186.000000
ElecMinimize: Iter:   0  F: -620.589118978994293  |grad|_K:  1.421e-05  alpha:  1.000e+00
	FillingsUpdate:  mu: +0.551150207  nElectrons: 186.000000
	SubspaceRotationAdjust: set factor to 0.658
ElecMinimize: Iter:   1  F: -620.589979353088552  |grad|_K:  7.983e-06  alpha:  4.221e-01  linmin:  2.839e-06  t[s]:   1389.28
	FillingsUpdate:  mu: +0.551181291  nElectrons: 186.000000
	SubspaceRotationAdjust: set factor to 0.986
ElecMinimize: Iter:   2  F: -620.590250115291951  |grad|_K:  3.348e-06  alpha:  4.210e-01  linmin:  6.038e-06  t[s]:   1411.42
	FillingsUpdate:  mu: +0.551237773  nElectrons: 186.000000
	SubspaceRotationAdjust: set factor to 1.43
ElecMinimize: Iter:   3  F: -620.590308140395109  |grad|_K:  1.353e-06  alpha:  5.128e-01  linmin:  1.155e-06  t[s]:   1433.28
	FillingsUpdate:  mu: +0.551191060  nElectrons: 186.000000
	SubspaceRotationAdjust: set factor to 1.83
ElecMinimize: Iter:   4  F: -620.590317885549439  |grad|_K:  4.524e-07  alpha:  5.276e-01  linmin:  2.128e-06  t[s]:   1455.20
	FillingsUpdate:  mu: +0.551205910  nElectrons: 186.000000
	SubspaceRotationAdjust: set factor to 1.36
ElecMinimize: Iter:   5  F: -620.590318639927432  |grad|_K:  2.624e-07  alpha:  3.653e-01  linmin:  6.951e-08  t[s]:   1478.67
	FillingsUpdate:  mu: +0.551207924  nElectrons: 186.000000
	SubspaceRotationAdjust: set factor to 0.702
ElecMinimize: Iter:   6  F: -620.590318785984891  |grad|_K:  1.082e-07  alpha:  2.101e-01  linmin: -3.118e-07  t[s]:   1502.39
	FillingsUpdate:  mu: +0.551202742  nElectrons: 186.000000
	SubspaceRotationAdjust: set factor to 0.738
ElecMinimize: Iter:   7  F: -620.590318833734386  |grad|_K:  4.424e-08  alpha:  4.040e-01  linmin:  5.819e-07  t[s]:   1525.56
	FillingsUpdate:  mu: +0.551203373  nElectrons: 186.000000
	SubspaceRotationAdjust: set factor to 0.76
ElecMinimize: Iter:   8  F: -620.590318844872968  |grad|_K:  2.512e-08  alpha:  5.641e-01  linmin:  1.457e-07  t[s]:   1548.76
	FillingsUpdate:  mu: +0.551204456  nElectrons: 186.000000
	SubspaceRotationAdjust: set factor to 0.737
ElecMinimize: Iter:   9  F: -620.590318848242759  |grad|_K:  1.272e-08  alpha:  5.295e-01  linmin:  5.494e-07  t[s]:   1570.93
	FillingsUpdate:  mu: +0.551204006  nElectrons: 186.000000
	SubspaceRotationAdjust: set factor to 0.824
ElecMinimize: Iter:  10  F: -620.590318849041523  |grad|_K:  6.310e-09  alpha:  4.899e-01  linmin:  2.184e-06  t[s]:   1593.53
ElecMinimize: Converged (|Delta F|<1.000000e-08 for 2 iters).
Setting wave functions to eigenvectors of Hamiltonian

# Ionic positions in cartesian coordinates:
ion Zr  -0.015451907434306  -0.010926263221800  -0.026763783752801 1
ion Zr  -0.015451900618919  -0.010926258402595   6.828410207665887 1
ion Zr   1.963467652173967   5.586299750087818   3.400822461956503 1
ion Zr   1.914101420464251   5.570974599472303  10.202468961956527 1
ion Zr   5.921302764574914  -0.010926271941679   3.400822461956504 1
ion Zr   5.890398652173910  -0.052360806338467  10.202468961956523 1
ion Zr   7.878549262585263   5.570974577844829   6.758892552343163 1
ion Zr   7.878549273472233   5.570974585543078  13.646043871569880 1
ion O   1.963466652173914   1.388380239130436   3.400822836956523 1
ion O   5.890399652173913   4.165140739130435  10.202468586956522 1
ion O   1.864937201720290   1.318709420671414  10.202469336956542 1
ion O   5.933210419397403   4.195412512469123  17.004115086956542 1
ion O   3.877669416082549   7.011572085390607   6.716316332110742 1
ion O   7.875272540506326   9.688389953712189  13.640366297942148 1
ion O   3.877669437811704   7.011572100755434  13.688620841802305 1
ion O   7.875272531065039   9.688389947036194  20.367862375970894 1
ion O   7.903129866536124   1.318709377505438   6.716316332110742 1
ion O  11.759392773282789   4.195412531224678  13.640366297942151 1
ion O   7.903129888265279   1.318709392870265  13.688620841802303 1
ion O  11.759392763841499   4.195412524548682  20.367862375970894 1
ion O   9.915862102627539   7.011572057589459  10.202467836956506 1
ion O  13.701454884950426   9.688389965791750  17.004113586956503 1
ion O   9.817332652173913   6.941901239130435  17.004114336956519 1

# Forces in Cartesian coordinates:
force Zr  -0.000160613281019  -0.000113570700867  -0.000278190294353 1
force Zr  -0.000160613210179  -0.000113570650775   0.000278190294353 1
force Zr  -0.000000000000000   0.000340712143146   0.000000000000000 1
force Zr   0.001365224108497  -0.000482679937152  -0.000000000000000 1
force Zr   0.000321226491200  -0.000113570791505   0.000000000000000 1
force Zr  -0.000000000000000   0.001448038828133  -0.000000000000000 1
force Zr  -0.000682611903709  -0.000482679339043   0.001182318728393 1
force Zr  -0.000682612204788  -0.000482679551939  -0.001182318728392 1
force O   0.000000000000000   0.000000000000000  -0.000000000000000 1
force O  -0.000000000000000  -0.000000000000000  -0.000000000000000 1
force O  -0.000882100405465  -0.000623738962603  -0.000000000000000 1
force O   0.000772286597453   0.000546088901153   0.000000000000000 1
force O  -0.000441050300000   0.000623739211497  -0.000763921339517 1
force O   0.000386143383884  -0.000546089119062   0.000668819794620 1
force O  -0.000441050105466   0.000623739349054   0.000763921339517 1
force O   0.000386143213568  -0.000546089239494  -0.000668819794620 1
force O   0.000441050105466  -0.000623739349053  -0.000763921339517 1
force O  -0.000386143213568   0.000546089239494   0.000668819794620 1
force O   0.000441050299999  -0.000623739211497   0.000763921339517 1
force O  -0.000386143383884   0.000546089119062  -0.000668819794620 1
force O   0.000882100405465   0.000623738962603   0.000000000000000 1
force O  -0.000772286597453  -0.000546088901153  -0.000000000000000 1
force O  -0.000000000000000  -0.000000000000000   0.000000000000000 1

# Energy components:
   Eewald =     -518.4446329157738091
       EH =      110.5857134788887350
     Eloc =     -407.8696390138849779
      Enl =       78.6755775016559653
      Exc =     -126.6204263552147609
 Exc_core =       19.9305393142363521
       KE =      223.1534515395940730
-------------------------------------
     Etot =     -620.5894164504982200
       TS =        0.0009023985432845
-------------------------------------
        F =     -620.5903188490415232

IonicMinimize: Iter:   3  F: -620.590318849041523  |grad|_K:  5.546e-04  alpha:  3.867e-01  linmin: -1.791e-03  t[s]:   1597.59

#--- Lowdin population analysis ---
# oxidation-state Zr +0.827 +0.827 +0.827 +0.968 +0.827 +0.968 +0.968 +0.968
# oxidation-state O -0.449 -0.473 -0.451 -0.453 -0.451 -0.453 -0.451 -0.453 -0.451 -0.453 -0.451 -0.453 -0.451 -0.453 -0.435


-------- Electronic minimization -----------
	FillingsUpdate:  mu: +0.551460775  nElectrons: 186.000000
ElecMinimize: Iter:   0  F: -620.590246579602422  |grad|_K:  3.953e-06  alpha:  1.000e+00
	FillingsUpdate:  mu: +0.551373785  nElectrons: 186.000000
	SubspaceRotationAdjust: set factor to 0.623
ElecMinimize: Iter:   1  F: -620.590352315784571  |grad|_K:  2.320e-06  alpha:  6.703e-01  linmin:  2.424e-07  t[s]:   1639.12
	FillingsUpdate:  mu: +0.551414050  nElectrons: 186.000000
	SubspaceRotationAdjust: set factor to 0.614
ElecMinimize: Iter:   2  F: -620.590373835492755  |grad|_K:  1.048e-06  alpha:  3.961e-01  linmin: -5.773e-08  t[s]:   1660.94
	FillingsUpdate:  mu: +0.551437393  nElectrons: 186.000000
	SubspaceRotationAdjust: set factor to 0.97
ElecMinimize: Iter:   3  F: -620.590379854815637  |grad|_K:  3.718e-07  alpha:  5.428e-01  linmin: -3.838e-07  t[s]:   1683.86
	FillingsUpdate:  mu: +0.551419858  nElectrons: 186.000000
	SubspaceRotationAdjust: set factor to 1.19
ElecMinimize: Iter:   4  F: -620.590380549383667  |grad|_K:  1.331e-07  alpha:  4.979e-01  linmin:  3.997e-07  t[s]:   1706.34
	FillingsUpdate:  mu: +0.551422740  nElectrons: 186.000000
	SubspaceRotationAdjust: set factor to 1.47
ElecMinimize: Iter:   5  F: -620.590380647862276  |grad|_K:  5.931e-08  alpha:  5.507e-01  linmin:  4.076e-07  t[s]:   1728.66
	FillingsUpdate:  mu: +0.551422549  nElectrons: 186.000000
	SubspaceRotationAdjust: set factor to 1.12
ElecMinimize: Iter:   6  F: -620.590380660851793  |grad|_K:  3.033e-08  alpha:  3.659e-01  linmin: -1.118e-07  t[s]:   1752.35
	FillingsUpdate:  mu: +0.551422310  nElectrons: 186.000000
	SubspaceRotationAdjust: set factor to 0.606
ElecMinimize: Iter:   7  F: -620.590380663507631  |grad|_K:  1.486e-08  alpha:  2.862e-01  linmin:  4.450e-07  t[s]:   1775.31
	FillingsUpdate:  mu: +0.551422403  nElectrons: 186.000000
	SubspaceRotationAdjust: set factor to 0.679
ElecMinimize: Iter:   8  F: -620.590380664626537  |grad|_K:  6.868e-09  alpha:  5.074e-01  linmin:  4.546e-06  t[s]:   1797.21
ElecMinimize: Converged (|Delta F|<1.000000e-08 for 2 iters).
Setting wave functions to eigenvectors of Hamiltonian

# Ionic positions in cartesian coordinates:
ion Zr  -0.017178686709061  -0.012147280134169  -0.029754652451049 1
ion Zr  -0.017178679132044  -0.012147274776410   6.831401076364135 1
ion Zr   1.963467652173967   5.589962801260829   3.400822461956503 1
ion Zr   1.914143483845425   5.570959727811267  10.202468961956527 1
ion Zr   5.924756322362795  -0.012147289828507   3.400822461956503 1
ion Zr   5.890398652173911  -0.052316191385652  10.202468961956523 1
ion Zr   7.878528230899315   5.570959706202220   6.758928980298861 1
ion Zr   7.878528241777008   5.570959713893910  13.646007443614183 1
ion O   1.963466652173914   1.388380239130436   3.400822836956523 1
ion O   5.890399652173913   4.165140739130435  10.202468586956522 1
ion O   1.855514336041108   1.312046450756577  10.202469336956543 1
ion O   5.939323756451452   4.199735293060209  17.004115086956542 1
ion O   3.872957982203923   7.018235057964210   6.708155891273019 1
ion O   7.878329209707451   9.684067171396158  13.645660602992134 1
ion O   3.872958006011148   7.018235074798454  13.696781282640025 1
ion O   7.878329198917961   9.684067163766839  20.362568070920908 1
ion O   7.907841298336680   1.312046403462418   6.708155891273019 1
ion O  11.756336105429867   4.199735314494033  13.645660602992134 1
ion O   7.907841322143906   1.312046420296662  13.696781282640027 1
ion O  11.756336094640375   4.199735306864714  20.362568070920908 1
ion O   9.925284968306720   7.018235027504296  10.202467836956504 1
ion O  13.695341547896376   9.684067185200664  17.004113586956503 1
ion O   9.817332652173913   6.941901239130435  17.004114336956519 1

# Forces in Cartesian coordinates:
force Zr  -0.000064350514292  -0.000045502669287  -0.000111458332705 1
force Zr  -0.000064350485909  -0.000045502649217   0.000111458332705 1
force Zr   0.000000000000000   0.000136508024105  -0.000000000000000 1
force Zr   0.000090912249292  -0.000032142355604   0.000000000000000 1
force Zr   0.000128701000202  -0.000045502705601  -0.000000000000000 1
force Zr  -0.000000000000000   0.000096427001331   0.000000000000000 1
force Zr  -0.000045456114621  -0.000032142315775   0.000078732315309 1
force Zr  -0.000045456134671  -0.000032142329952  -0.000078732315310 1
force O   0.000000000000000   0.000000000000000  -0.000000000000000 1
force O   0.000000000000000  -0.000000000000000   0.000000000000000 1
force O   0.000119011509097   0.000084153816008   0.000000000000000 1
force O   0.000155002726168   0.000109603440857   0.000000000000000 1
force O   0.000059505767672  -0.000084153849588   0.000103066987481 1
force O   0.000077501380176  -0.000109603484593   0.000134236294950 1
force O   0.000059505741426  -0.000084153868147  -0.000103066987481 1
force O   0.000077501345992  -0.000109603508765  -0.000134236294949 1
force O  -0.000059505741425   0.000084153868147   0.000103066987481 1
force O  -0.000077501345992   0.000109603508764   0.000134236294950 1
force O  -0.000059505767672   0.000084153849588  -0.000103066987481 1
force O  -0.000077501380176   0.000109603484593  -0.000134236294949 1
force O  -0.000119011509097  -0.000084153816008  -0.000000000000000 1
force O  -0.000155002726168  -0.000109603440858   0.000000000000000 1
force O  -0.000000000000000  -0.000000000000000  -0.000000000000000 1

# Energy components:
   Eewald =     -518.5000630556580745
       EH =      110.5328546780855987
     Eloc =     -407.7671254980726303
      Enl =       78.6781989691171901
      Exc =     -126.6220169677550871
 Exc_core =       19.9305395859741772
       KE =      223.1581630855290257
-------------------------------------
     Etot =     -620.5894492027797469
       TS =        0.0009314618467462
-------------------------------------
        F =     -620.5903806646265366

IonicMinimize: Iter:   4  F: -620.590380664626537  |grad|_K:  8.124e-05  alpha:  1.000e+00  linmin: -1.945e-02  t[s]:   1801.48
IonicMinimize: Converged (|grad|_K<1.000000e-04).

#--- Lowdin population analysis ---
# oxidation-state Zr +0.826 +0.826 +0.826 +0.968 +0.826 +0.968 +0.968 +0.968
# oxidation-state O -0.450 -0.473 -0.450 -0.453 -0.450 -0.453 -0.450 -0.453 -0.450 -0.453 -0.450 -0.453 -0.450 -0.453 -0.435


Dumping 'Zr8O15.Ecomponents' ... done
End date and time: Tue Mar 12 10:56:35 2024  (Duration: 0-0:30:05.08)
Done!
