--------------------------------------------------------------------------
Initialization of PSM library failed.

  Error: PSM is in the finalized state
--------------------------------------------------------------------------

*************** JDFTx 1.7.0 (git hash 3664913) ***************

Start date and time: Sun Jun 16 20:59:02 2024
Executable jdftx with command-line: -i Co_tet.in
Running on hosts (process indices):  node3003.physics.cornell.edu (0-15)
Divided in process groups (process indices):  0 (0)  1 (1)  2 (2)  3 (3)  4 (4)  5 (5)  6 (6)  7 (7)  8 (8)  9 (9)  10 (10)  11 (11)  12 (12)  13 (13)  14 (14)  15 (15)
Resource initialization completed at t[s]:      0.00
Run totals: 16 processes, 32 threads, 0 GPUs


Input parsed successfully to the following command list (including defaults):

basis kpoint-dependent
coords-type Lattice
core-overlap-check vector
coulomb-interaction Periodic
davidson-band-ratio 1.1
dump End Ecomponents
dump-name $INPUT.$VAR
elec-cutoff 20 100
elec-eigen-algo Davidson
elec-ex-corr gga-PBEsol
elec-smearing Fermi 0.01
electronic-minimize  \
	dirUpdateScheme      FletcherReeves \
	linminMethod         DirUpdateRecommended \
	nIterations          100 \
	history              15 \
	knormThreshold       0 \
	maxThreshold         no \
	energyDiffThreshold  1e-08 \
	nEnergyDiff          2 \
	alphaTstart          1 \
	alphaTmin            1e-10 \
	updateTestStepSize   yes \
	alphaTreduceFactor   0.1 \
	alphaTincreaseFactor 3 \
	nAlphaAdjustMax      3 \
	wolfeEnergy          0.0001 \
	wolfeGradient        0.9 \
	fdTest               no
electronic-scf  \
	nIterations	50 \
	energyDiffThreshold	1e-08 \
	residualThreshold	1e-07 \
	mixFraction	0.5 \
	qMetric	0.8 \
	history	10 \
	nEigSteps	2 \
	eigDiffThreshold	1e-08 \
	mixedVariable	Density \
	qKerker	0.8 \
	qKappa	-1 \
	verbose	no \
	mixFractionMag	1.5
exchange-regularization WignerSeitzTruncated
fluid None
fluid-ex-corr lda-TF lda-PZ
fluid-gummel-loop 10 1.000000e-05
fluid-minimize  \
	dirUpdateScheme      PolakRibiere \
	linminMethod         DirUpdateRecommended \
	nIterations          100 \
	history              15 \
	knormThreshold       0 \
	maxThreshold         no \
	energyDiffThreshold  0 \
	nEnergyDiff          2 \
	alphaTstart          1 \
	alphaTmin            1e-10 \
	updateTestStepSize   yes \
	alphaTreduceFactor   0.1 \
	alphaTincreaseFactor 3 \
	nAlphaAdjustMax      3 \
	wolfeEnergy          0.0001 \
	wolfeGradient        0.9 \
	fdTest               no
fluid-solvent H2O 55.338 ScalarEOS \
	epsBulk 78.4 \
	pMol 0.92466 \
	epsInf 1.77 \
	Pvap 1.06736e-10 \
	sigmaBulk 4.62e-05 \
	Rvdw 2.61727 \
	Res 1.42 \
	tauNuc 343133 \
	poleEl 15 7 1
forces-output-coords Positions
ion Co  -0.000000000000000   0.000000000000000  -0.000000000000000 1
ion Co  -0.015420000000000   0.250840000000000   0.234650000000000 1
ion Co   0.268950000000000   0.000980000000000   0.234180000000000 1
ion Co   0.245150000000000   0.248630000000000  -0.015840000000000 1
ion Co   0.008980000000000  -0.003980000000000   0.504950000000000 1
ion Co  -0.017480000000000   0.259230000000000   0.744520000000000 1
ion Co   0.276120000000000   0.001830000000000   0.765730000000000 1
ion Co   0.254490000000000   0.254610000000000   0.491160000000000 1
ion Co  -0.009400000000000   0.493780000000000   0.004350000000000 1
ion Co   0.012250000000000   0.762830000000000   0.261530000000000 1
ion Co   0.252120000000000   0.505150000000000   0.255740000000000 1
ion Co   0.253530000000000   0.758720000000000  -0.014090000000000 1
ion Co  -0.005070000000000   0.486960000000000   0.508170000000000 1
ion Co   0.005290000000000   0.756870000000000   0.752480000000000 1
ion Co   0.240230000000000   0.495400000000000   0.743830000000000 1
ion Co   0.255240000000000   0.752220000000000   0.502580000000000 1
ion Co   0.510320000000000  -0.005520000000000  -0.007570000000000 1
ion Co   0.493970000000000   0.252900000000000   0.260100000000000 1
ion Co   0.743080000000000  -0.000680000000000   0.233050000000000 1
ion Co   0.752630000000000   0.248760000000000  -0.009390000000000 1
ion Co   0.498860000000000  -0.000750000000000   0.497850000000000 1
ion Co   0.476320000000000   0.243570000000000   0.759140000000000 1
ion Co   0.764290000000000  -0.011520000000000   0.732230000000000 1
ion Co   0.763850000000000   0.243430000000000   0.501530000000000 1
ion Co   0.479450000000000   0.503760000000000   0.012140000000000 1
ion Co   0.485150000000000   0.761940000000000   0.261150000000000 1
ion Co   0.745070000000000   0.498250000000000   0.246330000000000 1
ion Co   0.753100000000000   0.747720000000000  -0.008950000000000 1
ion Co   0.498980000000000   0.505240000000000   0.501930000000000 1
ion Co   0.504490000000000   0.750890000000000   0.742420000000000 1
ion Co   0.746450000000000   0.505790000000000   0.764440000000000 1
ion Co   0.747700000000000   0.744710000000000   0.504070000000000 1
ion O   0.622000000000000   0.680000000000000   0.119000000000000 1
ion-species GBRV/$ID_pbesol.uspp
ion-width 0
ionic-minimize  \
	dirUpdateScheme      L-BFGS \
	linminMethod         DirUpdateRecommended \
	nIterations          30 \
	history              15 \
	knormThreshold       0.0001 \
	maxThreshold         no \
	energyDiffThreshold  1e-06 \
	nEnergyDiff          2 \
	alphaTstart          1 \
	alphaTmin            1e-10 \
	updateTestStepSize   yes \
	alphaTreduceFactor   0.1 \
	alphaTincreaseFactor 3 \
	nAlphaAdjustMax      3 \
	wolfeEnergy          0.0001 \
	wolfeGradient        0.9 \
	fdTest               no
kpoint   0.000000000000   0.000000000000   0.000000000000  1.00000000000000
kpoint-folding 4 4 4 
latt-move-scale 1 1 1
latt-scale 1 1 1 
lattice  \
	  12.935042626558744    0.000000000000000    0.000000000000000  \
	   0.000000000000000   12.935042626558744    0.000000000000000  \
	   0.000000000000000    0.000000000000000   12.935042626558744 
lattice-minimize  \
	dirUpdateScheme      L-BFGS \
	linminMethod         DirUpdateRecommended \
	nIterations          0 \
	history              15 \
	knormThreshold       0 \
	maxThreshold         no \
	energyDiffThreshold  1e-06 \
	nEnergyDiff          2 \
	alphaTstart          1 \
	alphaTmin            1e-10 \
	updateTestStepSize   yes \
	alphaTreduceFactor   0.1 \
	alphaTincreaseFactor 3 \
	nAlphaAdjustMax      3 \
	wolfeEnergy          0.0001 \
	wolfeGradient        0.9 \
	fdTest               no
lcao-params -1 1e-06 0.01
pcm-variant GLSSA13
perturb-minimize  \
	nIterations            0 \
	algorithm              MINRES \
	residualTol            0.0001 \
	residualDiffThreshold  0.0001 \
	CGBypass               no \
	recomputeResidual      no
spintype no-spin
subspace-rotation-factor 1 yes
symmetries automatic
symmetry-threshold 0.0001



---------- Setting up symmetries ----------

Found 48 point-group symmetries of the bravais lattice
Found 1 space-group symmetries with basis
Applied RMS atom displacement 0 bohrs to make symmetries exact.

---------- Initializing the Grid ----------
R = 
[       12.935            0            0  ]
[            0       12.935            0  ]
[            0            0       12.935  ]
unit cell volume = 2164.23
G =
[   0.485749          0          0  ]
[          0   0.485749          0  ]
[          0          0   0.485749  ]
Minimum fftbox size, Smin = [  60  60  60  ]
Chosen fftbox size, S = [  60  60  60  ]

---------- Initializing tighter grid for wavefunction operations ----------
R = 
[       12.935            0            0  ]
[            0       12.935            0  ]
[            0            0       12.935  ]
unit cell volume = 2164.23
G =
[   0.485749          0          0  ]
[          0   0.485749          0  ]
[          0          0   0.485749  ]
Minimum fftbox size, Smin = [  56  56  56  ]
Chosen fftbox size, S = [  56  56  56  ]

---------- Exchange Correlation functional ----------
Initalized PBEsol GGA exchange.
Initalized PBEsol GGA correlation.

---------- Setting up pseudopotentials ----------
Width of ionic core gaussian charges (only for fluid interactions / plotting) set to 0

Reading pseudopotential file '/home/rc652/build/pseudopotentials/GBRV/co_pbesol.uspp':
  Title: Co.  Created by USPP 7.3.6 on 3-2-2014
  Reference state energy: -148.473209.  17 valence electrons in orbitals:
    |300>  occupation: 2  eigenvalue: -4.077719
    |310>  occupation: 6  eigenvalue: -2.732332
    |320>  occupation: 7  eigenvalue: -0.624325
    |400>  occupation: 1  eigenvalue: -0.468864
    |410>  occupation: 0  eigenvalue: -0.272586
  lMax: 2  lLocal: 3  QijEcut: 6
  6 projectors sampled on a log grid with 609 points:
    l: 0  eig: -4.077719  rCut: 1.5
    l: 0  eig: -0.468864  rCut: 1.5
    l: 1  eig: -2.732332  rCut: 1.5
    l: 1  eig: -0.272586  rCut: 1.5
    l: 2  eig: -0.624325  rCut: 1.55
    l: 2  eig: -1.000000  rCut: 1.55
  Partial core density with radius 0.65
  Transforming core density to a uniform radial grid of dG=0.02 with 1268 points.
  Transforming local potential to a uniform radial grid of dG=0.02 with 1268 points.
  Transforming nonlocal projectors to a uniform radial grid of dG=0.02 with 432 points.
  Transforming density augmentations to a uniform radial grid of dG=0.02 with 1268 points.
  Transforming atomic orbitals to a uniform radial grid of dG=0.02 with 432 points.
  Core radius for overlap checks: 1.55 bohrs.

Reading pseudopotential file '/home/rc652/build/pseudopotentials/GBRV/o_pbesol.uspp':
  Title: O.  Created by USPP 7.3.6 on 3-2-2014
  Reference state energy: -15.849885.  6 valence electrons in orbitals:
    |200>  occupation: 2  eigenvalue: -0.873214
    |210>  occupation: 4  eigenvalue: -0.330058
  lMax: 2  lLocal: 2  QijEcut: 6
  5 projectors sampled on a log grid with 511 points:
    l: 0  eig: -0.873214  rCut: 1.25
    l: 0  eig: 0.000000  rCut: 1.25
    l: 1  eig: -0.330058  rCut: 1.25
    l: 1  eig: 0.000000  rCut: 1.25
    l: 2  eig: 1.000000  rCut: 1.25
  Partial core density with radius 0.7
  Transforming core density to a uniform radial grid of dG=0.02 with 1268 points.
  Transforming local potential to a uniform radial grid of dG=0.02 with 1268 points.
  Transforming nonlocal projectors to a uniform radial grid of dG=0.02 with 432 points.
  Transforming density augmentations to a uniform radial grid of dG=0.02 with 1268 points.
  Transforming atomic orbitals to a uniform radial grid of dG=0.02 with 432 points.
  Core radius for overlap checks: 1.25 bohrs.

Initialized 2 species with 33 total atoms.

Folded 1 k-points by 4x4x4 to 64 k-points.

---------- Setting up k-points, bands, fillings ----------
Adding inversion symmetry to k-mesh for non-inversion-symmetric unit cell.
Reduced to 36 k-points under symmetry. 
Computing the number of bands and number of electrons
Calculating initial fillings.
nElectrons: 550.000000   nBands: 420   nStates: 36

----- Setting up reduced wavefunction bases (one per k-point) -----
average nbasis = 9243.766 , ideal nbasis = 9245.759

---------- Setting up ewald sum ----------
Optimum gaussian width for ewald sums = 2.881325 bohr.
Real space sum over 729 unit cells with max indices [  4  4  4  ]
Reciprocal space sum over 4913 terms with max indices [  8  8  8  ]

---------- Allocating electronic variables ----------
Initializing wave functions:  linear combination of atomic orbitals
Co pseudo-atom occupations:   s ( 2 0 )  p ( 6 0 )  d ( 9 )
O pseudo-atom occupations:   s ( 2 )  p ( 4 )
	FillingsUpdate:  mu: +0.084144977  nElectrons: 550.000000
LCAOMinimize: Iter:   0  F: -4714.2414564510481796  |grad|_K:  6.536e-03  alpha:  1.000e+00
	FillingsUpdate:  mu: +1.173955058  nElectrons: 550.000000
LCAOMinimize: Iter:   1  F: -4733.8299813542816992  |grad|_K:  1.818e-02  alpha:  3.438e-01  linmin:  4.839e-02  cgtest: -1.540e-01  t[s]:     83.51
LCAOMinimize: 	Step increased F by 7.798715e+01, reducing alpha to 1.150840e-02.
	FillingsUpdate:  mu: +1.302919161  nElectrons: 550.000000
LCAOMinimize: Iter:   2  F: -4737.1921928197143643  |grad|_K:  1.880e-02  alpha:  1.151e-02  linmin:  2.800e-03  cgtest:  8.902e-01  t[s]:    139.00
LCAOMinimize: 	Predicted alpha/alphaT>3.000000, increasing alphaT to 3.452520e-02.
	FillingsUpdate:  mu: +1.056241225  nElectrons: 550.000000
LCAOMinimize: Iter:   3  F: -4764.1745657259043583  |grad|_K:  6.416e-03  alpha:  2.296e-02  linmin:  9.620e-02  cgtest: -3.154e-01  t[s]:    178.40
	FillingsUpdate:  mu: +0.992587517  nElectrons: 550.000000
LCAOMinimize: Iter:   4  F: -4766.1682847650972690  |grad|_K:  3.921e-03  alpha:  2.004e-02  linmin: -1.331e-02  cgtest:  6.488e-01  t[s]:    209.68
LCAOMinimize: Encountered beta<0, resetting CG.
	FillingsUpdate:  mu: +0.967344921  nElectrons: 550.000000
LCAOMinimize: Iter:   5  F: -4767.5444931571855705  |grad|_K:  2.548e-03  alpha:  2.910e-02  linmin:  5.414e-02  cgtest: -1.563e-01  t[s]:    240.71
	FillingsUpdate:  mu: +0.952137402  nElectrons: 550.000000
LCAOMinimize: Iter:   6  F: -4768.4398893341603980  |grad|_K:  3.470e-03  alpha:  5.513e-02  linmin:  3.002e-02  cgtest:  4.351e-01  t[s]:    271.92
	FillingsUpdate:  mu: +0.901506957  nElectrons: 550.000000
LCAOMinimize: Iter:   7  F: -4769.4824672293270851  |grad|_K:  2.288e-03  alpha:  3.243e-02  linmin:  1.721e-03  cgtest:  2.437e-01  t[s]:    304.14
	FillingsUpdate:  mu: +0.839642034  nElectrons: 550.000000
LCAOMinimize: Iter:   8  F: -4770.0285510298308509  |grad|_K:  9.205e-04  alpha:  3.283e-02  linmin: -1.390e-02  cgtest: -9.595e-02  t[s]:    335.45
	FillingsUpdate:  mu: +0.830596245  nElectrons: 550.000000
LCAOMinimize: Iter:   9  F: -4770.1430653769002674  |grad|_K:  6.464e-04  alpha:  4.175e-02  linmin:  1.330e-02  cgtest: -7.957e-02  t[s]:    366.20
	FillingsUpdate:  mu: +0.820214075  nElectrons: 550.000000
LCAOMinimize: Iter:  10  F: -4770.1961326951950468  |grad|_K:  4.780e-04  alpha:  4.151e-02  linmin:  3.680e-03  cgtest:  2.333e-01  t[s]:    399.18
	FillingsUpdate:  mu: +0.810024311  nElectrons: 550.000000
LCAOMinimize: Iter:  11  F: -4770.2333504231064580  |grad|_K:  4.227e-04  alpha:  5.148e-02  linmin: -3.301e-04  cgtest: -5.874e-03  t[s]:    431.54
	FillingsUpdate:  mu: +0.800113395  nElectrons: 550.000000
LCAOMinimize: Iter:  12  F: -4770.2561461905725082  |grad|_K:  2.285e-04  alpha:  4.005e-02  linmin: -7.912e-04  cgtest: -2.521e-02  t[s]:    463.16
	FillingsUpdate:  mu: +0.795014993  nElectrons: 550.000000
LCAOMinimize: Iter:  13  F: -4770.2645981235509680  |grad|_K:  1.597e-04  alpha:  5.056e-02  linmin: -1.055e-03  cgtest:  5.803e-04  t[s]:    494.62
	FillingsUpdate:  mu: +0.792584146  nElectrons: 550.000000
LCAOMinimize: Iter:  14  F: -4770.2681186483914644  |grad|_K:  1.178e-04  alpha:  4.315e-02  linmin: -5.119e-05  cgtest: -6.112e-03  t[s]:    526.35
	FillingsUpdate:  mu: +0.791225958  nElectrons: 550.000000
LCAOMinimize: Iter:  15  F: -4770.2698817152531774  |grad|_K:  6.353e-05  alpha:  3.982e-02  linmin:  1.129e-04  cgtest:  8.935e-03  t[s]:    558.39
	FillingsUpdate:  mu: +0.789896768  nElectrons: 550.000000
LCAOMinimize: Iter:  16  F: -4770.2706630393959131  |grad|_K:  5.502e-05  alpha:  6.067e-02  linmin: -3.219e-04  cgtest:  1.803e-03  t[s]:    590.02
	FillingsUpdate:  mu: +0.789058597  nElectrons: 550.000000
LCAOMinimize: Iter:  17  F: -4770.2710123012420809  |grad|_K:  3.429e-05  alpha:  3.615e-02  linmin:  7.485e-05  cgtest: -7.501e-03  t[s]:    621.56
	FillingsUpdate:  mu: +0.788695669  nElectrons: 550.000000
LCAOMinimize: Iter:  18  F: -4770.2712212764545257  |grad|_K:  2.470e-05  alpha:  5.572e-02  linmin:  2.390e-05  cgtest:  1.249e-03  t[s]:    653.27
	FillingsUpdate:  mu: +0.788622709  nElectrons: 550.000000
LCAOMinimize: Iter:  19  F: -4770.2713258033854800  |grad|_K:  2.047e-05  alpha:  5.369e-02  linmin:  1.371e-04  cgtest:  5.034e-04  t[s]:    685.44
	FillingsUpdate:  mu: +0.788534697  nElectrons: 550.000000
LCAOMinimize: Iter:  20  F: -4770.2713792706745153  |grad|_K:  1.537e-05  alpha:  4.002e-02  linmin:  1.237e-05  cgtest:  2.760e-03  t[s]:    716.90
	FillingsUpdate:  mu: +0.788389803  nElectrons: 550.000000
LCAOMinimize: Iter:  21  F: -4770.2714378100590693  |grad|_K:  1.411e-05  alpha:  7.769e-02  linmin: -9.465e-05  cgtest: -2.439e-04  t[s]:    748.54
	FillingsUpdate:  mu: +0.788409011  nElectrons: 550.000000
LCAOMinimize: Iter:  22  F: -4770.2714734106730248  |grad|_K:  1.393e-05  alpha:  5.601e-02  linmin:  7.110e-06  cgtest: -1.455e-03  t[s]:    780.60
	FillingsUpdate:  mu: +0.788473325  nElectrons: 550.000000
LCAOMinimize: Iter:  23  F: -4770.2715043380676434  |grad|_K:  1.037e-05  alpha:  4.994e-02  linmin:  4.273e-05  cgtest:  9.311e-04  t[s]:    812.54
	FillingsUpdate:  mu: +0.788550450  nElectrons: 550.000000
LCAOMinimize: Iter:  24  F: -4770.2715227795843020  |grad|_K:  7.781e-06  alpha:  5.376e-02  linmin:  7.113e-05  cgtest:  1.019e-03  t[s]:    844.34
	FillingsUpdate:  mu: +0.788604806  nElectrons: 550.000000
LCAOMinimize: Iter:  25  F: -4770.2715311348065370  |grad|_K:  5.814e-06  alpha:  4.328e-02  linmin:  1.519e-05  cgtest:  1.407e-03  t[s]:    876.56
	FillingsUpdate:  mu: +0.788615492  nElectrons: 550.000000
LCAOMinimize: Iter:  26  F: -4770.2715367237642567  |grad|_K:  3.998e-06  alpha:  5.183e-02  linmin:  2.578e-05  cgtest: -3.612e-04  t[s]:    908.28
	FillingsUpdate:  mu: +0.788635174  nElectrons: 550.000000
LCAOMinimize: Iter:  27  F: -4770.2715391677520529  |grad|_K:  3.387e-06  alpha:  4.793e-02  linmin:  2.805e-05  cgtest:  1.706e-04  t[s]:    939.56
	FillingsUpdate:  mu: +0.788676922  nElectrons: 550.000000
LCAOMinimize: Iter:  28  F: -4770.2715408007343285  |grad|_K:  2.187e-06  alpha:  4.463e-02  linmin:  1.645e-05  cgtest:  5.207e-04  t[s]:    971.11
	FillingsUpdate:  mu: +0.788698175  nElectrons: 550.000000
LCAOMinimize: Iter:  29  F: -4770.2715417673243792  |grad|_K:  1.882e-06  alpha:  6.333e-02  linmin:  1.533e-05  cgtest: -3.227e-05  t[s]:   1003.09
	FillingsUpdate:  mu: +0.788702262  nElectrons: 550.000000
LCAOMinimize: Iter:  30  F: -4770.2715422846977162  |grad|_K:  1.671e-06  alpha:  4.576e-02  linmin: -8.843e-05  cgtest:  9.549e-04  t[s]:   1034.42
LCAOMinimize: Converged (|Delta F|<1.000000e-06 for 2 iters).


---- Citations for features of the code used in this run ----

   Software package:
      R. Sundararaman, K. Letchworth-Weaver, K.A. Schwarz, D. Gunceler, Y. Ozhabes and T.A. Arias, 'JDFTx: software for joint density-functional theory', SoftwareX 6, 278 (2017)

   gga-PBEsol exchange-correlation functional:
      J.P. Perdew et al., Phys. Rev. Lett. 100, 136406 (2008)

   Pseudopotentials:
      KF Garrity, JW Bennett, KM Rabe and D Vanderbilt, Comput. Mater. Sci. 81, 446 (2014)

This list may not be complete. Please suggest additional citations or
report any other bugs at https://github.com/shankar1729/jdftx/issues

Initialization completed successfully at t[s]:   1045.53


-------- Electronic minimization -----------
Will mix electronic density at each iteration.
	FillingsUpdate:  mu: +0.788702262  nElectrons: 550.000000
	FillingsUpdate:  mu: +0.787342246  nElectrons: 550.000000
SCF: Cycle:  0   F: -4770.329113660503026   dF: -5.757e-02   |Residual|: 1.028e+00   |deigs|: 6.456e-02  t[s]:   1171.74
	FillingsUpdate:  mu: +0.721577726  nElectrons: 550.000000
SCF: Cycle:  1   F: -4770.421090454619844   dF: -9.198e-02   |Residual|: 8.981e-01   |deigs|: 5.683e-02  t[s]:   1275.78
	FillingsUpdate:  mu: +0.752098784  nElectrons: 550.000000
SCF: Cycle:  2   F: -4768.166559088786926   dF: +2.255e+00   |Residual|: 1.066e+00   |deigs|: 2.640e-02  t[s]:   1379.53
	FillingsUpdate:  mu: +0.752201000  nElectrons: 550.000000
SCF: Cycle:  3   F: -4770.955261381389391   dF: -2.789e+00   |Residual|: 2.917e-01   |deigs|: 3.768e-03  t[s]:   1482.92
	FillingsUpdate:  mu: +0.751536872  nElectrons: 550.000000
SCF: Cycle:  4   F: -4771.056397812201794   dF: -1.011e-01   |Residual|: 2.582e-01   |deigs|: 3.171e-03  t[s]:   1587.62
	FillingsUpdate:  mu: +0.751171747  nElectrons: 550.000000
SCF: Cycle:  5   F: -4770.849185065337224   dF: +2.072e-01   |Residual|: 3.733e-01   |deigs|: 8.056e-04  t[s]:   1693.51
	FillingsUpdate:  mu: +0.751111672  nElectrons: 550.000000
SCF: Cycle:  6   F: -4771.204869453605170   dF: -3.557e-01   |Residual|: 7.420e-02   |deigs|: 1.194e-03  t[s]:   1797.30
	FillingsUpdate:  mu: +0.751132275  nElectrons: 550.000000
SCF: Cycle:  7   F: -4771.202078299216737   dF: +2.791e-03   |Residual|: 7.979e-02   |deigs|: 2.550e-04  t[s]:   1859.87
	FillingsUpdate:  mu: +0.751164888  nElectrons: 550.000000
SCF: Cycle:  8   F: -4771.214878602638237   dF: -1.280e-02   |Residual|: 4.059e-02   |deigs|: 2.700e-04  t[s]:   1921.52
	FillingsUpdate:  mu: +0.751173886  nElectrons: 550.000000
SCF: Cycle:  9   F: -4771.218598511900382   dF: -3.720e-03   |Residual|: 1.415e-02   |deigs|: 1.005e-04  t[s]:   1984.63
	FillingsUpdate:  mu: +0.751250454  nElectrons: 550.000000
SCF: Cycle: 10   F: -4771.215975764572249   dF: +2.623e-03   |Residual|: 3.564e-02   |deigs|: 1.110e-04  t[s]:   2046.74
	FillingsUpdate:  mu: +0.751246279  nElectrons: 550.000000
SCF: Cycle: 11   F: -4771.219033516099444   dF: -3.058e-03   |Residual|: 4.466e-03   |deigs|: 7.963e-05  t[s]:   2108.55
	FillingsUpdate:  mu: +0.751252653  nElectrons: 550.000000
SCF: Cycle: 12   F: -4771.218613314962568   dF: +4.202e-04   |Residual|: 1.297e-02   |deigs|: 4.766e-05  t[s]:   2171.22
	FillingsUpdate:  mu: +0.751230908  nElectrons: 550.000000
SCF: Cycle: 13   F: -4771.218969988534809   dF: -3.567e-04   |Residual|: 6.247e-03   |deigs|: 3.864e-05  t[s]:   2234.14
	FillingsUpdate:  mu: +0.751226331  nElectrons: 550.000000
SCF: Cycle: 14   F: -4771.219043551148388   dF: -7.356e-05   |Residual|: 3.645e-03   |deigs|: 3.055e-05  t[s]:   2297.19
	FillingsUpdate:  mu: +0.751247264  nElectrons: 550.000000
SCF: Cycle: 15   F: -4771.219052917754198   dF: -9.367e-06   |Residual|: 3.056e-03   |deigs|: 2.342e-05  t[s]:   2359.37
	FillingsUpdate:  mu: +0.751245277  nElectrons: 550.000000
SCF: Cycle: 16   F: -4771.219032285232970   dF: +2.063e-05   |Residual|: 4.040e-03   |deigs|: 3.461e-05  t[s]:   2422.63
	FillingsUpdate:  mu: +0.751244383  nElectrons: 550.000000
SCF: Cycle: 17   F: -4771.219073666963595   dF: -4.138e-05   |Residual|: 1.389e-03   |deigs|: 2.293e-05  t[s]:   2483.71
	FillingsUpdate:  mu: +0.751245223  nElectrons: 550.000000
SCF: Cycle: 18   F: -4771.219059434341034   dF: +1.423e-05   |Residual|: 2.602e-03   |deigs|: 9.281e-06  t[s]:   2546.22
	FillingsUpdate:  mu: +0.751248248  nElectrons: 550.000000
SCF: Cycle: 19   F: -4771.219061483764563   dF: -2.049e-06   |Residual|: 2.494e-03   |deigs|: 9.643e-06  t[s]:   2607.83
	FillingsUpdate:  mu: +0.751248591  nElectrons: 550.000000
SCF: Cycle: 20   F: -4771.219070596558595   dF: -9.113e-06   |Residual|: 1.804e-03   |deigs|: 1.041e-05  t[s]:   2669.22
	FillingsUpdate:  mu: +0.751247592  nElectrons: 550.000000
SCF: Cycle: 21   F: -4771.219074582832036   dF: -3.986e-06   |Residual|: 1.186e-03   |deigs|: 5.358e-06  t[s]:   2731.81
	FillingsUpdate:  mu: +0.751247316  nElectrons: 550.000000
SCF: Cycle: 22   F: -4771.219076987154040   dF: -2.404e-06   |Residual|: 7.007e-04   |deigs|: 4.441e-06  t[s]:   2794.53
	FillingsUpdate:  mu: +0.751246189  nElectrons: 550.000000
SCF: Cycle: 23   F: -4771.219076827562276   dF: +1.596e-07   |Residual|: 7.210e-04   |deigs|: 4.676e-06  t[s]:   2857.63
	FillingsUpdate:  mu: +0.751244966  nElectrons: 550.000000
SCF: Cycle: 24   F: -4771.219077501757965   dF: -6.742e-07   |Residual|: 4.896e-04   |deigs|: 3.474e-06  t[s]:   2919.95
	FillingsUpdate:  mu: +0.751245006  nElectrons: 550.000000
SCF: Cycle: 25   F: -4771.219078063943925   dF: -5.622e-07   |Residual|: 1.960e-04   |deigs|: 1.807e-06  t[s]:   2983.58
	FillingsUpdate:  mu: +0.751245715  nElectrons: 550.000000
SCF: Cycle: 26   F: -4771.219077976169501   dF: +8.777e-08   |Residual|: 2.512e-04   |deigs|: 1.714e-06  t[s]:   3046.40
	FillingsUpdate:  mu: +0.751246464  nElectrons: 550.000000
SCF: Cycle: 27   F: -4771.219078066824295   dF: -9.065e-08   |Residual|: 1.801e-04   |deigs|: 1.895e-06  t[s]:   3109.20
	FillingsUpdate:  mu: +0.751246088  nElectrons: 550.000000
SCF: Cycle: 28   F: -4771.219078094306496   dF: -2.748e-08   |Residual|: 1.565e-04   |deigs|: 1.341e-06  t[s]:   3172.26
	FillingsUpdate:  mu: +0.751246130  nElectrons: 550.000000
SCF: Cycle: 29   F: -4771.219078018185428   dF: +7.612e-08   |Residual|: 2.204e-04   |deigs|: 8.280e-07  t[s]:   3234.81
	FillingsUpdate:  mu: +0.751245998  nElectrons: 550.000000
SCF: Cycle: 30   F: -4771.219077959867718   dF: +5.832e-08   |Residual|: 2.636e-04   |deigs|: 8.455e-07  t[s]:   3298.40
	FillingsUpdate:  mu: +0.751245877  nElectrons: 550.000000
SCF: Cycle: 31   F: -4771.219078100894876   dF: -1.410e-07   |Residual|: 1.484e-04   |deigs|: 9.904e-07  t[s]:   3360.85
	FillingsUpdate:  mu: +0.751245873  nElectrons: 550.000000
SCF: Cycle: 32   F: -4771.219078109867951   dF: -8.973e-09   |Residual|: 1.330e-04   |deigs|: 5.133e-07  t[s]:   3423.37
	FillingsUpdate:  mu: +0.751245883  nElectrons: 550.000000
SCF: Cycle: 33   F: -4771.219078099762555   dF: +1.011e-08   |Residual|: 1.507e-04   |deigs|: 6.276e-07  t[s]:   3485.87
	FillingsUpdate:  mu: +0.751245780  nElectrons: 550.000000
SCF: Cycle: 34   F: -4771.219078116919263   dF: -1.716e-08   |Residual|: 1.149e-04   |deigs|: 6.540e-07  t[s]:   3548.11
	FillingsUpdate:  mu: +0.751245875  nElectrons: 550.000000
SCF: Cycle: 35   F: -4771.219078139208250   dF: -2.229e-08   |Residual|: 7.059e-05   |deigs|: 4.820e-07  t[s]:   3611.48
	FillingsUpdate:  mu: +0.751245955  nElectrons: 550.000000
SCF: Cycle: 36   F: -4771.219078146370521   dF: -7.162e-09   |Residual|: 5.085e-05   |deigs|: 2.693e-07  t[s]:   3673.68
	FillingsUpdate:  mu: +0.751246035  nElectrons: 550.000000
SCF: Cycle: 37   F: -4771.219078151235408   dF: -4.865e-09   |Residual|: 2.937e-05   |deigs|: 2.643e-07  t[s]:   3730.37
SCF: Converged (|Delta E|<1.000000e-08 for 2 iters).

Setting wave functions to eigenvectors of Hamiltonian

# Ionic positions in lattice coordinates:
ion Co   0.000000000000000   0.000000000000000   0.000000000000000 1
ion Co  -0.015420000000000   0.250840000000000   0.234650000000000 1
ion Co   0.268950000000000   0.000980000000000   0.234180000000000 1
ion Co   0.245150000000000   0.248630000000000  -0.015840000000000 1
ion Co   0.008980000000000  -0.003980000000000   0.504950000000000 1
ion Co  -0.017480000000000   0.259230000000000   0.744520000000000 1
ion Co   0.276120000000000   0.001830000000000   0.765730000000000 1
ion Co   0.254490000000000   0.254610000000000   0.491160000000000 1
ion Co  -0.009400000000000   0.493780000000000   0.004350000000000 1
ion Co   0.012250000000000   0.762830000000000   0.261530000000000 1
ion Co   0.252120000000000   0.505150000000000   0.255740000000000 1
ion Co   0.253530000000000   0.758720000000000  -0.014090000000000 1
ion Co  -0.005070000000000   0.486960000000000   0.508170000000000 1
ion Co   0.005290000000000   0.756870000000000   0.752480000000000 1
ion Co   0.240230000000000   0.495400000000000   0.743830000000000 1
ion Co   0.255240000000000   0.752220000000000   0.502580000000000 1
ion Co   0.510320000000000  -0.005520000000000  -0.007570000000000 1
ion Co   0.493970000000000   0.252900000000000   0.260100000000000 1
ion Co   0.743080000000000  -0.000680000000000   0.233050000000000 1
ion Co   0.752630000000000   0.248760000000000  -0.009390000000000 1
ion Co   0.498860000000000  -0.000750000000000   0.497850000000000 1
ion Co   0.476320000000000   0.243570000000000   0.759140000000000 1
ion Co   0.764290000000000  -0.011520000000000   0.732230000000000 1
ion Co   0.763850000000000   0.243430000000000   0.501530000000000 1
ion Co   0.479450000000000   0.503760000000000   0.012140000000000 1
ion Co   0.485150000000000   0.761940000000000   0.261150000000000 1
ion Co   0.745070000000000   0.498250000000000   0.246330000000000 1
ion Co   0.753100000000000   0.747720000000000  -0.008950000000000 1
ion Co   0.498980000000000   0.505240000000000   0.501930000000000 1
ion Co   0.504490000000000   0.750890000000000   0.742420000000000 1
ion Co   0.746450000000000   0.505790000000000   0.764440000000000 1
ion Co   0.747700000000000   0.744710000000000   0.504070000000000 1
ion O   0.622000000000000   0.680000000000000   0.119000000000000 1

# Forces in Lattice coordinates:
force Co   0.044096298915386   0.013517837786188  -0.078168570028367 1
force Co   0.276452393014758  -0.084077457710880   0.291259784438893 1
force Co  -0.467259828909616   0.204340804784704   0.188949724145010 1
force Co  -0.119473530182793   0.094627375450329   0.440906409573259 1
force Co   0.058706186122863   0.136624458105639  -0.151031175711666 1
force Co   0.347295615355262  -0.233131559260845   0.192766112711801 1
force Co  -0.650016521708243  -0.182192473242982  -0.477331201720450 1
force Co  -0.185952205362515  -0.146539996199924   0.107063965551345 1
force Co   0.377592215810622   0.140290636956689  -0.129955033018611 1
force Co  -0.059223055086521  -0.151258964560209  -0.158039719515140 1
force Co  -0.363821338099090  -0.150415911004495   0.035921476911290 1
force Co  -0.272599726954261  -0.181919876604308   0.178059152253708 1
force Co   0.018853626648063   0.315282932834473  -0.263565459605263 1
force Co   0.084292741870975  -0.171620465443091  -0.162245928061683 1
force Co   0.104683523709684   0.116457418432157   0.081728075974466 1
force Co  -0.201790414175766  -0.006789542230887   0.122398855702306 1
force Co  -0.014380479910005   0.318501279385572   0.013644391700504 1
force Co   0.148173243128413  -0.069849901402253  -0.186716162214585 1
force Co   0.237103164657630   0.207866207238553   0.418589879981285 1
force Co  -0.218640434796828  -0.076446076190771   0.013376779181125 1
force Co   0.057989935587296   0.156401017098588   0.115320008214375 1
force Co   0.665173484816510   0.382348102422586  -0.263487720062958 1
force Co  -0.226097498977337   0.245203487980895   0.237079415875816 1
force Co  -0.372080247128321   0.053954779505194  -0.164911270678259 1
force Co  -0.223775453152416  -0.656705137846261  -0.636763384614036 1
force Co  -1.964192021109220   1.214027073340787   2.190285587869750 1
force Co   0.393483779108286  -0.441772147291828   0.508654254172983 1
force Co   4.901823118869848   2.749359593870704  -4.574793154414146 1
force Co   0.026858184553507  -0.234882528711758   0.129835432025013 1
force Co  -0.122612612167750  -0.052059539393595  -0.005303775568331 1
force Co   0.003146182498083  -0.216678729921924  -0.404183536257877 1
force Co   0.207082111133680   0.048603970284219  -0.082311189166057 1
force O  -2.465521715643395  -3.343911736913213   2.473523877088184 1

# Energy components:
   Eewald =    -3286.8861395213234573
       EH =     1371.3472908632306826
     Eloc =    -3865.5613420110557854
      Enl =      825.0346901191377356
      Exc =     -521.6706321149440555
 Exc_core =       16.9302168698748794
       KE =      690.1211692635375812
-------------------------------------
     Etot =    -4770.6847465315422596
       TS =        0.5343316196934564
-------------------------------------
        F =    -4771.2190781512354079

IonicMinimize: Iter:   0  F: -4771.219078151235408  |grad|_K:  7.450e-02  t[s]:   3741.38

#--- Lowdin population analysis ---
# oxidation-state Co +0.012 +0.021 +0.014 +0.013 +0.029 +0.012 +0.012 +0.023 +0.012 +0.023 +0.014 +0.006 +0.019 +0.006 +0.014 +0.005 -0.003 +0.016 +0.010 +0.012 +0.009 +0.025 +0.009 +0.024 +0.004 -0.036 +0.003 -0.043 +0.013 -0.004 +0.009 +0.010
# oxidation-state O +0.328


-------- Electronic minimization -----------
Will mix electronic density at each iteration.
	FillingsUpdate:  mu: +0.751246035  nElectrons: 550.000000
	FillingsUpdate:  mu: +0.750517667  nElectrons: 550.000000
SCF: Cycle:  0   F: -4760.094145190604650   dF: +1.068e+01   |Residual|: 1.703e+00   |deigs|: 1.658e-03  t[s]:   3884.45
	FillingsUpdate:  mu: +0.814817257  nElectrons: 550.000000
SCF: Cycle:  1   F: -4634.304090188878945   dF: +1.258e+02   |Residual|: 6.974e+00   |deigs|: 1.167e-01  t[s]:   3989.89
	FillingsUpdate:  mu: +0.776375868  nElectrons: 550.000000
SCF: Cycle:  2   F: -4729.202228598160218   dF: -9.490e+01   |Residual|: 4.351e+00   |deigs|: 7.368e-02  t[s]:   4095.50
	FillingsUpdate:  mu: +0.758245720  nElectrons: 550.000000
SCF: Cycle:  3   F: -4760.542184949586954   dF: -3.134e+01   |Residual|: 2.113e+00   |deigs|: 3.125e-02  t[s]:   4202.62
	FillingsUpdate:  mu: +0.755499352  nElectrons: 550.000000
SCF: Cycle:  4   F: -4762.787557736305644   dF: -2.245e+00   |Residual|: 1.784e+00   |deigs|: 8.565e-03  t[s]:   4308.54
	FillingsUpdate:  mu: +0.753465425  nElectrons: 550.000000
SCF: Cycle:  5   F: -4767.609297130684354   dF: -4.822e+00   |Residual|: 1.178e+00   |deigs|: 7.164e-03  t[s]:   4415.51
	FillingsUpdate:  mu: +0.752998257  nElectrons: 550.000000
SCF: Cycle:  6   F: -4761.004696046603385   dF: +6.605e+00   |Residual|: 1.912e+00   |deigs|: 5.993e-03  t[s]:   4521.33
	FillingsUpdate:  mu: +0.751743312  nElectrons: 550.000000
SCF: Cycle:  7   F: -4765.520139893257692   dF: -4.515e+00   |Residual|: 1.461e+00   |deigs|: 4.911e-03  t[s]:   4626.10
	FillingsUpdate:  mu: +0.750604865  nElectrons: 550.000000
SCF: Cycle:  8   F: -4770.756873417058159   dF: -5.237e+00   |Residual|: 4.865e-01   |deigs|: 4.954e-03  t[s]:   4732.65
	FillingsUpdate:  mu: +0.750754103  nElectrons: 550.000000
SCF: Cycle:  9   F: -4770.634492178445726   dF: +1.224e-01   |Residual|: 4.957e-01   |deigs|: 2.242e-03  t[s]:   4838.35
	FillingsUpdate:  mu: +0.751215148  nElectrons: 550.000000
SCF: Cycle: 10   F: -4770.534953528073856   dF: +9.954e-02   |Residual|: 5.203e-01   |deigs|: 1.496e-03  t[s]:   4943.53
	FillingsUpdate:  mu: +0.751505710  nElectrons: 550.000000
SCF: Cycle: 11   F: -4770.921507034528076   dF: -3.866e-01   |Residual|: 3.673e-01   |deigs|: 1.252e-03  t[s]:   5047.81
	FillingsUpdate:  mu: +0.751264686  nElectrons: 550.000000
SCF: Cycle: 12   F: -4771.059986592616042   dF: -1.385e-01   |Residual|: 3.012e-01   |deigs|: 1.341e-03  t[s]:   5147.81
	FillingsUpdate:  mu: +0.750892371  nElectrons: 550.000000
SCF: Cycle: 13   F: -4771.264790879374232   dF: -2.048e-01   |Residual|: 1.148e-01   |deigs|: 5.627e-04  t[s]:   5242.50
	FillingsUpdate:  mu: +0.751000715  nElectrons: 550.000000
SCF: Cycle: 14   F: -4771.248198926616169   dF: +1.659e-02   |Residual|: 1.406e-01   |deigs|: 3.171e-04  t[s]:   5305.30
	FillingsUpdate:  mu: +0.750940181  nElectrons: 550.000000
SCF: Cycle: 15   F: -4771.182756227683967   dF: +6.544e-02   |Residual|: 2.045e-01   |deigs|: 5.252e-04  t[s]:   5366.04
	FillingsUpdate:  mu: +0.751048426  nElectrons: 550.000000
SCF: Cycle: 16   F: -4771.246450392092811   dF: -6.369e-02   |Residual|: 1.468e-01   |deigs|: 3.447e-04  t[s]:   5428.26
	FillingsUpdate:  mu: +0.751012791  nElectrons: 550.000000
SCF: Cycle: 17   F: -4771.293489537494679   dF: -4.704e-02   |Residual|: 4.342e-02   |deigs|: 3.199e-04  t[s]:   5491.33
	FillingsUpdate:  mu: +0.751026826  nElectrons: 550.000000
SCF: Cycle: 18   F: -4771.288615773753918   dF: +4.874e-03   |Residual|: 5.914e-02   |deigs|: 1.716e-04  t[s]:   5555.33
	FillingsUpdate:  mu: +0.751100125  nElectrons: 550.000000
SCF: Cycle: 19   F: -4771.245214318020771   dF: +4.340e-02   |Residual|: 1.490e-01   |deigs|: 5.461e-04  t[s]:   5659.52
	FillingsUpdate:  mu: +0.751035130  nElectrons: 550.000000
SCF: Cycle: 20   F: -4771.290416083633318   dF: -4.520e-02   |Residual|: 5.644e-02   |deigs|: 5.568e-04  t[s]:   5726.83
	FillingsUpdate:  mu: +0.751018746  nElectrons: 550.000000
SCF: Cycle: 21   F: -4771.293771927643320   dF: -3.356e-03   |Residual|: 3.766e-02   |deigs|: 1.824e-04  t[s]:   5789.93
	FillingsUpdate:  mu: +0.751050068  nElectrons: 550.000000
SCF: Cycle: 22   F: -4771.291015116368726   dF: +2.757e-03   |Residual|: 5.222e-02   |deigs|: 2.107e-04  t[s]:   5852.18
	FillingsUpdate:  mu: +0.751002946  nElectrons: 550.000000
SCF: Cycle: 23   F: -4771.280411787820412   dF: +1.060e-02   |Residual|: 7.868e-02   |deigs|: 2.735e-04  t[s]:   5915.53
	FillingsUpdate:  mu: +0.751005272  nElectrons: 550.000000
SCF: Cycle: 24   F: -4771.296207521500946   dF: -1.580e-02   |Residual|: 2.601e-02   |deigs|: 1.797e-04  t[s]:   5979.96
	FillingsUpdate:  mu: +0.751014852  nElectrons: 550.000000
SCF: Cycle: 25   F: -4771.297577030231878   dF: -1.370e-03   |Residual|: 1.188e-02   |deigs|: 1.041e-04  t[s]:   6043.18
	FillingsUpdate:  mu: +0.751020252  nElectrons: 550.000000
SCF: Cycle: 26   F: -4771.297326708118817   dF: +2.503e-04   |Residual|: 1.563e-02   |deigs|: 4.772e-05  t[s]:   6106.23
	FillingsUpdate:  mu: +0.751021549  nElectrons: 550.000000
SCF: Cycle: 27   F: -4771.295768144903377   dF: +1.559e-03   |Residual|: 2.954e-02   |deigs|: 7.095e-05  t[s]:   6167.75
	FillingsUpdate:  mu: +0.751019628  nElectrons: 550.000000
SCF: Cycle: 28   F: -4771.297618971378142   dF: -1.851e-03   |Residual|: 1.110e-02   |deigs|: 6.429e-05  t[s]:   6228.92
	FillingsUpdate:  mu: +0.751025268  nElectrons: 550.000000
SCF: Cycle: 29   F: -4771.296551430475120   dF: +1.068e-03   |Residual|: 2.266e-02   |deigs|: 6.399e-05  t[s]:   6291.24
	FillingsUpdate:  mu: +0.751019992  nElectrons: 550.000000
SCF: Cycle: 30   F: -4771.297673610885795   dF: -1.122e-03   |Residual|: 1.064e-02   |deigs|: 7.069e-05  t[s]:   6352.73
	FillingsUpdate:  mu: +0.751022244  nElectrons: 550.000000
SCF: Cycle: 31   F: -4771.297588071918653   dF: +8.554e-05   |Residual|: 1.137e-02   |deigs|: 5.952e-05  t[s]:   6414.77
	FillingsUpdate:  mu: +0.751021366  nElectrons: 550.000000
SCF: Cycle: 32   F: -4771.297916909920787   dF: -3.288e-04   |Residual|: 3.262e-03   |deigs|: 2.461e-05  t[s]:   6477.49
	FillingsUpdate:  mu: +0.751023962  nElectrons: 550.000000
SCF: Cycle: 33   F: -4771.297680771351224   dF: +2.361e-04   |Residual|: 9.678e-03   |deigs|: 3.313e-05  t[s]:   6539.58
	FillingsUpdate:  mu: +0.751022047  nElectrons: 550.000000
SCF: Cycle: 34   F: -4771.297902614946906   dF: -2.218e-04   |Residual|: 3.760e-03   |deigs|: 3.192e-05  t[s]:   6602.60
	FillingsUpdate:  mu: +0.751022888  nElectrons: 550.000000
SCF: Cycle: 35   F: -4771.297909463796714   dF: -6.849e-06   |Residual|: 3.604e-03   |deigs|: 1.389e-05  t[s]:   6666.07
	FillingsUpdate:  mu: +0.751021843  nElectrons: 550.000000
SCF: Cycle: 36   F: -4771.297934990727299   dF: -2.553e-05   |Residual|: 1.435e-03   |deigs|: 1.500e-05  t[s]:   6729.12
	FillingsUpdate:  mu: +0.751022058  nElectrons: 550.000000
SCF: Cycle: 37   F: -4771.297937513750185   dF: -2.523e-06   |Residual|: 1.129e-03   |deigs|: 4.658e-06  t[s]:   6790.61
	FillingsUpdate:  mu: +0.751022764  nElectrons: 550.000000
SCF: Cycle: 38   F: -4771.297934273641658   dF: +3.240e-06   |Residual|: 1.603e-03   |deigs|: 6.221e-06  t[s]:   6854.31
	FillingsUpdate:  mu: +0.751022221  nElectrons: 550.000000
SCF: Cycle: 39   F: -4771.297927061524206   dF: +7.212e-06   |Residual|: 2.313e-03   |deigs|: 7.786e-06  t[s]:   6916.89
	FillingsUpdate:  mu: +0.751022859  nElectrons: 550.000000
SCF: Cycle: 40   F: -4771.297928426846738   dF: -1.365e-06   |Residual|: 2.026e-03   |deigs|: 6.715e-06  t[s]:   6980.10
	FillingsUpdate:  mu: +0.751022730  nElectrons: 550.000000
SCF: Cycle: 41   F: -4771.297937904539140   dF: -9.478e-06   |Residual|: 1.051e-03   |deigs|: 5.128e-06  t[s]:   7043.51
	FillingsUpdate:  mu: +0.751022574  nElectrons: 550.000000
SCF: Cycle: 42   F: -4771.297936610329998   dF: +1.294e-06   |Residual|: 1.198e-03   |deigs|: 6.044e-06  t[s]:   7106.64
	FillingsUpdate:  mu: +0.751022544  nElectrons: 550.000000
SCF: Cycle: 43   F: -4771.297939146320459   dF: -2.536e-06   |Residual|: 7.712e-04   |deigs|: 3.106e-06  t[s]:   7168.90
	FillingsUpdate:  mu: +0.751022603  nElectrons: 550.000000
SCF: Cycle: 44   F: -4771.297939078998752   dF: +6.732e-08   |Residual|: 7.358e-04   |deigs|: 2.984e-06  t[s]:   7231.81
	FillingsUpdate:  mu: +0.751022613  nElectrons: 550.000000
SCF: Cycle: 45   F: -4771.297939767361640   dF: -6.884e-07   |Residual|: 5.415e-04   |deigs|: 2.838e-06  t[s]:   7294.04
	FillingsUpdate:  mu: +0.751022474  nElectrons: 550.000000
SCF: Cycle: 46   F: -4771.297940154536263   dF: -3.872e-07   |Residual|: 4.253e-04   |deigs|: 1.830e-06  t[s]:   7356.93
	FillingsUpdate:  mu: +0.751022688  nElectrons: 550.000000
SCF: Cycle: 47   F: -4771.297940283487151   dF: -1.290e-07   |Residual|: 3.396e-04   |deigs|: 2.198e-06  t[s]:   7419.46
	FillingsUpdate:  mu: +0.751022676  nElectrons: 550.000000
SCF: Cycle: 48   F: -4771.297940555908099   dF: -2.724e-07   |Residual|: 1.499e-04   |deigs|: 9.572e-07  t[s]:   7484.04
	FillingsUpdate:  mu: +0.751022699  nElectrons: 550.000000
SCF: Cycle: 49   F: -4771.297940540016498   dF: +1.589e-08   |Residual|: 1.716e-04   |deigs|: 5.774e-07  t[s]:   7544.48
Setting wave functions to eigenvectors of Hamiltonian

# Ionic positions in lattice coordinates:
ion Co   0.000046225407147   0.000014513925789  -0.000083414656224 1
ion Co  -0.015125877928615   0.250750391207197   0.234960722011903 1
ion Co   0.268450668473007   0.001198099621108   0.234381569192981 1
ion Co   0.245021715609327   0.248731048276880  -0.015369622613749 1
ion Co   0.009041812440995  -0.003834145768113   0.504788849500580 1
ion Co  -0.017110296530287   0.258981367985928   0.744725640831380 1
ion Co   0.275425688544947   0.001635714008364   0.765220725693878 1
ion Co   0.254290790670242   0.254453751014301   0.491274206705318 1
ion Co  -0.008997973615669   0.493929765614161   0.004211335269627 1
ion Co   0.012185995790370   0.762668716429262   0.261361372207433 1
ion Co   0.251731025194767   0.504989615868397   0.255778306024995 1
ion Co   0.253238347940688   0.758526004836964  -0.013900049768226 1
ion Co  -0.005050705559634   0.487296461842567   0.507888788635821 1
ion Co   0.005379110291064   0.756686993099098   0.752306884676896 1
ion Co   0.240340864860569   0.495524338368996   0.743917176286616 1
ion Co   0.255023893161496   0.752212848336233   0.502710567232162 1
ion Co   0.510303837551720  -0.005180104559629  -0.007555461008679 1
ion Co   0.494127263283707   0.252825570338878   0.259900777810867 1
ion Co   0.743332141065946  -0.000458139188501   0.233496568270055 1
ion Co   0.752395916168379   0.248678532995041  -0.009375746519808 1
ion Co   0.498921048285791  -0.000583046502249   0.497973014933241 1
ion Co   0.477028841824487   0.243978012502307   0.758858871574783 1
ion Co   0.764047960356665  -0.011258304694882   0.732482917921651 1
ion Co   0.763452213908769   0.243487655393642   0.501354041069345 1
ion Co   0.479210437706856   0.503059464722544   0.011460630278629 1
ion Co   0.483053617625363   0.763235316290945   0.263486759520397 1
ion Co   0.745488980816047   0.497778772981489   0.246872656380054 1
ion Co   0.758328849427032   0.750653335779140  -0.013830784999018 1
ion Co   0.499007834363587   0.504989499907159   0.502068501185739 1
ion Co   0.504358366577507   0.750834550565820   0.742414323522140 1
ion Co   0.746452536442158   0.505558921222593   0.764008765662381 1
ion Co   0.747920112127543   0.744761946708609   0.503982165655670 1
ion O   0.619368757718029   0.676432530869962   0.121638941511164 1

# Forces in Lattice coordinates:
force Co   0.050146432119231   0.024257982839577  -0.073948695056187 1
force Co   0.271613331041424  -0.082376769329377   0.281989317490474 1
force Co  -0.470095916497978   0.213545448463238   0.180730767508388 1
force Co  -0.105389572006004   0.086081147454911   0.418943709306416 1
force Co   0.051496439737494   0.135468107037036  -0.148542031264545 1
force Co   0.337870288589984  -0.226186879152423   0.180680657407698 1
force Co  -0.625498172931976  -0.161018867543625  -0.456869585447617 1
force Co  -0.181622351120210  -0.141782972990356   0.107033965257543 1
force Co   0.360026081428201   0.134213081263818  -0.123836301027472 1
force Co  -0.065333365075364  -0.148869326245764  -0.160323007145370 1
force Co  -0.351074563016790  -0.151629222035323   0.033368439069483 1
force Co  -0.259043530374135  -0.175963913685011   0.177647127397996 1
force Co   0.018588293007809   0.302754269426154  -0.255224506520186 1
force Co   0.091172504785156  -0.170302447828281  -0.171759009485211 1
force Co   0.103890152141463   0.110538836295692   0.078963026366313 1
force Co  -0.209803716057127  -0.009075453228495   0.131145165834913 1
force Co  -0.007520350656899   0.282281342993649   0.019551372661809 1
force Co   0.140311396580760  -0.074779465967480  -0.180423482781906 1
force Co   0.224235395362448   0.171123433241667   0.393870088592295 1
force Co  -0.206481976385696  -0.072387972264699   0.013779940981425 1
force Co   0.057472681363398   0.166799451279496   0.125251449636925 1
force Co   0.635790975488510   0.358543661719816  -0.251826288390424 1
force Co  -0.219363208439052   0.248349566356898   0.219696971205686 1
force Co  -0.357720038936329   0.054739741232527  -0.155602689499821 1
force Co  -0.214580124485833  -0.635625457925604  -0.653677982176100 1
force Co  -1.770961825985280   1.196663511406193   1.999643208466281 1
force Co   0.409817416199793  -0.413978998268338   0.478438831436489 1
force Co   2.944844276671327   1.792063310745041  -2.655257407215776 1
force Co   0.024478182137996  -0.233141406789400   0.127458186505724 1
force Co  -0.114126737812252  -0.050289301120647   0.008352494893914 1
force Co   0.001028288693861  -0.215398797782473  -0.385127677232552 1
force Co   0.199071152805793   0.051368780827468  -0.081035611638331 1
force O  -0.715503358696101  -2.381180020676926   0.772572476997913 1

# Energy components:
   Eewald =    -3289.1938908443926266
       EH =     1369.2809230145430774
     Eloc =    -3861.0456777617978332
      Enl =      824.9457695186945330
      Exc =     -521.6058666678018199
 Exc_core =       16.9301536238230561
       KE =      689.9255456143920355
-------------------------------------
     Etot =    -4770.7630435025394036
       TS =        0.5348960873667641
-------------------------------------
        F =    -4771.2979395899064912

IonicMinimize: Iter:   1  F: -4771.297939589906491  |grad|_K:  4.904e-02  alpha:  1.785e-01  linmin: -9.615e-01  t[s]:   7556.12

#--- Lowdin population analysis ---
# oxidation-state Co +0.011 +0.020 +0.013 +0.013 +0.028 +0.013 +0.012 +0.023 +0.013 +0.025 +0.013 +0.007 +0.019 +0.006 +0.014 +0.005 +0.002 +0.016 +0.014 +0.012 +0.009 +0.024 +0.009 +0.023 +0.010 -0.026 +0.010 -0.027 +0.013 -0.001 +0.011 +0.012
# oxidation-state O +0.271


-------- Electronic minimization -----------
Will mix electronic density at each iteration.
	FillingsUpdate:  mu: +0.751022699  nElectrons: 550.000000
	FillingsUpdate:  mu: +0.750527065  nElectrons: 550.000000
SCF: Cycle:  0   F: -4748.210424133087145   dF: +2.232e+01   |Residual|: 2.384e+00   |deigs|: 2.483e-03  t[s]:   7700.37
	FillingsUpdate:  mu: +0.858872191  nElectrons: 550.000000
SCF: Cycle:  1   F: -4590.402873530836587   dF: +1.578e+02   |Residual|: 8.264e+00   |deigs|: 1.762e-01  t[s]:   7804.36
	FillingsUpdate:  mu: +0.784983664  nElectrons: 550.000000
SCF: Cycle:  2   F: -4702.777122206239255   dF: -1.124e+02   |Residual|: 5.444e+00   |deigs|: 1.099e-01  t[s]:   7910.46
	FillingsUpdate:  mu: +0.762526431  nElectrons: 550.000000
SCF: Cycle:  3   F: -4751.641493509829161   dF: -4.886e+01   |Residual|: 2.820e+00   |deigs|: 3.950e-02  t[s]:   8015.29
	FillingsUpdate:  mu: +0.758928895  nElectrons: 550.000000
SCF: Cycle:  4   F: -4750.729891466889057   dF: +9.116e-01   |Residual|: 2.691e+00   |deigs|: 1.718e-02  t[s]:   8118.53
	FillingsUpdate:  mu: +0.755677100  nElectrons: 550.000000
SCF: Cycle:  5   F: -4763.295578552714687   dF: -1.257e+01   |Residual|: 1.760e+00   |deigs|: 1.580e-02  t[s]:   8221.95
	FillingsUpdate:  mu: +0.754472794  nElectrons: 550.000000
SCF: Cycle:  6   F: -4766.618952382569660   dF: -3.323e+00   |Residual|: 1.370e+00   |deigs|: 8.064e-03  t[s]:   8324.78
	FillingsUpdate:  mu: +0.753961395  nElectrons: 550.000000
SCF: Cycle:  7   F: -4759.660730007630264   dF: +6.958e+00   |Residual|: 2.011e+00   |deigs|: 4.776e-03  t[s]:   8429.66
	FillingsUpdate:  mu: +0.750211892  nElectrons: 550.000000
SCF: Cycle:  8   F: -4770.581265362118756   dF: -1.092e+01   |Residual|: 5.592e-01   |deigs|: 7.767e-03  t[s]:   8532.76
	FillingsUpdate:  mu: +0.749933251  nElectrons: 550.000000
SCF: Cycle:  9   F: -4770.134960546546608   dF: +4.463e-01   |Residual|: 6.547e-01   |deigs|: 2.558e-03  t[s]:   8637.11
	FillingsUpdate:  mu: +0.750561228  nElectrons: 550.000000
SCF: Cycle: 10   F: -4769.916305134261165   dF: +2.187e-01   |Residual|: 6.952e-01   |deigs|: 2.325e-03  t[s]:   8741.65
	FillingsUpdate:  mu: +0.750907682  nElectrons: 550.000000
SCF: Cycle: 11   F: -4770.764499792492643   dF: -8.482e-01   |Residual|: 4.508e-01   |deigs|: 1.609e-03  t[s]:   8848.69
	FillingsUpdate:  mu: +0.751249954  nElectrons: 550.000000
SCF: Cycle: 12   F: -4770.917758847520417   dF: -1.533e-01   |Residual|: 4.052e-01   |deigs|: 1.821e-03  t[s]:   8952.05
	FillingsUpdate:  mu: +0.751296342  nElectrons: 550.000000
SCF: Cycle: 13   F: -4771.159228002609780   dF: -2.415e-01   |Residual|: 2.773e-01   |deigs|: 7.747e-04  t[s]:   9057.83
	FillingsUpdate:  mu: +0.751243268  nElectrons: 550.000000
SCF: Cycle: 14   F: -4771.163785704266047   dF: -4.558e-03   |Residual|: 2.748e-01   |deigs|: 4.756e-04  t[s]:   9144.79
	FillingsUpdate:  mu: +0.750728085  nElectrons: 550.000000
SCF: Cycle: 15   F: -4771.327465844531616   dF: -1.637e-01   |Residual|: 1.165e-01   |deigs|: 8.442e-04  t[s]:   9241.25
	FillingsUpdate:  mu: +0.750790358  nElectrons: 550.000000
SCF: Cycle: 16   F: -4771.225904723177337   dF: +1.016e-01   |Residual|: 2.402e-01   |deigs|: 9.648e-04  t[s]:   9345.35
	FillingsUpdate:  mu: +0.750875125  nElectrons: 550.000000
SCF: Cycle: 17   F: -4771.290494714429769   dF: -6.459e-02   |Residual|: 1.698e-01   |deigs|: 4.787e-04  t[s]:   9430.81
	FillingsUpdate:  mu: +0.750840144  nElectrons: 550.000000
SCF: Cycle: 18   F: -4771.349900378961138   dF: -5.941e-02   |Residual|: 6.984e-02   |deigs|: 4.354e-04  t[s]:   9493.80
	FillingsUpdate:  mu: +0.750813005  nElectrons: 550.000000
SCF: Cycle: 19   F: -4771.354788390038266   dF: -4.888e-03   |Residual|: 5.525e-02   |deigs|: 2.177e-04  t[s]:   9556.85
	FillingsUpdate:  mu: +0.750811581  nElectrons: 550.000000
SCF: Cycle: 20   F: -4771.325550055800704   dF: +2.924e-02   |Residual|: 1.170e-01   |deigs|: 2.436e-04  t[s]:   9619.07
	FillingsUpdate:  mu: +0.750803993  nElectrons: 550.000000
SCF: Cycle: 21   F: -4771.356820301112748   dF: -3.127e-02   |Residual|: 4.350e-02   |deigs|: 3.064e-04  t[s]:   9681.86
	FillingsUpdate:  mu: +0.750840578  nElectrons: 550.000000
SCF: Cycle: 22   F: -4771.350115632094457   dF: +6.705e-03   |Residual|: 6.848e-02   |deigs|: 2.309e-04  t[s]:   9744.60
	FillingsUpdate:  mu: +0.750804210  nElectrons: 550.000000
SCF: Cycle: 23   F: -4771.346039928234859   dF: +4.076e-03   |Residual|: 7.738e-02   |deigs|: 2.766e-04  t[s]:   9806.15
	FillingsUpdate:  mu: +0.750775591  nElectrons: 550.000000
SCF: Cycle: 24   F: -4771.347849578134628   dF: -1.810e-03   |Residual|: 7.539e-02   |deigs|: 2.179e-04  t[s]:   9869.11
	FillingsUpdate:  mu: +0.750783629  nElectrons: 550.000000
SCF: Cycle: 25   F: -4771.351327367917293   dF: -3.478e-03   |Residual|: 6.266e-02   |deigs|: 2.049e-04  t[s]:   9931.38
	FillingsUpdate:  mu: +0.750786119  nElectrons: 550.000000
SCF: Cycle: 26   F: -4771.361903810533477   dF: -1.058e-02   |Residual|: 9.291e-03   |deigs|: 1.323e-04  t[s]:   9993.82
	FillingsUpdate:  mu: +0.750789222  nElectrons: 550.000000
SCF: Cycle: 27   F: -4771.359976311129685   dF: +1.927e-03   |Residual|: 2.793e-02   |deigs|: 8.886e-05  t[s]:  10055.32
	FillingsUpdate:  mu: +0.750796726  nElectrons: 550.000000
SCF: Cycle: 28   F: -4771.358264582124320   dF: +1.712e-03   |Residual|: 3.916e-02   |deigs|: 9.050e-05  t[s]:  10118.84
	FillingsUpdate:  mu: +0.750802133  nElectrons: 550.000000
SCF: Cycle: 29   F: -4771.362031194911651   dF: -3.767e-03   |Residual|: 6.304e-03   |deigs|: 9.043e-05  t[s]:  10180.49
	FillingsUpdate:  mu: +0.750805138  nElectrons: 550.000000
SCF: Cycle: 30   F: -4771.362054826813619   dF: -2.363e-05   |Residual|: 5.656e-03   |deigs|: 2.901e-05  t[s]:  10243.16
	FillingsUpdate:  mu: +0.750801149  nElectrons: 550.000000
SCF: Cycle: 31   F: -4771.361960411295513   dF: +9.442e-05   |Residual|: 8.009e-03   |deigs|: 2.362e-05  t[s]:  10307.38
	FillingsUpdate:  mu: +0.750800720  nElectrons: 550.000000
SCF: Cycle: 32   F: -4771.362041210519237   dF: -8.080e-05   |Residual|: 5.798e-03   |deigs|: 2.708e-05  t[s]:  10370.76
	FillingsUpdate:  mu: +0.750795151  nElectrons: 550.000000
SCF: Cycle: 33   F: -4771.362064795819606   dF: -2.359e-05   |Residual|: 5.015e-03   |deigs|: 2.069e-05  t[s]:  10433.31
	FillingsUpdate:  mu: +0.750796848  nElectrons: 550.000000
SCF: Cycle: 34   F: -4771.362081482596295   dF: -1.669e-05   |Residual|: 4.396e-03   |deigs|: 2.164e-05  t[s]:  10495.97
	FillingsUpdate:  mu: +0.750798334  nElectrons: 550.000000
SCF: Cycle: 35   F: -4771.362031886838849   dF: +4.960e-05   |Residual|: 6.261e-03   |deigs|: 2.222e-05  t[s]:  10559.25
	FillingsUpdate:  mu: +0.750798811  nElectrons: 550.000000
SCF: Cycle: 36   F: -4771.362061124229513   dF: -2.924e-05   |Residual|: 5.067e-03   |deigs|: 2.011e-05  t[s]:  10622.20
	FillingsUpdate:  mu: +0.750799302  nElectrons: 550.000000
SCF: Cycle: 37   F: -4771.362113066408710   dF: -5.194e-05   |Residual|: 2.645e-03   |deigs|: 1.437e-05  t[s]:  10683.95
	FillingsUpdate:  mu: +0.750802846  nElectrons: 550.000000
SCF: Cycle: 38   F: -4771.362102156950641   dF: +1.091e-05   |Residual|: 3.362e-03   |deigs|: 1.069e-05  t[s]:  10745.25
	FillingsUpdate:  mu: +0.750804310  nElectrons: 550.000000
SCF: Cycle: 39   F: -4771.362123997204435   dF: -2.184e-05   |Residual|: 1.770e-03   |deigs|: 8.184e-06  t[s]:  10807.73
	FillingsUpdate:  mu: +0.750802202  nElectrons: 550.000000
SCF: Cycle: 40   F: -4771.362129053103672   dF: -5.056e-06   |Residual|: 1.085e-03   |deigs|: 5.449e-06  t[s]:  10869.52
	FillingsUpdate:  mu: +0.750801117  nElectrons: 550.000000
SCF: Cycle: 41   F: -4771.362130402963885   dF: -1.350e-06   |Residual|: 8.517e-04   |deigs|: 4.127e-06  t[s]:  10931.64
	FillingsUpdate:  mu: +0.750800609  nElectrons: 550.000000
SCF: Cycle: 42   F: -4771.362130361667369   dF: +4.130e-08   |Residual|: 8.348e-04   |deigs|: 2.748e-06  t[s]:  10994.53
	FillingsUpdate:  mu: +0.750800720  nElectrons: 550.000000
SCF: Cycle: 43   F: -4771.362130710453130   dF: -3.488e-07   |Residual|: 7.278e-04   |deigs|: 2.970e-06  t[s]:  11056.37
	FillingsUpdate:  mu: +0.750800744  nElectrons: 550.000000
SCF: Cycle: 44   F: -4771.362131913736448   dF: -1.203e-06   |Residual|: 3.424e-04   |deigs|: 2.086e-06  t[s]:  11118.66
	FillingsUpdate:  mu: +0.750800839  nElectrons: 550.000000
SCF: Cycle: 45   F: -4771.362131825067081   dF: +8.867e-08   |Residual|: 3.952e-04   |deigs|: 1.650e-06  t[s]:  11181.53
	FillingsUpdate:  mu: +0.750801265  nElectrons: 550.000000
SCF: Cycle: 46   F: -4771.362131988124929   dF: -1.631e-07   |Residual|: 3.021e-04   |deigs|: 1.397e-06  t[s]:  11243.67
	FillingsUpdate:  mu: +0.750801351  nElectrons: 550.000000
SCF: Cycle: 47   F: -4771.362131520583716   dF: +4.675e-07   |Residual|: 5.014e-04   |deigs|: 1.439e-06  t[s]:  11306.37
	FillingsUpdate:  mu: +0.750801431  nElectrons: 550.000000
SCF: Cycle: 48   F: -4771.362130227289526   dF: +1.293e-06   |Residual|: 8.446e-04   |deigs|: 2.759e-06  t[s]:  11368.69
	FillingsUpdate:  mu: +0.750801452  nElectrons: 550.000000
SCF: Cycle: 49   F: -4771.362132001976534   dF: -1.775e-06   |Residual|: 2.806e-04   |deigs|: 2.431e-06  t[s]:  11430.39
Setting wave functions to eigenvectors of Hamiltonian

# Ionic positions in lattice coordinates:
ion Co   0.000162418526657   0.000080089509675  -0.000249690487192 1
ion Co  -0.014509079523642   0.250563690506371   0.235602166668857 1
ion Co   0.267363782484253   0.001697656955203   0.234791038157288 1
ion Co   0.244786638092783   0.248923585528920  -0.014423293743866 1
ion Co   0.009150675673656  -0.003522248368674   0.504449714615147 1
ion Co  -0.016344775800088   0.258468160389618   0.745131952190392 1
ion Co   0.274003042056346   0.001283530087830   0.764186858128800 1
ion Co   0.253872771582881   0.254132874683895   0.491520683248118 1
ion Co  -0.008187920284788   0.494234905284915   0.003931857200743 1
ion Co   0.012027121238322   0.762329685092296   0.260991396491224 1
ion Co   0.250930042222740   0.504641404246530   0.255853433201678 1
ion Co   0.252649590011778   0.758127486655731  -0.013491527416374 1
ion Co  -0.005012037013596   0.487984017689215   0.507308985103100 1
ion Co   0.005590279076453   0.756297841750290   0.751904927654720 1
ion Co   0.240575235041828   0.495775173777773   0.744096962953840 1
ion Co   0.254531370073058   0.752191537467664   0.503019383467011 1
ion Co   0.510288086579930  -0.004558259668812  -0.007505443728692 1
ion Co   0.494439807479276   0.252651119476559   0.259491337274720 1
ion Co   0.743833695590721  -0.000092268357800   0.234383081041509 1
ion Co   0.751926902450393   0.248516652452027  -0.009343329054101 1
ion Co   0.499048917530915  -0.000190023336590   0.498269213484907 1
ion Co   0.478463607160035   0.244784961023970   0.758289493625786 1
ion Co   0.763545063388251  -0.010683496616341   0.732974763520592 1
ion Co   0.762637221900142   0.243615478107195   0.501004039005206 1
ion Co   0.478720474000804   0.501616040978923   0.009944871508914 1
ion Co   0.479130193497836   0.765974250535634   0.267934540152538 1
ion Co   0.746440183596252   0.496850218202355   0.247949276476295 1
ion Co   0.763555598447053   0.754021554581345  -0.018424648744558 1
ion Co   0.499058380377127   0.504456208709559   0.502360088009483 1
ion Co   0.504098796567254   0.750721676747589   0.742444691126134 1
ion Co   0.746449375152282   0.505066059086728   0.763138733466047 1
ion Co   0.748367633288964   0.744883577127989   0.503797279572959 1
ion O   0.619096909534129   0.671716859692416   0.122077165828776 1

# Forces in Lattice coordinates:
force Co   0.060642592556705   0.042583078925733  -0.068657388941540 1
force Co   0.260557416519787  -0.078989290604211   0.264506185444045 1
force Co  -0.472097409621503   0.234585246168506   0.164225859151841 1
force Co  -0.081813825233952   0.070198214448007   0.377421014429051 1
force Co   0.036949094733685   0.132558623916088  -0.142898607944545 1
force Co   0.318364305529102  -0.211758454526731   0.158400532611827 1
force Co  -0.577042792231990  -0.124630066910659  -0.414469260673659 1
force Co  -0.172187911612349  -0.131649875483578   0.106646085709423 1
force Co   0.332716620939702   0.123501509225735  -0.114424014172020 1
force Co  -0.070341797729950  -0.143552298515555  -0.158396826389412 1
force Co  -0.313668688417919  -0.143732103466313   0.023127139803576 1
force Co  -0.229683591933937  -0.165814735912509   0.178822168218279 1
force Co   0.018475942231273   0.279396979022538  -0.236053025353551 1
force Co   0.098021540187958  -0.162125125807912  -0.183653710889335 1
force Co   0.101282751163010   0.100012249847451   0.074149287112754 1
force Co  -0.226298247570482  -0.015659414958217   0.149128841044253 1
force Co  -0.014114071144838   0.241577327350947   0.027078831150416 1
force Co   0.127492874120275  -0.076887631484854  -0.171109315180408 1
force Co   0.203161769120614   0.128307456266908   0.363048688539430 1
force Co  -0.183055510198490  -0.064408994785611   0.016528129353326 1
force Co   0.055717506548429   0.185379045235236   0.145250742845888 1
force Co   0.574716606274332   0.316602997600608  -0.230406118674508 1
force Co  -0.206078007458009   0.251940890298211   0.188015738029166 1
force Co  -0.330164437429946   0.056238436366872  -0.136753159834426 1
force Co  -0.207845727554602  -0.586330229160828  -0.633943344151714 1
force Co  -1.052884576945256   0.782885093945471   1.237146194825829 1
force Co   0.408802350423171  -0.384894388993586   0.455600711638907 1
force Co   1.848110499612961   1.268731001911561  -1.579225315369020 1
force Co   0.022176155045275  -0.221452270696179   0.112358076977150 1
force Co  -0.103629603108174  -0.044414307070053   0.022374823615434 1
force Co   0.001707072545710  -0.206064129338662  -0.355691642757028 1
force Co   0.180696452986765   0.055574098203850  -0.081017938374085 1
force O  -0.343350357240208  -1.524222583782001   0.427973428554672 1

# Energy components:
   Eewald =    -3291.9309973291838105
       EH =     1366.7622928502862578
     Eloc =    -3855.6380017124311053
      Enl =      824.8654724663740581
      Exc =     -521.5380006827133457
 Exc_core =       16.9300822917114431
       KE =      689.7223262222807989
-------------------------------------
     Etot =    -4770.8268258936768689
       TS =        0.5356122174230449
-------------------------------------
        F =    -4771.3624381111003458

IonicMinimize: Iter:   2  F: -4771.362438111100346  |grad|_K:  3.321e-02  alpha:  4.845e-01  linmin: -9.862e-01  t[s]:  11441.58

#--- Lowdin population analysis ---
# oxidation-state Co +0.011 +0.019 +0.013 +0.012 +0.028 +0.013 +0.013 +0.023 +0.013 +0.025 +0.013 +0.009 +0.018 +0.006 +0.013 +0.004 +0.007 +0.016 +0.018 +0.012 +0.009 +0.023 +0.009 +0.022 +0.016 -0.014 +0.017 -0.015 +0.013 +0.002 +0.012 +0.013
# oxidation-state O +0.219


-------- Electronic minimization -----------
Will mix electronic density at each iteration.
	FillingsUpdate:  mu: +0.750801452  nElectrons: 550.000000
	FillingsUpdate:  mu: +0.751712457  nElectrons: 550.000000
SCF: Cycle:  0   F: -4730.134844774090197   dF: +4.011e+01   |Residual|: 3.097e+00   |deigs|: 3.735e-03  t[s]:  11585.06
	FillingsUpdate:  mu: +0.898876784  nElectrons: 550.000000
SCF: Cycle:  1   F: -4543.256035381923539   dF: +1.869e+02   |Residual|: 9.404e+00   |deigs|: 2.382e-01  t[s]:  11690.37
	FillingsUpdate:  mu: +0.793653281  nElectrons: 550.000000
SCF: Cycle:  2   F: -4690.697070904851898   dF: -1.474e+02   |Residual|: 6.105e+00   |deigs|: 1.493e-01  t[s]:  11795.06
	FillingsUpdate:  mu: +0.768144549  nElectrons: 550.000000
SCF: Cycle:  3   F: -4738.618752318056067   dF: -4.792e+01   |Residual|: 3.580e+00   |deigs|: 4.515e-02  t[s]:  11900.47
	FillingsUpdate:  mu: +0.763238218  nElectrons: 550.000000
SCF: Cycle:  4   F: -4738.788534826901923   dF: -1.698e-01   |Residual|: 3.330e+00   |deigs|: 2.413e-02  t[s]:  12005.05
	FillingsUpdate:  mu: +0.759469285  nElectrons: 550.000000
SCF: Cycle:  5   F: -4756.295771598262945   dF: -1.751e+01   |Residual|: 2.382e+00   |deigs|: 2.212e-02  t[s]:  12108.39
	FillingsUpdate:  mu: +0.756125925  nElectrons: 550.000000
SCF: Cycle:  6   F: -4766.641855221697369   dF: -1.035e+01   |Residual|: 1.370e+00   |deigs|: 1.727e-02  t[s]:  12212.75
	FillingsUpdate:  mu: +0.754789383  nElectrons: 550.000000
SCF: Cycle:  7   F: -4760.871939217667205   dF: +5.770e+00   |Residual|: 1.977e+00   |deigs|: 3.738e-03  t[s]:  12316.86
	FillingsUpdate:  mu: +0.751243126  nElectrons: 550.000000
SCF: Cycle:  8   F: -4765.201548877902496   dF: -4.330e+00   |Residual|: 1.478e+00   |deigs|: 4.638e-03  t[s]:  12421.86
	FillingsUpdate:  mu: +0.749103874  nElectrons: 550.000000
SCF: Cycle:  9   F: -4770.537376295812464   dF: -5.336e+00   |Residual|: 5.578e-01   |deigs|: 5.388e-03  t[s]:  12526.57
	FillingsUpdate:  mu: +0.750010958  nElectrons: 550.000000
SCF: Cycle: 10   F: -4767.830525344413218   dF: +2.707e+00   |Residual|: 1.096e+00   |deigs|: 4.088e-03  t[s]:  12630.97
	FillingsUpdate:  mu: +0.751131276  nElectrons: 550.000000
SCF: Cycle: 11   F: -4769.752847286979886   dF: -1.922e+00   |Residual|: 7.341e-01   |deigs|: 3.089e-03  t[s]:  12734.28
	FillingsUpdate:  mu: +0.751632398  nElectrons: 550.000000
SCF: Cycle: 12   F: -4771.102881281918599   dF: -1.350e+00   |Residual|: 3.567e-01   |deigs|: 3.640e-03  t[s]:  12839.09
	FillingsUpdate:  mu: +0.750345384  nElectrons: 550.000000
SCF: Cycle: 13   F: -4770.998648800962656   dF: +1.042e-01   |Residual|: 4.098e-01   |deigs|: 1.474e-03  t[s]:  12943.62
	FillingsUpdate:  mu: +0.750201923  nElectrons: 550.000000
SCF: Cycle: 14   F: -4771.253897372230313   dF: -2.552e-01   |Residual|: 2.394e-01   |deigs|: 1.142e-03  t[s]:  13036.64
	FillingsUpdate:  mu: +0.750435513  nElectrons: 550.000000
SCF: Cycle: 15   F: -4771.378740703156836   dF: -1.248e-01   |Residual|: 1.145e-01   |deigs|: 4.508e-04  t[s]:  13106.35
	FillingsUpdate:  mu: +0.750528896  nElectrons: 550.000000
SCF: Cycle: 16   F: -4771.286320677007097   dF: +9.242e-02   |Residual|: 2.220e-01   |deigs|: 4.829e-04  t[s]:  13175.09
	FillingsUpdate:  mu: +0.750968117  nElectrons: 550.000000
SCF: Cycle: 17   F: -4771.146893999050008   dF: +1.394e-01   |Residual|: 3.101e-01   |deigs|: 5.821e-04  t[s]:  13279.16
	FillingsUpdate:  mu: +0.750986527  nElectrons: 550.000000
SCF: Cycle: 18   F: -4771.399667136945936   dF: -2.528e-01   |Residual|: 7.263e-02   |deigs|: 7.469e-04  t[s]:  13356.50
	FillingsUpdate:  mu: +0.750649052  nElectrons: 550.000000
SCF: Cycle: 19   F: -4771.390720201112345   dF: +8.947e-03   |Residual|: 9.186e-02   |deigs|: 3.962e-04  t[s]:  13419.83
	FillingsUpdate:  mu: +0.750575868  nElectrons: 550.000000
SCF: Cycle: 20   F: -4771.411768880408090   dF: -2.105e-02   |Residual|: 2.037e-02   |deigs|: 2.237e-04  t[s]:  13483.45
	FillingsUpdate:  mu: +0.750515038  nElectrons: 550.000000
SCF: Cycle: 21   F: -4771.391190123388697   dF: +2.058e-02   |Residual|: 8.676e-02   |deigs|: 2.543e-04  t[s]:  13546.56
	FillingsUpdate:  mu: +0.750600466  nElectrons: 550.000000
SCF: Cycle: 22   F: -4771.377978265319143   dF: +1.321e-02   |Residual|: 1.066e-01   |deigs|: 4.695e-04  t[s]:  13608.89
	FillingsUpdate:  mu: +0.750566718  nElectrons: 550.000000
SCF: Cycle: 23   F: -4771.411696457398648   dF: -3.372e-02   |Residual|: 2.102e-02   |deigs|: 3.575e-04  t[s]:  13671.19
	FillingsUpdate:  mu: +0.750579234  nElectrons: 550.000000
SCF: Cycle: 24   F: -4771.404744277485406   dF: +6.952e-03   |Residual|: 5.754e-02   |deigs|: 1.116e-04  t[s]:  13733.74
	FillingsUpdate:  mu: +0.750580447  nElectrons: 550.000000
SCF: Cycle: 25   F: -4771.409975188351382   dF: -5.231e-03   |Residual|: 3.125e-02   |deigs|: 1.097e-04  t[s]:  13794.84
	FillingsUpdate:  mu: +0.750576978  nElectrons: 550.000000
SCF: Cycle: 26   F: -4771.412154271302825   dF: -2.179e-03   |Residual|: 1.586e-02   |deigs|: 8.550e-05  t[s]:  13857.24
	FillingsUpdate:  mu: +0.750579955  nElectrons: 550.000000
SCF: Cycle: 27   F: -4771.410719584748222   dF: +1.435e-03   |Residual|: 2.834e-02   |deigs|: 7.575e-05  t[s]:  13919.25
	FillingsUpdate:  mu: +0.750581940  nElectrons: 550.000000
SCF: Cycle: 28   F: -4771.409592072458508   dF: +1.128e-03   |Residual|: 3.426e-02   |deigs|: 7.755e-05  t[s]:  13981.08
	FillingsUpdate:  mu: +0.750554827  nElectrons: 550.000000
SCF: Cycle: 29   F: -4771.410471446251904   dF: -8.794e-04   |Residual|: 2.923e-02   |deigs|: 1.055e-04  t[s]:  14043.63
	FillingsUpdate:  mu: +0.750559171  nElectrons: 550.000000
SCF: Cycle: 30   F: -4771.412526244758737   dF: -2.055e-03   |Residual|: 1.007e-02   |deigs|: 1.007e-04  t[s]:  14106.90
	FillingsUpdate:  mu: +0.750562496  nElectrons: 550.000000
SCF: Cycle: 31   F: -4771.412774378430186   dF: -2.481e-04   |Residual|: 2.431e-03   |deigs|: 2.741e-05  t[s]:  14170.29
	FillingsUpdate:  mu: +0.750573924  nElectrons: 550.000000
SCF: Cycle: 32   F: -4771.412703090310970   dF: +7.129e-05   |Residual|: 5.708e-03   |deigs|: 1.823e-05  t[s]:  14233.17
	FillingsUpdate:  mu: +0.750572349  nElectrons: 550.000000
SCF: Cycle: 33   F: -4771.412766897051370   dF: -6.381e-05   |Residual|: 2.740e-03   |deigs|: 2.128e-05  t[s]:  14295.49
	FillingsUpdate:  mu: +0.750571562  nElectrons: 550.000000
SCF: Cycle: 34   F: -4771.412763336957141   dF: +3.560e-06   |Residual|: 2.907e-03   |deigs|: 1.364e-05  t[s]:  14359.73
	FillingsUpdate:  mu: +0.750567967  nElectrons: 550.000000
SCF: Cycle: 35   F: -4771.412754981698527   dF: +8.355e-06   |Residual|: 3.370e-03   |deigs|: 1.302e-05  t[s]:  14421.90
	FillingsUpdate:  mu: +0.750566187  nElectrons: 550.000000
SCF: Cycle: 36   F: -4771.412717124496339   dF: +3.786e-05   |Residual|: 4.871e-03   |deigs|: 1.657e-05  t[s]:  14485.43
	FillingsUpdate:  mu: +0.750567732  nElectrons: 550.000000
SCF: Cycle: 37   F: -4771.412726085220129   dF: -8.961e-06   |Residual|: 4.844e-03   |deigs|: 1.765e-05  t[s]:  14548.49
	FillingsUpdate:  mu: +0.750565450  nElectrons: 550.000000
SCF: Cycle: 38   F: -4771.412778846009132   dF: -5.276e-05   |Residual|: 1.842e-03   |deigs|: 1.209e-05  t[s]:  14611.83
	FillingsUpdate:  mu: +0.750565343  nElectrons: 550.000000
SCF: Cycle: 39   F: -4771.412784550333527   dF: -5.704e-06   |Residual|: 1.061e-03   |deigs|: 4.370e-06  t[s]:  14672.91
	FillingsUpdate:  mu: +0.750566405  nElectrons: 550.000000
SCF: Cycle: 40   F: -4771.412781326816003   dF: +3.224e-06   |Residual|: 1.483e-03   |deigs|: 5.034e-06  t[s]:  14735.09
	FillingsUpdate:  mu: +0.750567257  nElectrons: 550.000000
SCF: Cycle: 41   F: -4771.412781284224366   dF: +4.259e-08   |Residual|: 1.574e-03   |deigs|: 7.018e-06  t[s]:  14798.11
	FillingsUpdate:  mu: +0.750567496  nElectrons: 550.000000
SCF: Cycle: 42   F: -4771.412783539932207   dF: -2.256e-06   |Residual|: 1.268e-03   |deigs|: 5.513e-06  t[s]:  14860.99
	FillingsUpdate:  mu: +0.750570053  nElectrons: 550.000000
SCF: Cycle: 43   F: -4771.412787175202538   dF: -3.635e-06   |Residual|: 3.943e-04   |deigs|: 4.615e-06  t[s]:  14922.43
	FillingsUpdate:  mu: +0.750569759  nElectrons: 550.000000
SCF: Cycle: 44   F: -4771.412787383546856   dF: -2.083e-07   |Residual|: 2.691e-04   |deigs|: 1.479e-06  t[s]:  14978.21
	FillingsUpdate:  mu: +0.750568840  nElectrons: 550.000000
SCF: Cycle: 45   F: -4771.412786723743920   dF: +6.598e-07   |Residual|: 5.402e-04   |deigs|: 1.841e-06  t[s]:  15041.76
	FillingsUpdate:  mu: +0.750568289  nElectrons: 550.000000
SCF: Cycle: 46   F: -4771.412787450269207   dF: -7.265e-07   |Residual|: 2.232e-04   |deigs|: 1.656e-06  t[s]:  15104.39
	FillingsUpdate:  mu: +0.750567716  nElectrons: 550.000000
SCF: Cycle: 47   F: -4771.412787558367199   dF: -1.081e-07   |Residual|: 1.026e-04   |deigs|: 9.427e-07  t[s]:  15164.64
	FillingsUpdate:  mu: +0.750568208  nElectrons: 550.000000
SCF: Cycle: 48   F: -4771.412787401216519   dF: +1.572e-07   |Residual|: 2.712e-04   |deigs|: 9.971e-07  t[s]:  15227.28
	FillingsUpdate:  mu: +0.750568586  nElectrons: 550.000000
SCF: Cycle: 49   F: -4771.412787509118971   dF: -1.079e-07   |Residual|: 1.716e-04   |deigs|: 9.338e-07  t[s]:  15289.31
Setting wave functions to eigenvectors of Hamiltonian

# Ionic positions in lattice coordinates:
ion Co   0.000465047903419   0.000332528591290  -0.000554827640654 1
ion Co  -0.013323642965169   0.250203824207618   0.236802389940025 1
ion Co   0.265126252759424   0.002859063833554   0.235522469557060 1
ion Co   0.244454767275376   0.249213788676443  -0.012756336317329 1
ion Co   0.009274817454776  -0.002903771124270   0.503795463797304 1
ion Co  -0.014910127293138   0.257513119097616   0.745820154619438 1
ion Co   0.271407295583190   0.000798264160477   0.762353044267501 1
ion Co   0.253076946189069   0.253543152120151   0.492024289433984 1
ion Co  -0.006708486654268   0.494789535207119   0.003422367414959 1
ion Co   0.011670373891635   0.761671170405658   0.260253022147460 1
ion Co   0.249540756959498   0.503986687342329   0.255939067273336 1
ion Co   0.251636085160132   0.757377660099474  -0.012644818239668 1
ion Co  -0.004936452692636   0.489238134529531   0.506252217143792 1
ion Co   0.006060208438988   0.755558451931740   0.751010798839297 1
ion Co   0.241033970567776   0.496219848440579   0.744435697390615 1
ion Co   0.253412256585013   0.752103426819635   0.503771553763279 1
ion Co   0.510197846454763  -0.003535074293340  -0.007354083373047 1
ion Co   0.494993723132176   0.252284729358351   0.258715076630305 1
ion Co   0.744721118268356   0.000392785561972   0.236007252696296 1
ion Co   0.751117615022731   0.248237621658528  -0.009255742688401 1
ion Co   0.499295545395376   0.000734500137744   0.499008593825612 1
ion Co   0.480993616133711   0.246163663456452   0.757266275942626 1
ion Co   0.762600317005255  -0.009485725598433   0.733776941793135 1
ion Co   0.761147090890702   0.243886617434005   0.500413970194141 1
ion Co   0.477752576840803   0.498990632893360   0.007006548111583 1
ion Co   0.476004487258094   0.768643170426703   0.271811915846636 1
ion Co   0.748356975996546   0.495126059772860   0.250025696540784 1
ion Co   0.768673612450051   0.758280417244492  -0.022353441028705 1
ion Co   0.499145070434480   0.503446529935601   0.502853650758576 1
ion Co   0.503629907715529   0.750530520223606   0.742593279572743 1
ion Co   0.746447172620863   0.504122810509204   0.761549149679162 1
ion Co   0.749158181309834   0.745159087378591   0.503419818054445 1
ion O   0.619175073907647   0.667076769561360   0.122478544053707 1

# Forces in Lattice coordinates:
force Co   0.071908861453390   0.065502827722201  -0.061271036123782 1
force Co   0.238735868225106  -0.071074092667300   0.231667216767946 1
force Co  -0.437720637800121   0.225056658095752   0.146759338489296 1
force Co  -0.049563633590917   0.046762363466279   0.312256732456279 1
force Co   0.013209241333758   0.123531230619879  -0.132224429170096 1
force Co   0.282486205506136  -0.185500190196587   0.119826259348282 1
force Co  -0.493248351071222  -0.071616355446540  -0.343506897950714 1
force Co  -0.152043848086316  -0.112117651685336   0.103511546929169 1
force Co   0.282824546440881   0.111166843550301  -0.100040139036508 1
force Co  -0.072758989561155  -0.134341493620094  -0.150233889628104 1
force Co  -0.250621587437316  -0.127213105349091   0.009067683429122 1
force Co  -0.185346799634271  -0.144551926464043   0.172961044255763 1
force Co   0.020776813269769   0.237494272359449  -0.197370743579377 1
force Co   0.091409802102657  -0.144034725863721  -0.184611448763639 1
force Co   0.092889811288620   0.082199854271424   0.062376850455692 1
force Co  -0.220272052536074  -0.023389280146648   0.146815381520323 1
force Co  -0.037246598411344   0.199648649517524   0.028517365130906 1
force Co   0.105315106236069  -0.072622142166641  -0.154764877160407 1
force Co   0.173763470967236   0.090235239646255   0.318450882487791 1
force Co  -0.142812886443870  -0.050395872880992   0.024682106848991 1
force Co   0.048780222717810   0.184412328601257   0.150543651670892 1
force Co   0.481411489961831   0.245555228588032  -0.198076330314043 1
force Co  -0.181410870838848   0.247084025296011   0.143383228001798 1
force Co  -0.286041138479073   0.059618582059359  -0.102455856508896 1
force Co  -0.156534291582415  -0.470610402729457  -0.559323402366307 1
force Co  -0.561713405701757   0.452722718897992   0.687897919078592 1
force Co   0.368881972348560  -0.325299503591873   0.392542035577712 1
force Co   1.039747080165395   0.841065854823203  -0.838487936694101 1
force Co   0.016689172515981  -0.195336225534534   0.088267197615027 1
force Co  -0.086465718632440  -0.033045674488542   0.033702093464619 1
force Co   0.007450647621655  -0.179734483183516  -0.307450133402142 1
force Co   0.148288230182603   0.061885466940635  -0.073785913487345 1
force O  -0.126166318248560  -0.949968287243597   0.194119965521714 1

# Energy components:
   Eewald =    -3295.0888712582468543
       EH =     1363.7888590939871847
     Eloc =    -3849.3538121164551740
      Enl =      824.7969648592311387
      Exc =     -521.4700720320295204
 Exc_core =       16.9301049699804622
       KE =      689.5203061399031412
-------------------------------------
     Etot =    -4770.8765203436287266
       TS =        0.5364655740054156
-------------------------------------
        F =    -4771.4129859176337050

IonicMinimize: Iter:   3  F: -4771.412985917633705  |grad|_K:  2.210e-02  alpha:  4.565e-01  linmin: -9.961e-01  t[s]:  15300.86

#--- Lowdin population analysis ---
# oxidation-state Co +0.009 +0.017 +0.012 +0.011 +0.026 +0.014 +0.013 +0.022 +0.014 +0.025 +0.013 +0.011 +0.017 +0.006 +0.012 +0.004 +0.012 +0.015 +0.022 +0.012 +0.008 +0.021 +0.009 +0.020 +0.023 -0.002 +0.024 -0.003 +0.013 +0.005 +0.013 +0.015
# oxidation-state O +0.176


-------- Electronic minimization -----------
Will mix electronic density at each iteration.
	FillingsUpdate:  mu: +0.750568586  nElectrons: 550.000000
	FillingsUpdate:  mu: +0.752560360  nElectrons: 550.000000
SCF: Cycle:  0   F: -4703.411348046177409   dF: +6.616e+01   |Residual|: 3.947e+00   |deigs|: 6.003e-03  t[s]:  15442.02
	FillingsUpdate:  mu: +0.930230141  nElectrons: 550.000000
SCF: Cycle:  1   F: -4493.273787411282683   dF: +2.101e+02   |Residual|: 1.042e+01   |deigs|: 2.903e-01  t[s]:  15545.85
	FillingsUpdate:  mu: +0.810571494  nElectrons: 550.000000
SCF: Cycle:  2   F: -4668.198341071348295   dF: -1.749e+02   |Residual|: 6.945e+00   |deigs|: 1.745e-01  t[s]:  15647.87
	FillingsUpdate:  mu: +0.775915034  nElectrons: 550.000000
SCF: Cycle:  3   F: -4731.492753083829484   dF: -6.329e+01   |Residual|: 4.100e+00   |deigs|: 5.848e-02  t[s]:  15752.84
	FillingsUpdate:  mu: +0.769565891  nElectrons: 550.000000
SCF: Cycle:  4   F: -4724.743114395067096   dF: +6.750e+00   |Residual|: 3.988e+00   |deigs|: 3.236e-02  t[s]:  15855.06
	FillingsUpdate:  mu: +0.763501390  nElectrons: 550.000000
SCF: Cycle:  5   F: -4751.190595904621659   dF: -2.645e+01   |Residual|: 2.809e+00   |deigs|: 3.173e-02  t[s]:  15958.45
	FillingsUpdate:  mu: +0.759114086  nElectrons: 550.000000
SCF: Cycle:  6   F: -4759.433125731605287   dF: -8.243e+00   |Residual|: 2.122e+00   |deigs|: 2.293e-02  t[s]:  16062.46
	FillingsUpdate:  mu: +0.756377030  nElectrons: 550.000000
SCF: Cycle:  7   F: -4754.349016276729344   dF: +5.084e+00   |Residual|: 2.459e+00   |deigs|: 5.572e-03  t[s]:  16165.64
	FillingsUpdate:  mu: +0.752520760  nElectrons: 550.000000
SCF: Cycle:  8   F: -4760.073296886252137   dF: -5.724e+00   |Residual|: 2.065e+00   |deigs|: 4.171e-03  t[s]:  16270.90
	FillingsUpdate:  mu: +0.749335725  nElectrons: 550.000000
SCF: Cycle:  9   F: -4769.106339025428497   dF: -9.033e+00   |Residual|: 9.191e-01   |deigs|: 7.280e-03  t[s]:  16377.05
	FillingsUpdate:  mu: +0.749677544  nElectrons: 550.000000
SCF: Cycle: 10   F: -4766.525008578333654   dF: +2.581e+00   |Residual|: 1.283e+00   |deigs|: 4.751e-03  t[s]:  16481.69
	FillingsUpdate:  mu: +0.751096003  nElectrons: 550.000000
SCF: Cycle: 11   F: -4767.832412109845791   dF: -1.307e+00   |Residual|: 1.081e+00   |deigs|: 3.163e-03  t[s]:  16585.68
	FillingsUpdate:  mu: +0.751393728  nElectrons: 550.000000
SCF: Cycle: 12   F: -4770.992614004232564   dF: -3.160e+00   |Residual|: 3.969e-01   |deigs|: 5.785e-03  t[s]:  16691.39
	FillingsUpdate:  mu: +0.750334569  nElectrons: 550.000000
SCF: Cycle: 13   F: -4771.247511811710865   dF: -2.549e-01   |Residual|: 3.048e-01   |deigs|: 2.719e-03  t[s]:  16795.61
	FillingsUpdate:  mu: +0.749623022  nElectrons: 550.000000
SCF: Cycle: 14   F: -4770.883802106526673   dF: +3.637e-01   |Residual|: 4.446e-01   |deigs|: 9.145e-04  t[s]:  16901.65
	FillingsUpdate:  mu: +0.749785724  nElectrons: 550.000000
SCF: Cycle: 15   F: -4771.200545425388555   dF: -3.167e-01   |Residual|: 3.069e-01   |deigs|: 8.103e-04  t[s]:  17005.13
	FillingsUpdate:  mu: +0.750962867  nElectrons: 550.000000
SCF: Cycle: 16   F: -4771.280379214559616   dF: -7.983e-02   |Residual|: 2.538e-01   |deigs|: 1.238e-03  t[s]:  17107.14
	FillingsUpdate:  mu: +0.751307657  nElectrons: 550.000000
SCF: Cycle: 17   F: -4771.151725100605290   dF: +1.287e-01   |Residual|: 3.262e-01   |deigs|: 7.167e-04  t[s]:  17208.71
	FillingsUpdate:  mu: +0.750969958  nElectrons: 550.000000
SCF: Cycle: 18   F: -4771.377988810666466   dF: -2.263e-01   |Residual|: 1.692e-01   |deigs|: 7.928e-04  t[s]:  17298.59
	FillingsUpdate:  mu: +0.750445443  nElectrons: 550.000000
SCF: Cycle: 19   F: -4771.436109858017517   dF: -5.812e-02   |Residual|: 8.904e-02   |deigs|: 5.809e-04  t[s]:  17361.00
	FillingsUpdate:  mu: +0.750455983  nElectrons: 550.000000
SCF: Cycle: 20   F: -4771.443203212736989   dF: -7.093e-03   |Residual|: 6.914e-02   |deigs|: 2.469e-04  t[s]:  17423.20
	FillingsUpdate:  mu: +0.750151815  nElectrons: 550.000000
SCF: Cycle: 21   F: -4771.404322946013053   dF: +3.888e-02   |Residual|: 1.382e-01   |deigs|: 3.510e-04  t[s]:  17485.86
[...]
force Co   0.002092975211764  -0.002578308963262   0.003862081907977 1
force Co  -0.003905897512295  -0.003220890136019  -0.004611879800505 1
force Co  -0.002048163007504  -0.003288502721055  -0.001749437582994 1
force Co   0.001996386826768  -0.000982046705777   0.001571248705274 1
force Co   0.001501789152337  -0.001669969923682   0.000751010418897 1
force Co   0.000587658984422  -0.002779222353326  -0.000716642967248 1
force Co   0.004049642212041  -0.003836358434809  -0.002246073099100 1
force Co  -0.001596370735788  -0.001938735583905   0.001302278670532 1
force Co   0.001406047877718  -0.006479717127480   0.001985538770215 1
force Co  -0.002646190580765  -0.000920598289238   0.000048826592074 1
force Co   0.005440350087592  -0.000582003599606   0.000688159514640 1
force Co  -0.000950608946645  -0.003330136851094   0.000764018907480 1
force Co   0.000654698619069   0.003475393576591  -0.005286669825900 1
force Co   0.000216904653572  -0.004573521729899  -0.002296143982543 1
force Co   0.004974652234763  -0.010175621854039  -0.001417407065809 1
force Co   0.027560694911646  -0.028713920050915   0.025375447024986 1
force Co   0.005594620383498  -0.003333545918204  -0.001256622345114 1
force Co   0.001365511466492  -0.002820841046226  -0.002001826795999 1
force Co   0.002758904466054  -0.003182129004623   0.004076497160407 1
force Co   0.000334977658867  -0.001098624470594   0.001095020592100 1
force Co  -0.001443691103977  -0.003161054991861  -0.001778170600289 1
force O  -0.024021504043326   0.019408180501621  -0.015480371420681 1

# Energy components:
   Eewald =    -3301.5085509423115582
       EH =     1357.6395119140615861
     Eloc =    -3836.3860780848444847
      Enl =      824.6275714386682694
      Exc =     -521.3006789825728902
 Exc_core =       16.9295558824528172
       KE =      689.0207915429731429
-------------------------------------
     Etot =    -4770.9778772315739843
       TS =        0.5370152794760400
-------------------------------------
        F =    -4771.5148925110497657

IonicMinimize: Iter:  13  F: -4771.514892511049766  |grad|_K:  4.882e-04  alpha:  1.000e+00  linmin:  4.192e-01  t[s]:  47878.05

#--- Lowdin population analysis ---
# oxidation-state Co +0.008 +0.008 +0.007 +0.008 +0.016 +0.016 +0.016 +0.016 +0.018 +0.018 +0.018 +0.018 +0.008 +0.008 +0.007 +0.008 +0.018 +0.018 +0.018 +0.018 +0.007 +0.007 +0.007 +0.007 +0.034 +0.034 +0.034 +0.034 +0.018 +0.018 +0.018 +0.018
# oxidation-state O +0.092


-------- Electronic minimization -----------
Will mix electronic density at each iteration.
	FillingsUpdate:  mu: +0.749747447  nElectrons: 550.000000
	FillingsUpdate:  mu: +0.749742028  nElectrons: 550.000000
SCF: Cycle:  0   F: -4771.514866425326545   dF: +1.711e-05   |Residual|: 4.518e-03   |deigs|: 5.082e-07  t[s]:  47982.36
	FillingsUpdate:  mu: +0.749762752  nElectrons: 550.000000
SCF: Cycle:  1   F: -4771.510790004314913   dF: +4.076e-03   |Residual|: 3.855e-02   |deigs|: 1.421e-04  t[s]:  48046.93
	FillingsUpdate:  mu: +0.749751943  nElectrons: 550.000000
SCF: Cycle:  2   F: -4771.514847254693450   dF: -4.057e-03   |Residual|: 5.148e-03   |deigs|: 1.329e-04  t[s]:  48109.25
	FillingsUpdate:  mu: +0.749747992  nElectrons: 550.000000
SCF: Cycle:  3   F: -4771.514852559244900   dF: -5.305e-06   |Residual|: 4.822e-03   |deigs|: 2.130e-05  t[s]:  48172.96
	FillingsUpdate:  mu: +0.749738775  nElectrons: 550.000000
SCF: Cycle:  4   F: -4771.514877262921800   dF: -2.470e-05   |Residual|: 4.008e-03   |deigs|: 1.751e-05  t[s]:  48236.34
	FillingsUpdate:  mu: +0.749739508  nElectrons: 550.000000
SCF: Cycle:  5   F: -4771.514911122868398   dF: -3.386e-05   |Residual|: 1.552e-03   |deigs|: 7.723e-06  t[s]:  48298.93
	FillingsUpdate:  mu: +0.749747872  nElectrons: 550.000000
SCF: Cycle:  6   F: -4771.514905239712789   dF: +5.883e-06   |Residual|: 2.132e-03   |deigs|: 1.167e-05  t[s]:  48362.08
	FillingsUpdate:  mu: +0.749749040  nElectrons: 550.000000
SCF: Cycle:  7   F: -4771.514916799528692   dF: -1.156e-05   |Residual|: 3.442e-04   |deigs|: 6.189e-06  t[s]:  48424.78
	FillingsUpdate:  mu: +0.749747126  nElectrons: 550.000000
SCF: Cycle:  8   F: -4771.514914916763701   dF: +1.883e-06   |Residual|: 8.903e-04   |deigs|: 4.399e-06  t[s]:  48480.88
	FillingsUpdate:  mu: +0.749744555  nElectrons: 550.000000
SCF: Cycle:  9   F: -4771.514917054211764   dF: -2.137e-06   |Residual|: 1.481e-04   |deigs|: 3.676e-06  t[s]:  48543.35
	FillingsUpdate:  mu: +0.749744996  nElectrons: 550.000000
SCF: Cycle: 10   F: -4771.514916740147783   dF: +3.141e-07   |Residual|: 3.680e-04   |deigs|: 1.329e-06  t[s]:  48600.79
	FillingsUpdate:  mu: +0.749746116  nElectrons: 550.000000
SCF: Cycle: 11   F: -4771.514917085564775   dF: -3.454e-07   |Residual|: 8.446e-05   |deigs|: 1.311e-06  t[s]:  48664.07
	FillingsUpdate:  mu: +0.749746887  nElectrons: 550.000000
SCF: Cycle: 12   F: -4771.514916593199814   dF: +4.924e-07   |Residual|: 4.233e-04   |deigs|: 1.389e-06  t[s]:  48727.41
	FillingsUpdate:  mu: +0.749746005  nElectrons: 550.000000
SCF: Cycle: 13   F: -4771.514917097491889   dF: -5.043e-07   |Residual|: 5.973e-05   |deigs|: 1.343e-06  t[s]:  48788.27
	FillingsUpdate:  mu: +0.749745938  nElectrons: 550.000000
SCF: Cycle: 14   F: -4771.514917097606485   dF: -1.146e-10   |Residual|: 5.630e-05   |deigs|: 1.577e-07  t[s]:  48826.29
	FillingsUpdate:  mu: +0.749745940  nElectrons: 550.000000
SCF: Cycle: 15   F: -4771.514917105850145   dF: -8.244e-09   |Residual|: 1.459e-05   |deigs|: 1.473e-07  t[s]:  48885.32
SCF: Converged (|Delta E|<1.000000e-08 for 2 iters).

Setting wave functions to eigenvectors of Hamiltonian

# Ionic positions in lattice coordinates:
ion Co   0.003310600055812   0.005841871528300  -0.001729229739774 1
ion Co   0.003222953851696   0.248485080853150   0.249206922302669 1
ion Co   0.245556071669275   0.006051960080863   0.249349497584819 1
ion Co   0.246042239001258   0.248535470409565  -0.001847211037008 1
ion Co  -0.000217491878132   0.001927751171276   0.499043290020147 1
ion Co  -0.000075050407712   0.251570290718916   0.748592551915845 1
ion Co   0.249512353435812   0.001883192057181   0.748827741576700 1
ion Co   0.249336855500236   0.251614426520045   0.498960665337775 1
ion Co   0.002349421391209   0.500378689512049  -0.002595785419115 1
ion Co   0.002532253323190   0.753339475214401   0.250095292006443 1
ion Co   0.246866582667531   0.500387977032669   0.250098110180232 1
ion Co   0.246559024525039   0.753321041458945  -0.002697435562813 1
ion Co   0.003358613024979   0.501191718640042   0.502246988710642 1
ion Co   0.003266748540214   0.752340099494725   0.744911254916150 1
ion Co   0.245828607516275   0.501340124929739   0.744971746859897 1
ion Co   0.245633163703974   0.752285012717995   0.502359126667499 1
ion Co   0.498068070663269   0.005157268913012  -0.002528385446672 1
ion Co   0.498049096782111   0.248945880655881   0.250271340791920 1
ion Co   0.751240335386246   0.005074860767554   0.250124888758537 1
ion Co   0.751100138494695   0.249077545140237  -0.002679859718160 1
ion Co   0.499148742508613   0.006105869028590   0.502602582131671 1
ion Co   0.498967024671193   0.248423963757427   0.744957518847707 1
ion Co   0.750063683248937   0.006111961999575   0.744993244121174 1
ion Co   0.750135376814946   0.248263002845013   0.502356038765044 1
ion Co   0.479736465010827   0.482100500620141  -0.021605399616202 1
ion Co   0.479222094801645   0.772924102095721   0.269197160708123 1
ion Co   0.769426377688379   0.481918133313121   0.269043682508719 1
ion Co   0.769594202347672   0.772507914790833  -0.021820425812688 1
ion Co   0.498023266968589   0.500403785019860   0.501924973427640 1
ion Co   0.498058944966980   0.753541123296341   0.745385638984378 1
ion Co   0.751264230780967   0.500293197655064   0.745439784067691 1
ion Co   0.751031242055183   0.753560128541741   0.501955118175770 1
ion O   0.624477760889094   0.627656579220028   0.123998572985241 1

# Forces in Lattice coordinates:
force Co   0.000163494691254  -0.000596821300363  -0.000982041869615 1
force Co  -0.000795032027090  -0.002879598126966   0.001622790632099 1
force Co   0.001663473550703  -0.002888307356768   0.000552298645627 1
force Co  -0.000892653130851  -0.002153267689614   0.002342122242090 1
force Co   0.000062673451935  -0.002680943081973  -0.000829667006939 1
force Co  -0.001205005413246  -0.002420393433471   0.001058314041478 1
force Co  -0.000148103784464  -0.003559191277706  -0.001780799723555 1
force Co   0.001390175970250  -0.002658711399874   0.001094203792134 1
force Co   0.001779142853381  -0.002127039968180  -0.002000614756934 1
force Co   0.000271902202105  -0.001156541470705  -0.001278054274049 1
force Co  -0.001574873090202  -0.002823855920315   0.001371263945295 1
force Co   0.001433048587148  -0.002091380179278   0.001775535529612 1
force Co  -0.000394742223414  -0.003039183215484   0.000161330219496 1
force Co  -0.000256724540755  -0.002700082848751  -0.001224585027679 1
force Co   0.000073953622451  -0.002037770779679   0.000415829379932 1
force Co   0.001700833143526  -0.001746986818653   0.000765764118887 1
force Co   0.001108751338920  -0.001982413288078  -0.001199568534314 1
force Co   0.002539257907909  -0.002223189986365  -0.001491623443846 1
force Co  -0.001049681693768  -0.001987732791799   0.000909142916646 1
force Co   0.000994194589751  -0.004530582316578   0.000831474360198 1
force Co  -0.001454410055446  -0.001780188861798  -0.000065481748147 1
force Co   0.003022256555298  -0.001669946184432  -0.000206084076277 1
force Co   0.000036092028343  -0.002787824865041  -0.000319587550817 1
force Co   0.000262257809886  -0.001719258157333  -0.000312928914660 1
force Co  -0.001290535647080  -0.005239321074871  -0.002351161745150 1
force Co   0.002511501285957  -0.005353842066061   0.001331372139560 1
force Co   0.003846140252362  -0.005379557616902   0.001822844854138 1
force Co   0.002960510812174  -0.003332017660366   0.001028437289884 1
force Co   0.000905179112370  -0.002858810222957  -0.000483714668769 1
force Co   0.001795926093920  -0.002689193924962   0.002816720149679 1
force Co   0.000077238585698  -0.001707253492994   0.002138975095278 1
force Co   0.000172077486600  -0.002921502298836  -0.001181196792896 1
force O  -0.001072253433291  -0.001974837172972  -0.002331298685079 1

# Energy components:
   Eewald =    -3301.4846187699035909
       EH =     1357.6640873235844538
     Eloc =    -3836.4336596787243252
      Enl =      824.6269687956248617
      Exc =     -521.3003094490250078
 Exc_core =       16.9295549784205797
       KE =      689.0201061726895659
-------------------------------------
     Etot =    -4770.9778706273345961
       TS =        0.5370464785156014
-------------------------------------
        F =    -4771.5149171058501452

IonicMinimize: Iter:  14  F: -4771.514917105850145  |grad|_K:  1.015e-04  alpha:  1.000e+00  linmin: -2.351e-01  t[s]:  48895.90

#--- Lowdin population analysis ---
# oxidation-state Co +0.008 +0.007 +0.007 +0.008 +0.016 +0.016 +0.016 +0.016 +0.018 +0.018 +0.018 +0.018 +0.007 +0.008 +0.008 +0.008 +0.018 +0.018 +0.018 +0.018 +0.007 +0.007 +0.007 +0.007 +0.034 +0.034 +0.034 +0.034 +0.018 +0.018 +0.018 +0.018
# oxidation-state O +0.091


-------- Electronic minimization -----------
Will mix electronic density at each iteration.
	FillingsUpdate:  mu: +0.749745940  nElectrons: 550.000000
	FillingsUpdate:  mu: +0.749744116  nElectrons: 550.000000
SCF: Cycle:  0   F: -4771.514910277514900   dF: +7.355e-06   |Residual|: 1.560e-03   |deigs|: 3.296e-08  t[s]:  48999.70
	FillingsUpdate:  mu: +0.749750112  nElectrons: 550.000000
SCF: Cycle:  1   F: -4771.514005268204528   dF: +9.050e-04   |Residual|: 1.700e-02   |deigs|: 4.533e-05  t[s]:  49061.09
	FillingsUpdate:  mu: +0.749747521  nElectrons: 550.000000
SCF: Cycle:  2   F: -4771.514913712525413   dF: -9.084e-04   |Residual|: 1.562e-03   |deigs|: 3.830e-05  t[s]:  49123.68
	FillingsUpdate:  mu: +0.749746209  nElectrons: 550.000000
SCF: Cycle:  3   F: -4771.514915699128323   dF: -1.987e-06   |Residual|: 1.150e-03   |deigs|: 6.761e-06  t[s]:  49185.11
	FillingsUpdate:  mu: +0.749743586  nElectrons: 550.000000
SCF: Cycle:  4   F: -4771.514916507525413   dF: -8.084e-07   |Residual|: 1.135e-03   |deigs|: 4.108e-06  t[s]:  49249.37
	FillingsUpdate:  mu: +0.749743797  nElectrons: 550.000000
SCF: Cycle:  5   F: -4771.514919265962817   dF: -2.758e-06   |Residual|: 3.016e-04   |deigs|: 2.685e-06  t[s]:  49311.40
	FillingsUpdate:  mu: +0.749745819  nElectrons: 550.000000
SCF: Cycle:  6   F: -4771.514918656713235   dF: +6.092e-07   |Residual|: 5.727e-04   |deigs|: 2.710e-06  t[s]:  49373.21
	FillingsUpdate:  mu: +0.749746141  nElectrons: 550.000000
SCF: Cycle:  7   F: -4771.514919426573215   dF: -7.699e-07   |Residual|: 1.292e-04   |deigs|: 1.451e-06  t[s]:  49434.02
	FillingsUpdate:  mu: +0.749745791  nElectrons: 550.000000
SCF: Cycle:  8   F: -4771.514919345942872   dF: +8.063e-08   |Residual|: 2.128e-04   |deigs|: 8.449e-07  t[s]:  49488.31
	FillingsUpdate:  mu: +0.749745078  nElectrons: 550.000000
SCF: Cycle:  9   F: -4771.514919462293619   dF: -1.164e-07   |Residual|: 6.744e-05   |deigs|: 7.786e-07  t[s]:  49550.69
	FillingsUpdate:  mu: +0.749745092  nElectrons: 550.000000
SCF: Cycle: 10   F: -4771.514919459493285   dF: +2.800e-09   |Residual|: 7.589e-05   |deigs|: 3.161e-07  t[s]:  49608.86
	FillingsUpdate:  mu: +0.749745407  nElectrons: 550.000000
SCF: Cycle: 11   F: -4771.514919472034308   dF: -1.254e-08   |Residual|: 3.573e-05   |deigs|: 3.295e-07  t[s]:  49669.25
	FillingsUpdate:  mu: +0.749745642  nElectrons: 550.000000
SCF: Cycle: 12   F: -4771.514919464314517   dF: +7.720e-09   |Residual|: 6.122e-05   |deigs|: 3.202e-07  t[s]:  49731.33
	FillingsUpdate:  mu: +0.749745393  nElectrons: 550.000000
SCF: Cycle: 13   F: -4771.514919474111593   dF: -9.797e-09   |Residual|: 1.755e-05   |deigs|: 2.677e-07  t[s]:  49790.30
	FillingsUpdate:  mu: +0.749745379  nElectrons: 550.000000
SCF: Cycle: 14   F: -4771.514919475005627   dF: -8.940e-10   |Residual|: 8.687e-06   |deigs|: 4.603e-08  t[s]:  49826.55
SCF: Converged (|Delta E|<1.000000e-08 for 2 iters).

Setting wave functions to eigenvectors of Hamiltonian

# Ionic positions in lattice coordinates:
ion Co   0.003303458162142   0.005889598730985  -0.001757064496861 1
ion Co   0.003207059222206   0.248478902131740   0.249240351499081 1
ion Co   0.245567846651047   0.006054269235561   0.249365217731871 1
ion Co   0.246012819650894   0.248543514533665  -0.001799372556887 1
ion Co  -0.000230864200146   0.001931155466590   0.499015638189761 1
ion Co  -0.000091998683262   0.251570239947195   0.748611813452899 1
ion Co   0.249477248423044   0.001866372354209   0.748779486818879 1
ion Co   0.249348753357136   0.251612634610259   0.498985372699023 1
ion Co   0.002371077007342   0.500395467053652  -0.002629807547012 1
ion Co   0.002517865101467   0.753356598234315   0.250059254809717 1
ion Co   0.246820558557666   0.500382535363135   0.250123007066525 1
ion Co   0.246573853097794   0.753327806966588  -0.002656257085483 1
ion Co   0.003346386184807   0.501193881932465   0.502251458604766 1
ion Co   0.003251847770058   0.752334428017858   0.744876973597341 1
ion Co   0.245815879213077   0.501350306716286   0.744972821716641 1
ion Co   0.245655585724886   0.752295174819645   0.502376450852767 1
ion Co   0.498071480903857   0.005176669843318  -0.002545544613990 1
ion Co   0.498087867838140   0.248948745857657   0.250229501935850 1
ion Co   0.751225511381045   0.005088501086476   0.250156070173026 1
ion Co   0.751110306957170   0.249041426522448  -0.002662836528777 1
ion Co   0.499109211526032   0.006126479220345   0.502604452269440 1
ion Co   0.499032394901407   0.248439630851391   0.744941023189637 1
ion Co   0.750040391756689   0.006124474940363   0.744980452582387 1
ion Co   0.750117982006703   0.248280548323737   0.502355963255201 1
ion Co   0.479710647806368   0.482052679845776  -0.021664995141014 1
ion Co   0.479254267560559   0.772885846552339   0.269223414966375 1
ion Co   0.769489901641757   0.481874244411636   0.269073097666854 1
ion Co   0.769646928052221   0.772507423614620  -0.021808210105849 1
ion Co   0.498023893513292   0.500398818497021   0.501912151137234 1
ion Co   0.498080831036633   0.753540303382630   0.745436595526404 1
ion Co   0.751261537226154   0.500307695605457   0.745468946346995 1
ion Co   0.751028110517101   0.753564897457821   0.501928198889183 1
ion O   0.624451360134716   0.627618727872818   0.123966373098018 1

# Forces in Lattice coordinates:
force Co   0.000388406163303  -0.001413820309053  -0.000557613904415 1
force Co  -0.000035378936440  -0.003239995158302   0.001264624353977 1
force Co   0.001892092635190  -0.003040003345941   0.000234370947650 1
force Co  -0.000262645240406  -0.002518951007634   0.001218434116690 1
force Co   0.000100601227302  -0.002706097602929  -0.000440487813340 1
force Co  -0.000780245966299  -0.002177613244545   0.000452738170991 1
force Co   0.000618200515366  -0.002677624692623  -0.000518316371880 1
force Co   0.001133989684288  -0.002242334408924   0.001042201963840 1
force Co   0.001317241444614  -0.002458497097258  -0.000985579395179 1
force Co   0.000503416354654  -0.001294273962428  -0.000405295280256 1
force Co  -0.000794070657925  -0.002747380175355   0.001120146770379 1
force Co   0.001107117538173  -0.002048301237464   0.000807874784190 1
force Co   0.000044778374505  -0.002935622293267   0.000700400942619 1
force Co  -0.000080652499726  -0.002500866341978  -0.000916570895525 1
force Co   0.000107141251235  -0.002367671979949  -0.000001786576837 1
force Co   0.001448308478426  -0.002156906705162   0.000403198633776 1
force Co   0.000929913322826  -0.002346429561670  -0.001044404613883 1
force Co   0.001543862301664  -0.001860953641979  -0.000503826135072 1
force Co  -0.000994463051265  -0.002527578280548   0.000404166749420 1
force Co   0.000959524491567  -0.003480876284856   0.000506227475691 1
force Co  -0.000611940928913  -0.002297945064641  -0.000253254979655 1
force Co   0.001394859780997  -0.002250111387933  -0.000221228746875 1
force Co   0.000657126487687  -0.003372538209844  -0.000245389938860 1
force Co   0.000571845551755  -0.002136392723926   0.000283546195392 1
force Co  -0.000388807009172  -0.003897745339916  -0.000547808863862 1
force Co   0.002125852189073  -0.004919151117818   0.000940808381269 1
force Co   0.000901400675885  -0.002236251243401  -0.000862499025564 1
force Co   0.001372151637222  -0.003848756785219   0.001624811484762 1
force Co   0.001039641048370  -0.002611405947271  -0.000132643172784 1
force Co   0.001504950844256  -0.002686494330410   0.001940823069781 1
force Co   0.000161221490506  -0.001723166261036   0.001592709398688 1
force Co   0.000102456060468  -0.003220924074835  -0.000585390928910 1
force O   0.001101191251735  -0.003319639121938  -0.001747996435417 1

# Energy components:
   Eewald =    -3301.4777104533927741
       EH =     1357.6712089174664015
     Eloc =    -3836.4474429764995875
      Enl =      824.6268171932219957
      Exc =     -521.3002083788042000
 Exc_core =       16.9295562379277484
       KE =      689.0199151284741674
-------------------------------------
     Etot =    -4770.9778643316058151
       TS =        0.5370551434002138
-------------------------------------
        F =    -4771.5149194750056267

IonicMinimize: Iter:  15  F: -4771.514919475005627  |grad|_K:  6.225e-05  alpha:  1.000e+00  linmin: -3.326e-01  t[s]:  49837.11
IonicMinimize: Converged (|grad|_K<1.000000e-04).

#--- Lowdin population analysis ---
# oxidation-state Co +0.008 +0.007 +0.008 +0.008 +0.016 +0.016 +0.016 +0.016 +0.018 +0.018 +0.018 +0.018 +0.007 +0.008 +0.008 +0.008 +0.018 +0.018 +0.018 +0.018 +0.007 +0.007 +0.007 +0.007 +0.034 +0.034 +0.034 +0.034 +0.018 +0.018 +0.018 +0.018
# oxidation-state O +0.091


Dumping 'Co_tet.Ecomponents' ... done
End date and time: Mon Jun 17 10:49:47 2024  (Duration: 0-13:50:45.66)
Done!
