--------------------------------------------------------------------------
[[3287,1],3]: A high-performance Open MPI point-to-point messaging module
was unable to find any relevant network interfaces:

Module: OpenFabrics (openib)
  Host: node3225

Another transport will be used instead, although this may result in
lower performance.
--------------------------------------------------------------------------

*************** JDFTx 1.7.0 (git hash 3664913) ***************

Start date and time: Tue Jul 16 13:19:15 2024
Executable jdftx with command-line: -i V_ionic.in
Running on hosts (process indices):  node3225.physics.cornell.edu (0-17)
Divided in process groups (process indices):  0 (0)  1 (1)  2 (2)  3 (3)  4 (4)  5 (5)  6 (6)  7 (7)  8 (8)  9 (9)  10 (10)  11 (11)  12 (12)  13 (13)  14 (14)  15 (15)  16 (16)  17 (17)
Resource initialization completed at t[s]:      0.00
Run totals: 18 processes, 36 threads, 0 GPUs


Input parsed successfully to the following command list (including defaults):

basis kpoint-dependent
coords-type Lattice
core-overlap-check vector
coulomb-interaction Periodic
davidson-band-ratio 1.1
dump End Ecomponents
dump-name $INPUT.$VAR
elec-cutoff 20 100
elec-eigen-algo Davidson
elec-ex-corr gga-PBEsol
elec-smearing Fermi 0.01
electronic-minimize  \
	dirUpdateScheme      FletcherReeves \
	linminMethod         DirUpdateRecommended \
	nIterations          100 \
	history              15 \
	knormThreshold       0 \
	maxThreshold         no \
	energyDiffThreshold  1e-08 \
	nEnergyDiff          2 \
	alphaTstart          1 \
	alphaTmin            1e-10 \
	updateTestStepSize   yes \
	alphaTreduceFactor   0.1 \
	alphaTincreaseFactor 3 \
	nAlphaAdjustMax      3 \
	wolfeEnergy          0.0001 \
	wolfeGradient        0.9 \
	fdTest               no
electronic-scf  \
	nIterations	50 \
	energyDiffThreshold	1e-08 \
	residualThreshold	1e-07 \
	mixFraction	0.5 \
	qMetric	0.8 \
	history	10 \
	nEigSteps	2 \
	eigDiffThreshold	1e-08 \
	mixedVariable	Density \
	qKerker	0.8 \
	qKappa	-1 \
	verbose	no \
	mixFractionMag	1.5
exchange-regularization WignerSeitzTruncated
fluid None
fluid-ex-corr lda-TF lda-PZ
fluid-gummel-loop 10 1.000000e-05
fluid-minimize  \
	dirUpdateScheme      PolakRibiere \
	linminMethod         DirUpdateRecommended \
	nIterations          100 \
	history              15 \
	knormThreshold       0 \
	maxThreshold         no \
	energyDiffThreshold  0 \
	nEnergyDiff          2 \
	alphaTstart          1 \
	alphaTmin            1e-10 \
	updateTestStepSize   yes \
	alphaTreduceFactor   0.1 \
	alphaTincreaseFactor 3 \
	nAlphaAdjustMax      3 \
	wolfeEnergy          0.0001 \
	wolfeGradient        0.9 \
	fdTest               no
fluid-solvent H2O 55.338 ScalarEOS \
	epsBulk 78.4 \
	pMol 0.92466 \
	epsInf 1.77 \
	Pvap 1.06736e-10 \
	sigmaBulk 4.62e-05 \
	Rvdw 2.61727 \
	Res 1.42 \
	tauNuc 343133 \
	poleEl 15 7 1
forces-output-coords Positions
ion V   0.000000000000000   0.000000000000000   0.000000000000000 0
ion V   0.154350000000000   0.175980000000000   0.177600000000000 1
ion V  -0.023460000000000  -0.002170000000000   0.346540000000000 1
ion V   0.173450000000000   0.170430000000000   0.488840000000000 1
ion V  -0.005150000000000  -0.000580000000000   0.659590000000000 1
ion V   0.156310000000000   0.176380000000000   0.840520000000000 1
ion V   0.002120000000000   0.337210000000000  -0.009730000000000 1
ion V   0.167880000000000   0.495830000000000   0.173680000000000 1
ion V  -0.005520000000000   0.339270000000000   0.341360000000000 1
ion V   0.185610000000000   0.501000000000000   0.484490000000000 1
ion V   0.005240000000000   0.329340000000000   0.680770000000000 1
ion V   0.169230000000000   0.489480000000000   0.831170000000000 1
ion V  -0.006360000000000   0.666420000000000  -0.012270000000000 1
ion V   0.167420000000000   0.827770000000000   0.175480000000000 1
ion V  -0.011190000000000   0.659920000000000   0.340780000000000 1
ion V   0.176430000000000   0.838650000000000   0.500180000000000 1
ion V  -0.011090000000000   0.676260000000000   0.667080000000000 1
ion V   0.157970000000000   0.853430000000000   0.820690000000000 1
ion V   0.326480000000000  -0.017670000000000   0.007910000000000 1
ion V   0.493920000000000   0.158750000000000   0.170220000000000 1
ion V   0.325830000000000  -0.007290000000000   0.343560000000000 1
ion V   0.494280000000000   0.161390000000000   0.517900000000000 1
ion V   0.335290000000000  -0.007540000000000   0.676740000000000 1
ion V   0.495780000000000   0.171540000000000   0.818920000000000 1
ion V   0.317530000000000   0.327430000000000  -0.005510000000000 1
ion V   0.493890000000000   0.488450000000000   0.160180000000000 1
ion V   0.330740000000000   0.326550000000000   0.328610000000000 1
ion V   0.496820000000000   0.491370000000000   0.499250000000000 1
ion V   0.328670000000000   0.334050000000000   0.666800000000000 1
ion V   0.509350000000000   0.488980000000000   0.854420000000000 1
ion V   0.347830000000000   0.670270000000000   0.018390000000000 1
ion V   0.509400000000000   0.829340000000000   0.172120000000000 1
ion V   0.336460000000000   0.667020000000000   0.364940000000000 1
ion V   0.511160000000000   0.821820000000000   0.503420000000000 1
ion V   0.333320000000000   0.674410000000000   0.682290000000000 1
ion V   0.503550000000000   0.837470000000000   0.844630000000000 1
ion V   0.641240000000000   0.002820000000000   0.003430000000000 1
ion V   0.857130000000000   0.170290000000000   0.148660000000000 1
ion V   0.671630000000000  -0.003100000000000   0.345680000000000 1
ion V   0.839090000000000   0.149300000000000   0.481140000000000 1
ion V   0.655800000000000   0.011900000000000   0.661150000000000 1
ion V   0.831680000000000   0.174460000000000   0.830840000000000 1
ion V   0.660450000000000   0.333540000000000   0.002620000000000 1
ion V   0.836360000000000   0.500550000000000   0.165960000000000 1
ion V   0.678940000000000   0.330230000000000   0.347410000000000 1
ion V   0.802050000000000   0.500460000000000   0.497450000000000 1
ion V   0.647170000000000   0.310630000000000   0.691040000000000 1
ion V   0.845910000000000   0.492890000000000   0.823740000000000 1
ion V   0.667410000000000   0.678570000000000  -0.019380000000000 1
ion V   0.829070000000000   0.823760000000000   0.177240000000000 1
ion V   0.653340000000000   0.670850000000000   0.313650000000000 1
ion V   0.837730000000000   0.831370000000000   0.495060000000000 1
ion V   0.654340000000000   0.676030000000000   0.677580000000000 1
ion V   0.831880000000000   0.832400000000000   0.821630000000000 1
ion-species GBRV/$ID_pbesol.uspp
ion-width 0
ionic-minimize  \
	dirUpdateScheme      L-BFGS \
	linminMethod         DirUpdateRecommended \
	nIterations          30 \
	history              15 \
	knormThreshold       0.0001 \
	maxThreshold         no \
	energyDiffThreshold  1e-06 \
	nEnergyDiff          2 \
	alphaTstart          1 \
	alphaTmin            1e-10 \
	updateTestStepSize   yes \
	alphaTreduceFactor   0.1 \
	alphaTincreaseFactor 3 \
	nAlphaAdjustMax      3 \
	wolfeEnergy          0.0001 \
	wolfeGradient        0.9 \
	fdTest               no
kpoint   0.500000000000   0.500000000000   0.500000000000  1.00000000000000
kpoint-folding 3 3 3 
latt-move-scale 1 1 1
latt-scale 1 1 1 
lattice  \
	  16.834482362426918    0.000000000000000    0.000000000000000  \
	   0.000000000000000   16.834482362426918    0.000000000000000  \
	   0.000000000000000    0.000000000000000   16.834482362426918 
lattice-minimize  \
	dirUpdateScheme      L-BFGS \
	linminMethod         DirUpdateRecommended \
	nIterations          0 \
	history              15 \
	knormThreshold       0 \
	maxThreshold         no \
	energyDiffThreshold  1e-06 \
	nEnergyDiff          2 \
	alphaTstart          1 \
	alphaTmin            1e-10 \
	updateTestStepSize   yes \
	alphaTreduceFactor   0.1 \
	alphaTincreaseFactor 3 \
	nAlphaAdjustMax      3 \
	wolfeEnergy          0.0001 \
	wolfeGradient        0.9 \
	fdTest               no
lcao-params -1 1e-06 0.01
pcm-variant GLSSA13
perturb-minimize  \
	nIterations            0 \
	algorithm              MINRES \
	residualTol            0.0001 \
	residualDiffThreshold  0.0001 \
	CGBypass               no \
	recomputeResidual      no
spintype no-spin
subspace-rotation-factor 1 yes
symmetries automatic
symmetry-threshold 0.0001



---------- Setting up symmetries ----------

Found 48 point-group symmetries of the bravais lattice
Found 1 space-group symmetries with basis
Applied RMS atom displacement 0 bohrs to make symmetries exact.

---------- Initializing the Grid ----------
R = 
[      16.8345            0            0  ]
[            0      16.8345            0  ]
[            0            0      16.8345  ]
unit cell volume = 4770.89
G =
[   0.373233          0          0  ]
[          0   0.373233          0  ]
[          0          0   0.373233  ]
Minimum fftbox size, Smin = [  76  76  76  ]
Chosen fftbox size, S = [  80  80  80  ]

---------- Initializing tighter grid for wavefunction operations ----------
R = 
[      16.8345            0            0  ]
[            0      16.8345            0  ]
[            0            0      16.8345  ]
unit cell volume = 4770.89
G =
[   0.373233          0          0  ]
[          0   0.373233          0  ]
[          0          0   0.373233  ]
Minimum fftbox size, Smin = [  68  68  68  ]
Chosen fftbox size, S = [  70  70  70  ]

---------- Exchange Correlation functional ----------
Initalized PBEsol GGA exchange.
Initalized PBEsol GGA correlation.

---------- Setting up pseudopotentials ----------
Width of ionic core gaussian charges (only for fluid interactions / plotting) set to 0

Reading pseudopotential file '/home/rc652/build/pseudopotentials/GBRV/v_pbesol.uspp':
  Title: V.  Created by USPP 7.3.6 on 22-9-15
  Reference state energy: -72.158624.  13 valence electrons in orbitals:
    |300>  occupation: 2  eigenvalue: -2.573661
    |310>  occupation: 6  eigenvalue: -1.615030
    |400>  occupation: 2  eigenvalue: -0.173307
    |320>  occupation: 3  eigenvalue: -0.190514
  lMax: 2  lLocal: 3  QijEcut: 6
  6 projectors sampled on a log grid with 593 points:
    l: 0  eig: -2.573661  rCut: 1.5
    l: 0  eig: -0.173307  rCut: 1.5
    l: 1  eig: -1.615030  rCut: 1.6
    l: 1  eig: 0.150000  rCut: 1.6
    l: 2  eig: -0.190514  rCut: 1.7
    l: 2  eig: 0.150000  rCut: 1.7
  Partial core density with radius 0.8
  Transforming core density to a uniform radial grid of dG=0.02 with 1298 points.
  Transforming local potential to a uniform radial grid of dG=0.02 with 1298 points.
  Transforming nonlocal projectors to a uniform radial grid of dG=0.02 with 432 points.
  Transforming density augmentations to a uniform radial grid of dG=0.02 with 1298 points.
  Transforming atomic orbitals to a uniform radial grid of dG=0.02 with 432 points.
  Core radius for overlap checks: 1.80 bohrs.

Initialized 1 species with 54 total atoms.

Folded 1 k-points by 3x3x3 to 27 k-points.

---------- Setting up k-points, bands, fillings ----------
Adding inversion symmetry to k-mesh for non-inversion-symmetric unit cell.
Reduced to 14 k-points under symmetry. 
Computing the number of bands and number of electrons
Calculating initial fillings.
nElectrons: 702.000000   nBands: 540   nStates: 14

----- Setting up reduced wavefunction bases (one per k-point) -----
average nbasis = 20387.259 , ideal nbasis = 20381.601

---------- Setting up ewald sum ----------
Optimum gaussian width for ewald sums = 3.454439 bohr.
Real space sum over 343 unit cells with max indices [  3  3  3  ]
Reciprocal space sum over 6859 terms with max indices [  9  9  9  ]

---------- Allocating electronic variables ----------
Initializing wave functions:  linear combination of atomic orbitals
V pseudo-atom occupations:   s ( 2 0 )  p ( 6 )  d ( 5 )
	FillingsUpdate:  mu: +0.679280891  nElectrons: 702.000000
LCAOMinimize: Iter:   0  F: -3865.9093999005090154  |grad|_K:  1.020e-03  alpha:  1.000e+00
	FillingsUpdate:  mu: +0.688254366  nElectrons: 702.000000
LCAOMinimize: Iter:   1  F: -3866.4518316650878660  |grad|_K:  1.081e-03  alpha:  1.646e-01  linmin: -1.058e-01  cgtest:  4.167e-01  t[s]:    102.12
	FillingsUpdate:  mu: +0.690459469  nElectrons: 702.000000
LCAOMinimize: Iter:   2  F: -3867.0313185932950546  |grad|_K:  2.132e-03  alpha:  1.897e-01  linmin:  1.120e-02  cgtest: -3.379e-01  t[s]:    136.26
	FillingsUpdate:  mu: +0.694818960  nElectrons: 702.000000
LCAOMinimize: Iter:   3  F: -3867.1911369893755364  |grad|_K:  2.286e-03  alpha:  1.276e-02  linmin: -2.474e-02  cgtest:  9.767e-01  t[s]:    170.59
	FillingsUpdate:  mu: +0.709273846  nElectrons: 702.000000
LCAOMinimize: Iter:   4  F: -3867.6031041669261867  |grad|_K:  5.451e-04  alpha:  3.774e-02  linmin:  6.643e-02  cgtest: -4.744e-01  t[s]:    204.43
LCAOMinimize: 	Predicted alpha/alphaT>3.000000, increasing alphaT to 1.132260e-01.
	FillingsUpdate:  mu: +0.714464175  nElectrons: 702.000000
LCAOMinimize: Iter:   5  F: -3867.6834024797390157  |grad|_K:  8.100e-04  alpha:  1.592e-01  linmin:  5.582e-03  cgtest:  3.166e-01  t[s]:    247.00
	FillingsUpdate:  mu: +0.719285846  nElectrons: 702.000000
LCAOMinimize: Iter:   6  F: -3867.7782940821261946  |grad|_K:  6.617e-04  alpha:  6.773e-02  linmin: -7.608e-03  cgtest:  6.588e-02  t[s]:    281.35
	FillingsUpdate:  mu: +0.721585453  nElectrons: 702.000000
LCAOMinimize: Iter:   7  F: -3867.8312349079328669  |grad|_K:  2.375e-04  alpha:  5.591e-02  linmin:  4.320e-03  cgtest: -2.009e-01  t[s]:    315.43
	FillingsUpdate:  mu: +0.722766228  nElectrons: 702.000000
LCAOMinimize: Iter:   8  F: -3867.8383272553796814  |grad|_K:  2.014e-04  alpha:  6.257e-02  linmin:  1.536e-03  cgtest:  5.275e-02  t[s]:    348.93
	FillingsUpdate:  mu: +0.723337299  nElectrons: 702.000000
LCAOMinimize: Iter:   9  F: -3867.8425762593224135  |grad|_K:  1.083e-04  alpha:  5.138e-02  linmin:  8.042e-04  cgtest:  1.256e-02  t[s]:    382.95
	FillingsUpdate:  mu: +0.723735942  nElectrons: 702.000000
LCAOMinimize: Iter:  10  F: -3867.8443033953822123  |grad|_K:  9.658e-05  alpha:  7.224e-02  linmin:  9.204e-04  cgtest:  1.371e-04  t[s]:    416.51
	FillingsUpdate:  mu: +0.724051478  nElectrons: 702.000000
LCAOMinimize: Iter:  11  F: -3867.8453311426846994  |grad|_K:  6.279e-05  alpha:  5.393e-02  linmin:  1.833e-04  cgtest:  1.257e-02  t[s]:    450.85
	FillingsUpdate:  mu: +0.724448958  nElectrons: 702.000000
LCAOMinimize: Iter:  12  F: -3867.8460395581478224  |grad|_K:  5.932e-05  alpha:  8.793e-02  linmin:  7.060e-04  cgtest: -2.755e-03  t[s]:    484.44
	FillingsUpdate:  mu: +0.724648733  nElectrons: 702.000000
LCAOMinimize: Iter:  13  F: -3867.8463876597993476  |grad|_K:  3.540e-05  alpha:  4.836e-02  linmin: -2.276e-04  cgtest:  1.574e-02  t[s]:    518.74
	FillingsUpdate:  mu: +0.724787171  nElectrons: 702.000000
LCAOMinimize: Iter:  14  F: -3867.8465755753463782  |grad|_K:  2.535e-05  alpha:  7.318e-02  linmin:  3.872e-04  cgtest: -5.070e-03  t[s]:    552.63
	FillingsUpdate:  mu: +0.724845296  nElectrons: 702.000000
LCAOMinimize: Iter:  15  F: -3867.8466346121531387  |grad|_K:  1.565e-05  alpha:  4.488e-02  linmin: -3.474e-05  cgtest:  5.306e-03  t[s]:    586.36
	FillingsUpdate:  mu: +0.724910010  nElectrons: 702.000000
LCAOMinimize: Iter:  16  F: -3867.8466736080490591  |grad|_K:  1.184e-05  alpha:  7.777e-02  linmin:  2.214e-04  cgtest: -2.087e-03  t[s]:    620.32
	FillingsUpdate:  mu: +0.724947686  nElectrons: 702.000000
LCAOMinimize: Iter:  17  F: -3867.8466898780261545  |grad|_K:  9.907e-06  alpha:  5.666e-02  linmin:  1.400e-05  cgtest:  2.125e-03  t[s]:    654.28
	FillingsUpdate:  mu: +0.724988980  nElectrons: 702.000000
LCAOMinimize: Iter:  18  F: -3867.8467052235655501  |grad|_K:  6.865e-06  alpha:  7.633e-02  linmin:  8.579e-05  cgtest: -9.325e-04  t[s]:    688.51
	FillingsUpdate:  mu: +0.725009350  nElectrons: 702.000000
LCAOMinimize: Iter:  19  F: -3867.8467109686930598  |grad|_K:  5.569e-06  alpha:  5.952e-02  linmin:  2.724e-05  cgtest:  8.479e-04  t[s]:    722.39
	FillingsUpdate:  mu: +0.725028129  nElectrons: 702.000000
LCAOMinimize: Iter:  20  F: -3867.8467144924989043  |grad|_K:  2.956e-06  alpha:  5.548e-02  linmin:  3.951e-05  cgtest:  1.336e-04  t[s]:    755.99
	FillingsUpdate:  mu: +0.725036305  nElectrons: 702.000000
LCAOMinimize: Iter:  21  F: -3867.8467156730398528  |grad|_K:  2.568e-06  alpha:  6.592e-02  linmin:  1.789e-05  cgtest:  1.950e-04  t[s]:    790.75
	FillingsUpdate:  mu: +0.725040804  nElectrons: 702.000000
LCAOMinimize: Iter:  22  F: -3867.8467164259341189  |grad|_K:  1.629e-06  alpha:  5.569e-02  linmin: -5.066e-05  cgtest:  4.906e-04  t[s]:    824.53
	FillingsUpdate:  mu: +0.725046429  nElectrons: 702.000000
LCAOMinimize: Iter:  23  F: -3867.8467169065438611  |grad|_K:  1.655e-06  alpha:  8.831e-02  linmin: -2.071e-04  cgtest:  1.048e-03  t[s]:    858.51
LCAOMinimize: Converged (|Delta F|<1.000000e-06 for 2 iters).


---- Citations for features of the code used in this run ----

   Software package:
      R. Sundararaman, K. Letchworth-Weaver, K.A. Schwarz, D. Gunceler, Y. Ozhabes and T.A. Arias, 'JDFTx: software for joint density-functional theory', SoftwareX 6, 278 (2017)

   gga-PBEsol exchange-correlation functional:
      J.P. Perdew et al., Phys. Rev. Lett. 100, 136406 (2008)

   Pseudopotentials:
      KF Garrity, JW Bennett, KM Rabe and D Vanderbilt, Comput. Mater. Sci. 81, 446 (2014)

This list may not be complete. Please suggest additional citations or
report any other bugs at https://github.com/shankar1729/jdftx/issues

Initialization completed successfully at t[s]:    876.48


-------- Electronic minimization -----------
Will mix electronic density at each iteration.
	FillingsUpdate:  mu: +0.725046429  nElectrons: 702.000000
	FillingsUpdate:  mu: +0.689344249  nElectrons: 702.000000
SCF: Cycle:  0   F: -3866.973699390705406   dF: +8.730e-01   |Residual|: 2.195e+00   |deigs|: 2.791e-02  t[s]:   1037.96
	FillingsUpdate:  mu: +0.626614126  nElectrons: 702.000000
SCF: Cycle:  1   F: -3871.650206080399585   dF: -4.677e+00   |Residual|: 3.980e-01   |deigs|: 9.654e-02  t[s]:   1173.95
	FillingsUpdate:  mu: +0.631267080  nElectrons: 702.000000
SCF: Cycle:  2   F: -3867.648341375458131   dF: +4.002e+00   |Residual|: 9.131e-01   |deigs|: 7.682e-03  t[s]:   1310.36
	FillingsUpdate:  mu: +0.631043842  nElectrons: 702.000000
SCF: Cycle:  3   F: -3872.001832484128499   dF: -4.353e+00   |Residual|: 1.188e-01   |deigs|: 5.820e-03  t[s]:   1447.61
	FillingsUpdate:  mu: +0.631111563  nElectrons: 702.000000
SCF: Cycle:  4   F: -3871.696432274208291   dF: +3.054e-01   |Residual|: 2.613e-01   |deigs|: 8.914e-04  t[s]:   1583.57
	FillingsUpdate:  mu: +0.631032485  nElectrons: 702.000000
SCF: Cycle:  5   F: -3872.017937651701686   dF: -3.215e-01   |Residual|: 2.628e-02   |deigs|: 9.879e-04  t[s]:   1716.24
	FillingsUpdate:  mu: +0.630804925  nElectrons: 702.000000
SCF: Cycle:  6   F: -3872.009347657281069   dF: +8.590e-03   |Residual|: 4.841e-02   |deigs|: 3.793e-04  t[s]:   1816.86
	FillingsUpdate:  mu: +0.630649980  nElectrons: 702.000000
SCF: Cycle:  7   F: -3872.020621921757538   dF: -1.127e-02   |Residual|: 5.797e-03   |deigs|: 2.534e-04  t[s]:   1896.43
	FillingsUpdate:  mu: +0.630668926  nElectrons: 702.000000
SCF: Cycle:  8   F: -3872.020336068206234   dF: +2.859e-04   |Residual|: 8.830e-03   |deigs|: 4.241e-05  t[s]:   1977.24
	FillingsUpdate:  mu: +0.630700451  nElectrons: 702.000000
SCF: Cycle:  9   F: -3872.020733715315146   dF: -3.976e-04   |Residual|: 1.693e-03   |deigs|: 5.283e-05  t[s]:   2062.60
	FillingsUpdate:  mu: +0.630697471  nElectrons: 702.000000
SCF: Cycle: 10   F: -3872.020725754056002   dF: +7.961e-06   |Residual|: 2.112e-03   |deigs|: 1.046e-05  t[s]:   2143.08
	FillingsUpdate:  mu: +0.630689490  nElectrons: 702.000000
SCF: Cycle: 11   F: -3872.020744060796005   dF: -1.831e-05   |Residual|: 4.001e-04   |deigs|: 1.292e-05  t[s]:   2223.31
	FillingsUpdate:  mu: +0.630689450  nElectrons: 702.000000
SCF: Cycle: 12   F: -3872.020741507815728   dF: +2.553e-06   |Residual|: 8.091e-04   |deigs|: 3.572e-06  t[s]:   2302.65
	FillingsUpdate:  mu: +0.630689115  nElectrons: 702.000000
SCF: Cycle: 13   F: -3872.020744240085605   dF: -2.732e-06   |Residual|: 2.469e-04   |deigs|: 2.734e-06  t[s]:   2382.16
	FillingsUpdate:  mu: +0.630689500  nElectrons: 702.000000
SCF: Cycle: 14   F: -3872.020744525280861   dF: -2.852e-07   |Residual|: 1.024e-04   |deigs|: 1.236e-06  t[s]:   2461.77
	FillingsUpdate:  mu: +0.630689901  nElectrons: 702.000000
SCF: Cycle: 15   F: -3872.020744519580148   dF: +5.701e-09   |Residual|: 1.041e-04   |deigs|: 7.976e-07  t[s]:   2543.29
	FillingsUpdate:  mu: +0.630689932  nElectrons: 702.000000
SCF: Cycle: 16   F: -3872.020744572045260   dF: -5.247e-08   |Residual|: 1.484e-05   |deigs|: 3.142e-07  t[s]:   2623.29
	FillingsUpdate:  mu: +0.630689807  nElectrons: 702.000000
SCF: Cycle: 17   F: -3872.020744568620103   dF: +3.425e-09   |Residual|: 3.201e-05   |deigs|: 1.982e-07  t[s]:   2703.86
	FillingsUpdate:  mu: +0.630689799  nElectrons: 702.000000
SCF: Cycle: 18   F: -3872.020744572880176   dF: -4.260e-09   |Residual|: 5.018e-06   |deigs|: 7.546e-08  t[s]:   2783.82
	FillingsUpdate:  mu: +0.630689809  nElectrons: 702.000000
SCF: Cycle: 19   F: -3872.020744572660988   dF: +2.192e-10   |Residual|: 4.467e-06   |deigs|: 2.845e-08  t[s]:   2838.37
	FillingsUpdate:  mu: +0.630689827  nElectrons: 702.000000
SCF: Cycle: 20   F: -3872.020744572973854   dF: -3.129e-10   |Residual|: 3.005e-06   |deigs|: 3.025e-08  t[s]:   2885.42
	FillingsUpdate:  mu: +0.630689832  nElectrons: 702.000000
SCF: Cycle: 21   F: -3872.020744572903368   dF: +7.049e-11   |Residual|: 1.060e-06   |deigs|: 1.195e-08  t[s]:   2931.56
	FillingsUpdate:  mu: +0.630689844  nElectrons: 702.000000
SCF: Cycle: 22   F: -3872.020744573005231   dF: -1.019e-10   |Residual|: 1.126e-06   |deigs|: 1.712e-08  t[s]:   2976.95
	FillingsUpdate:  mu: +0.630689846  nElectrons: 702.000000
SCF: Cycle: 23   F: -3872.020744572854255   dF: +1.510e-10   |Residual|: 2.976e-07   |deigs|: 5.657e-09  t[s]:   3023.38
	FillingsUpdate:  mu: +0.630689847  nElectrons: 702.000000
SCF: Cycle: 24   F: -3872.020744572355852   dF: +4.984e-10   |Residual|: 3.019e-07   |deigs|: 2.520e-09  t[s]:   3069.24
SCF: Converged (|deigs|<1.000000e-08 for 2 iters).

Setting wave functions to eigenvectors of Hamiltonian

# Ionic positions in lattice coordinates:
ion V   0.000000000000000   0.000000000000000   0.000000000000000 0
ion V   0.154350000000000   0.175980000000000   0.177600000000000 1
ion V  -0.023460000000000  -0.002170000000000   0.346540000000000 1
ion V   0.173450000000000   0.170430000000000   0.488840000000000 1
ion V  -0.005150000000000  -0.000580000000000   0.659590000000000 1
ion V   0.156310000000000   0.176380000000000   0.840520000000000 1
ion V   0.002120000000000   0.337210000000000  -0.009730000000000 1
ion V   0.167880000000000   0.495830000000000   0.173680000000000 1
ion V  -0.005520000000000   0.339270000000000   0.341360000000000 1
ion V   0.185610000000000   0.501000000000000   0.484490000000000 1
ion V   0.005240000000000   0.329340000000000   0.680770000000000 1
ion V   0.169230000000000   0.489480000000000   0.831170000000000 1
ion V  -0.006360000000000   0.666420000000000  -0.012270000000000 1
ion V   0.167420000000000   0.827770000000000   0.175480000000000 1
ion V  -0.011190000000000   0.659920000000000   0.340780000000000 1
ion V   0.176430000000000   0.838650000000000   0.500180000000000 1
ion V  -0.011090000000000   0.676260000000000   0.667080000000000 1
ion V   0.157970000000000   0.853430000000000   0.820690000000000 1
ion V   0.326480000000000  -0.017670000000000   0.007910000000000 1
ion V   0.493920000000000   0.158750000000000   0.170220000000000 1
ion V   0.325830000000000  -0.007290000000000   0.343560000000000 1
ion V   0.494280000000000   0.161390000000000   0.517900000000000 1
ion V   0.335290000000000  -0.007540000000000   0.676740000000000 1
ion V   0.495780000000000   0.171540000000000   0.818920000000000 1
ion V   0.317530000000000   0.327430000000000  -0.005510000000000 1
ion V   0.493890000000000   0.488450000000000   0.160180000000000 1
ion V   0.330740000000000   0.326550000000000   0.328610000000000 1
ion V   0.496820000000000   0.491370000000000   0.499250000000000 1
ion V   0.328670000000000   0.334050000000000   0.666800000000000 1
ion V   0.509350000000000   0.488980000000000   0.854420000000000 1
ion V   0.347830000000000   0.670270000000000   0.018390000000000 1
ion V   0.509400000000000   0.829340000000000   0.172120000000000 1
ion V   0.336460000000000   0.667020000000000   0.364940000000000 1
ion V   0.511160000000000   0.821820000000000   0.503420000000000 1
ion V   0.333320000000000   0.674410000000000   0.682290000000000 1
ion V   0.503550000000000   0.837470000000000   0.844630000000000 1
ion V   0.641240000000000   0.002820000000000   0.003430000000000 1
ion V   0.857130000000000   0.170290000000000   0.148660000000000 1
ion V   0.671630000000000  -0.003100000000000   0.345680000000000 1
ion V   0.839090000000000   0.149300000000000   0.481140000000000 1
ion V   0.655800000000000   0.011900000000000   0.661150000000000 1
ion V   0.831680000000000   0.174460000000000   0.830840000000000 1
ion V   0.660450000000000   0.333540000000000   0.002620000000000 1
ion V   0.836360000000000   0.500550000000000   0.165960000000000 1
ion V   0.678940000000000   0.330230000000000   0.347410000000000 1
ion V   0.802050000000000   0.500460000000000   0.497450000000000 1
ion V   0.647170000000000   0.310630000000000   0.691040000000000 1
ion V   0.845910000000000   0.492890000000000   0.823740000000000 1
ion V   0.667410000000000   0.678570000000000  -0.019380000000000 1
ion V   0.829070000000000   0.823760000000000   0.177240000000000 1
ion V   0.653340000000000   0.670850000000000   0.313650000000000 1
ion V   0.837730000000000   0.831370000000000   0.495060000000000 1
ion V   0.654340000000000   0.676030000000000   0.677580000000000 1
ion V   0.831880000000000   0.832400000000000   0.821630000000000 1

# Forces in Lattice coordinates:
force V  -0.087497020281194  -0.070233896950074  -0.022335481751906 0
force V   0.162626914349217  -0.311832047748810  -0.203345368977758 1
force V   0.829921783023924  -0.113437881104767  -0.591322160097969 1
force V  -0.219531319542499  -0.106194017631612   0.322098556240548 1
force V   0.112836323079683   0.184883409741189   0.090603377257586 1
force V   0.218405678821069  -0.397708377310725  -0.202514114967610 1
force V  -0.053465047929999   0.104844121163973   0.277460794695059 1
force V  -0.084074733936380   0.206547792190907  -0.124521818865109 1
force V   0.099825933495780  -0.011812158164084  -0.171298751183434 1
force V  -0.478013933127144  -0.040852442986789   0.534928723667099 1
force V  -0.125338339643280   0.064849468062590  -0.625938388380757 1
force V  -0.047655456531776   0.429242976745689   0.091919475349029 1
force V   0.215572118133486   0.038729982764929   0.251105009436661 1
force V  -0.188679489847153  -0.008296195281268  -0.001553098168119 1
force V   0.244542322023836   0.055250085371465  -0.176075282894296 1
force V  -0.356122941729449  -0.116300428028383   0.231000486150839 1
force V   0.327075468131917  -0.279372466943859  -0.194989546232732 1
force V   0.075497670739612  -0.441034804093493   0.427068811093813 1
force V  -0.019064311212787   0.410951667389162   0.007528930611996 1
force V  -0.022544540160031   0.101288856951196   0.090662555919033 1
force V   0.245953598971357   0.117663028762862  -0.162133285917854 1
force V  -0.100651090596527  -0.012876923811760  -0.535660898147409 1
force V  -0.098835861997163   0.206757645767255  -0.207463487619796 1
force V  -0.329117639801723  -0.291944463641034   0.760008041009872 1
force V   0.376858285291863   0.034836107342133   0.314252255677668 1
force V   0.074156605334522   0.074404055570241   0.217465902925890 1
force V   0.168504975686618  -0.008958389782993   0.091667290377109 1
force V   0.086524146132853   0.089429693141525   0.217034817146958 1
force V   0.024264293250528   0.037249194376261   0.026641597770920 1
force V  -0.374161409850997   0.305338556899605  -0.356628554948831 1
force V  -0.380230803424184  -0.175656470248284  -0.278501458401257 1
force V  -0.335140295867338   0.158512288374612   0.083017404449057 1
force V   0.069532044066408  -0.061794085792846  -0.740667660592662 1
force V  -0.319123097942354   0.277299713367386   0.144414749452928 1
force V   0.092388647335990  -0.213457541215827  -0.111088373388075 1
force V  -0.250341495881480  -0.046674694144489  -0.212848401021292 1
force V   0.580000615565429   0.048585381318475  -0.029899465068562 1
force V  -0.653659454092980  -0.093927651609863   0.358013412617451 1
force V  -0.213309816334895  -0.013103801540763  -0.404700729437606 1
force V  -0.239377012932726   0.578950038955080   0.701255456162349 1
force V   0.357950287853342  -0.494611203231199   0.089942473640362 1
force V  -0.079052663333936  -0.317636548273266   0.181377446607294 1
force V   0.266086126164186  -0.093483991209354   0.074694553946388 1
force V  -0.112681161690890   0.014557444536067  -0.087898642906466 1
force V  -0.346551279714401  -0.092572398853462  -0.439944705009605 1
force V   0.375150039876456   0.013036248119072   0.182691482188032 1
force V   0.553912693245932   0.673613329158327  -0.686625589166924 1
force V  -0.403315870400116   0.222311156341647   0.100495525868206 1
force V   0.201291385800611  -0.359064542227755   0.529581665793072 1
force V   0.064341721218865   0.215924322014994  -0.430828426993055 1
force V   0.305057547082757  -0.354813653053026   0.410094147360688 1
force V  -0.372933136995689  -0.146224043386157   0.197046789594441 1
force V   0.229959456563720  -0.283418162882511  -0.202948733085884 1
force V  -0.065879674511659   0.279066779791500   0.186221017313487 1

# Energy components:
   Eewald =    -2940.1031777129715010
       EH =      793.6520391457580672
     Eloc =    -2322.5416543109927261
      Enl =       84.3217331633038043
      Exc =     -526.2605490549705110
 Exc_core =       42.6475419579491870
       KE =      996.8993742347386160
-------------------------------------
     Etot =    -3871.3846925771849783
       TS =        0.6360519951707333
-------------------------------------
        F =    -3872.0207445723558521

IonicMinimize: Iter:   0  F: -3872.020744572355852  |grad|_K:  1.745e-02  t[s]:   3090.47

#--- Lowdin population analysis ---
# oxidation-state V +0.113 +0.153 +0.080 +0.135 +0.128 +0.105 +0.085 +0.160 +0.110 +0.110 +0.126 +0.107 +0.150 +0.137 +0.117 +0.117 +0.147 +0.096 +0.157 +0.128 +0.114 +0.117 +0.121 +0.078 +0.107 +0.139 +0.078 +0.146 +0.111 +0.109 +0.133 +0.097 +0.088 +0.098 +0.163 +0.058 +0.135 +0.138 +0.129 +0.062 +0.129 +0.121 +0.111 +0.146 +0.121 +0.132 +0.088 +0.119 +0.134 +0.135 +0.081 +0.108 +0.113 +0.107


-------- Electronic minimization -----------
Will mix electronic density at each iteration.
	FillingsUpdate:  mu: +0.630689847  nElectrons: 702.000000
	FillingsUpdate:  mu: +0.635171760  nElectrons: 702.000000
SCF: Cycle:  0   F: -3849.538604578051036   dF: +2.107e+01   |Residual|: 1.799e+00   |deigs|: 2.931e-03  t[s]:   3277.38
	FillingsUpdate:  mu: +0.622069354  nElectrons: 702.000000
SCF: Cycle:  1   F: -3656.916457926355179   dF: +1.926e+02   |Residual|: 5.720e+00   |deigs|: 6.409e-02  t[s]:   3416.06
	FillingsUpdate:  mu: +0.637424116  nElectrons: 702.000000
SCF: Cycle:  2   F: -3861.707469692631093   dF: -2.048e+02   |Residual|: 1.530e+00   |deigs|: 6.220e-02  t[s]:   3553.83
	FillingsUpdate:  mu: +0.636028495  nElectrons: 702.000000
SCF: Cycle:  3   F: -3867.901149986334985   dF: -6.194e+00   |Residual|: 9.033e-01   |deigs|: 1.081e-02  t[s]:   3693.35
	FillingsUpdate:  mu: +0.631383317  nElectrons: 702.000000
SCF: Cycle:  4   F: -3870.926716605858473   dF: -3.026e+00   |Residual|: 5.096e-01   |deigs|: 7.969e-03  t[s]:   3832.72
	FillingsUpdate:  mu: +0.630937718  nElectrons: 702.000000
SCF: Cycle:  5   F: -3871.573141862603279   dF: -6.464e-01   |Residual|: 3.460e-01   |deigs|: 1.537e-03  t[s]:   3970.54
	FillingsUpdate:  mu: +0.630936033  nElectrons: 702.000000
SCF: Cycle:  6   F: -3872.050441414911802   dF: -4.773e-01   |Residual|: 7.220e-02   |deigs|: 1.614e-03  t[s]:   4107.71
	FillingsUpdate:  mu: +0.630724972  nElectrons: 702.000000
SCF: Cycle:  7   F: -3872.032394271140220   dF: +1.805e-02   |Residual|: 9.025e-02   |deigs|: 3.863e-04  t[s]:   4226.36
	FillingsUpdate:  mu: +0.630358259  nElectrons: 702.000000
SCF: Cycle:  8   F: -3872.063136594797470   dF: -3.074e-02   |Residual|: 2.581e-02   |deigs|: 5.520e-04  t[s]:   4336.41
	FillingsUpdate:  mu: +0.630428301  nElectrons: 702.000000
SCF: Cycle:  9   F: -3872.062746908341069   dF: +3.897e-04   |Residual|: 2.659e-02   |deigs|: 1.374e-04  t[s]:   4416.71
	FillingsUpdate:  mu: +0.630540270  nElectrons: 702.000000
SCF: Cycle: 10   F: -3872.065595430613939   dF: -2.849e-03   |Residual|: 8.261e-03   |deigs|: 1.741e-04  t[s]:   4497.02
	FillingsUpdate:  mu: +0.630494273  nElectrons: 702.000000
SCF: Cycle: 11   F: -3872.065353669720025   dF: +2.418e-04   |Residual|: 9.811e-03   |deigs|: 7.361e-05  t[s]:   4577.06
	FillingsUpdate:  mu: +0.630484322  nElectrons: 702.000000
SCF: Cycle: 12   F: -3872.065860909837284   dF: -5.072e-04   |Residual|: 1.151e-03   |deigs|: 3.061e-05  t[s]:   4656.53
	FillingsUpdate:  mu: +0.630484997  nElectrons: 702.000000
SCF: Cycle: 13   F: -3872.065844129548168   dF: +1.678e-05   |Residual|: 2.179e-03   |deigs|: 6.917e-06  t[s]:   4735.07
	FillingsUpdate:  mu: +0.630483642  nElectrons: 702.000000
SCF: Cycle: 14   F: -3872.065865686478901   dF: -2.156e-05   |Residual|: 3.946e-04   |deigs|: 5.803e-06  t[s]:   4814.47
	FillingsUpdate:  mu: +0.630484469  nElectrons: 702.000000
SCF: Cycle: 15   F: -3872.065865499355368   dF: +1.871e-07   |Residual|: 4.041e-04   |deigs|: 2.112e-06  t[s]:   4894.22
	FillingsUpdate:  mu: +0.630484410  nElectrons: 702.000000
SCF: Cycle: 16   F: -3872.065865404344095   dF: +9.501e-08   |Residual|: 4.150e-04   |deigs|: 2.329e-06  t[s]:   4977.52
	FillingsUpdate:  mu: +0.630484500  nElectrons: 702.000000
SCF: Cycle: 17   F: -3872.065866177206317   dF: -7.729e-07   |Residual|: 1.689e-04   |deigs|: 1.576e-06  t[s]:   5059.66
	FillingsUpdate:  mu: +0.630484410  nElectrons: 702.000000
SCF: Cycle: 18   F: -3872.065866110131083   dF: +6.708e-08   |Residual|: 1.899e-04   |deigs|: 9.347e-07  t[s]:   5140.18
	FillingsUpdate:  mu: +0.630484344  nElectrons: 702.000000
SCF: Cycle: 19   F: -3872.065866271394043   dF: -1.613e-07   |Residual|: 6.745e-05   |deigs|: 6.097e-07  t[s]:   5220.04
	FillingsUpdate:  mu: +0.630484329  nElectrons: 702.000000
SCF: Cycle: 20   F: -3872.065866280975115   dF: -9.581e-09   |Residual|: 5.171e-05   |deigs|: 2.776e-07  t[s]:   5300.97
	FillingsUpdate:  mu: +0.630484333  nElectrons: 702.000000
SCF: Cycle: 21   F: -3872.065866288554389   dF: -7.579e-09   |Residual|: 3.826e-05   |deigs|: 1.763e-07  t[s]:   5379.71
SCF: Converged (|Delta E|<1.000000e-08 for 2 iters).

Setting wave functions to eigenvectors of Hamiltonian

# Ionic positions in lattice coordinates:
ion V   0.000000000000000   0.000000000000000   0.000000000000000 0
ion V   0.154923842735277   0.174879674411563   0.176882478775380 1
ion V  -0.020531551237741  -0.002570275097376   0.344453470060364 1
ion V   0.172675365288463   0.170055285483700   0.489976551826500 1
ion V  -0.004751847550673   0.000072376649816   0.659909701631423 1
ion V   0.157080662793647   0.174976652565219   0.839805411925018 1
ion V   0.001931344084904   0.337579951293162  -0.008750956266698 1
ion V   0.167583335235236   0.496558821244075   0.173240614296686 1
ion V  -0.005167755803780   0.339228319807164   0.340755557959629 1
ion V   0.183923287662232   0.500855848721473   0.486377540959598 1
ion V   0.004797733134495   0.329568826798339   0.678561323789544 1
ion V   0.169061843716420   0.490994619919216   0.831494345594150 1
ion V  -0.005599335663386   0.666556661999251  -0.011383954870057 1
ion V   0.166754228562488   0.827740726177695   0.175474519762583 1
ion V  -0.010327111864155   0.660114954569732   0.340158703566043 1
ion V   0.175173390269719   0.838239624165221   0.500995104629842 1
ion V  -0.009935886721606   0.675274210770502   0.666391962998202 1
ion V   0.158236399876414   0.851873771626942   0.822196948192985 1
ion V   0.326412729975624  -0.016219922503143   0.007936566464434 1
ion V   0.493840449695287   0.159107406244584   0.170539910448304 1
ion V   0.326697867945165  -0.006874816114009   0.342987899074131 1
ion V   0.493924844167599   0.161344562692088   0.516009875501213 1
ion V   0.334941249354273  -0.006810438269943   0.676007947647644 1
ion V   0.494618680747235   0.170509849423541   0.821601752247655 1
ion V   0.318859776132745   0.327552922132561  -0.004401134504479 1
ion V   0.494151667814422   0.488712540963376   0.160947346715418 1
ion V   0.331334583968728   0.326518389568742   0.328933455738282 1
ion V   0.497125307721560   0.491685560188377   0.500015825593016 1
ion V   0.328755618598029   0.334181436912969   0.666894007116830 1
ion V   0.508029740018908   0.490057412760230   0.853161606170980 1
ion V   0.346488323653582   0.669650181381663   0.017407284197348 1
ion V   0.508217429299132   0.829899323931711   0.172412933888805 1
ion V   0.336705349661316   0.666801954374790   0.362326491910111 1
ion V   0.510033947328178   0.822798475344299   0.503929579580797 1
ion V   0.333646001106938   0.673656797125759   0.681898015338067 1
ion V   0.502666648991806   0.837305304418932   0.843878946528131 1
ion V   0.643286580918232   0.002991437601345   0.003324497224602 1
ion V   0.854823507679359   0.169958568387136   0.149923280415694 1
ion V   0.670877318385417  -0.003146237865047   0.344251979463066 1
ion V   0.838245338091402   0.151342873870367   0.483614438814154 1
ion V   0.657063057674658   0.010154722799751   0.661467369577464 1
ion V   0.831401056033437   0.173339192743622   0.831480005564240 1
ion V   0.661388907259405   0.333210133880146   0.002883566011311 1
ion V   0.835962395050674   0.500601367166527   0.165649842251054 1
ion V   0.677717164683591   0.329903350510389   0.345857618133177 1
ion V   0.803373748445227   0.500505999497121   0.498094642249224 1
ion V   0.649124527491766   0.313006901245835   0.688617183901108 1
ion V   0.844486866054571   0.493674443599315   0.824094606909183 1
ion V   0.668120273572352   0.677303010585134  -0.017511326583505 1
ion V   0.829297035170927   0.824521907117611   0.175719785686337 1
ion V   0.654416421193474   0.669598010204853   0.315097051665366 1
ion V   0.836414074082908   0.830854036173498   0.495755296157901 1
ion V   0.655151431269451   0.675029935192361   0.676863878338460 1
ion V   0.831647538031622   0.833384710586690   0.822287096510555 1

# Forces in Lattice coordinates:
force V  -0.086049655150439  -0.058309609155661  -0.017116754789085 0
force V   0.153626668040853  -0.277754496527244  -0.187960724552347 1
force V   0.693999876560369  -0.077327480143644  -0.485785917259549 1
force V  -0.201473573081515  -0.097773646360655   0.284338105340478 1
force V   0.089862562577270   0.154317073835409   0.078908565188447 1
force V   0.190785576327116  -0.324430031632125  -0.175618556997735 1
force V  -0.046406136915883   0.072492890128603   0.228739910360736 1
force V  -0.068098443290090   0.177857836533065  -0.106673224074979 1
force V   0.082191550483051  -0.026180354607047  -0.158779940924831 1
force V  -0.429507625799801  -0.030574766318235   0.477862759592889 1
force V  -0.119533728617848   0.069073807577577  -0.541160479759794 1
force V  -0.050877683471214   0.370255321897642   0.085279099368475 1
force V   0.189980768600867   0.035768023835345   0.225759088881402 1
force V  -0.160402608327244  -0.004049216123575  -0.007164922224158 1
force V   0.219123469245935   0.059429787889935  -0.156198751561814 1
force V  -0.311121411882788  -0.114380950042012   0.187319500214107 1
force V   0.285072641960596  -0.245023724297273  -0.162739428536101 1
force V   0.081102483409253  -0.408564063453864   0.387677316658823 1
force V  -0.011492231285926   0.378989483626169   0.002847254720771 1
force V  -0.008369239142932   0.091904947649844   0.072249938151855 1
force V   0.203822591443368   0.100351333680581  -0.141543038551779 1
force V  -0.052699932998311  -0.001469725625826  -0.439419507658666 1
force V  -0.096902232551404   0.187332548949415  -0.180079766811721 1
force V  -0.238068183311793  -0.231507865895711   0.619648740796223 1
force V   0.330065053890133   0.038719539066109   0.276969176001540 1
force V   0.083415154591618   0.078817582840855   0.200999376965825 1
force V   0.129288603951008   0.005696865654166   0.098319420143483 1
force V   0.072747190620690   0.087833970973708   0.187912047547529 1
force V   0.027805124666964   0.022164963809697   0.039545943571791 1
force V  -0.323358716460300   0.261825381627494  -0.323775922698088 1
force V  -0.346051099022511  -0.149667859806585  -0.262423521059994 1
force V  -0.296092612389729   0.122143647407894   0.064598287948809 1
force V   0.039485097745066  -0.062974022227268  -0.656983239526236 1
force V  -0.289324473432374   0.242498296221053   0.117256049974648 1
force V   0.071164752134096  -0.194186848459211  -0.121013593449025 1
force V  -0.202634308226941  -0.052185352796730  -0.174602235816800 1
force V   0.527177848192818   0.025483064306070  -0.034445169823131 1
force V  -0.597265078424488  -0.086672202290250   0.338442059664157 1
force V  -0.164242986833621  -0.003902441317129  -0.347373790865960 1
force V  -0.198639160249885   0.477486195743184   0.598842832050576 1
force V   0.294099847593290  -0.401670300629795   0.095632454087278 1
force V  -0.074050386528324  -0.258715561251007   0.147559084641655 1
force V   0.218623969026919  -0.078502115709829   0.042083719390626 1
force V  -0.099539193451565   0.009736531434235  -0.074712589926161 1
force V  -0.314584169959639  -0.084377585856528  -0.394822272361913 1
force V   0.374843260477947   0.001069637731080   0.153906491941463 1
force V   0.459278665494559   0.548685514080774  -0.592550733526171 1
force V  -0.357578600511279   0.196610798632058   0.096737812669685 1
force V   0.153197211608616  -0.318712738853442   0.478831486185767 1
force V   0.056792259444530   0.196638864797407  -0.379636982271610 1
force V   0.266954084800561  -0.299841113716460   0.376308316822358 1
force V  -0.299808684020991  -0.101297775744588   0.147179913533381 1
force V   0.212440817575231  -0.258199659344721  -0.180286691559556 1
force V  -0.055607609546215   0.230241482358634   0.173588478513048 1

# Energy components:
   Eewald =    -2944.3278853351989710
       EH =      789.4586292328772288
     Eloc =    -2313.8741483493568012
      Enl =       84.2430167392024032
      Exc =     -526.1508085026948720
 Exc_core =       42.6475358634062331
       KE =      996.5787047158549967
-------------------------------------
     Etot =    -3871.4249556359095550
       TS =        0.6409106526447454
-------------------------------------
        F =    -3872.0658662885543890

IonicMinimize: Iter:   1  F: -3872.065866288554389  |grad|_K:  1.511e-02  alpha:  1.000e+00  linmin: -9.978e-01  t[s]:   5401.44

#--- Lowdin population analysis ---
# oxidation-state V +0.112 +0.150 +0.089 +0.134 +0.126 +0.108 +0.089 +0.156 +0.111 +0.112 +0.128 +0.108 +0.147 +0.135 +0.118 +0.118 +0.145 +0.099 +0.154 +0.125 +0.115 +0.118 +0.118 +0.087 +0.107 +0.136 +0.081 +0.144 +0.112 +0.110 +0.132 +0.099 +0.093 +0.099 +0.158 +0.065 +0.133 +0.137 +0.130 +0.071 +0.129 +0.122 +0.112 +0.141 +0.122 +0.131 +0.096 +0.119 +0.134 +0.133 +0.086 +0.111 +0.112 +0.109


-------- Electronic minimization -----------
Will mix electronic density at each iteration.
	FillingsUpdate:  mu: +0.630484333  nElectrons: 702.000000
	FillingsUpdate:  mu: +0.637202913  nElectrons: 702.000000
SCF: Cycle:  0   F: -3817.729603918581233   dF: +5.024e+01   |Residual|: 2.911e+00   |deigs|: 7.645e-03  t[s]:   5591.34
	FillingsUpdate:  mu: +0.606640667  nElectrons: 702.000000
SCF: Cycle:  1   F: -3542.743930023621033   dF: +2.750e+02   |Residual|: 7.345e+00   |deigs|: 1.013e-01  t[s]:   5729.47
	FillingsUpdate:  mu: +0.642924454  nElectrons: 702.000000
SCF: Cycle:  2   F: -3839.198990973763102   dF: -2.965e+02   |Residual|: 2.730e+00   |deigs|: 9.355e-02  t[s]:   5866.36
	FillingsUpdate:  mu: +0.642698134  nElectrons: 702.000000
SCF: Cycle:  3   F: -3864.006788775264795   dF: -2.481e+01   |Residual|: 1.314e+00   |deigs|: 2.391e-02  t[s]:   6003.24
	FillingsUpdate:  mu: +0.634345983  nElectrons: 702.000000
SCF: Cycle:  4   F: -3862.778316124486537   dF: +1.228e+00   |Residual|: 1.480e+00   |deigs|: 1.595e-02  t[s]:   6140.36
	FillingsUpdate:  mu: +0.631647153  nElectrons: 702.000000
SCF: Cycle:  5   F: -3870.857667832729931   dF: -8.079e+00   |Residual|: 5.459e-01   |deigs|: 1.090e-02  t[s]:   6280.74
	FillingsUpdate:  mu: +0.631351870  nElectrons: 702.000000
SCF: Cycle:  6   F: -3871.692029700101102   dF: -8.344e-01   |Residual|: 3.206e-01   |deigs|: 2.859e-03  t[s]:   6418.28
	FillingsUpdate:  mu: +0.631038841  nElectrons: 702.000000
SCF: Cycle:  7   F: -3872.089594799976567   dF: -3.976e-01   |Residual|: 1.187e-01   |deigs|: 1.357e-03  t[s]:   6556.33
	FillingsUpdate:  mu: +0.629738643  nElectrons: 702.000000
SCF: Cycle:  8   F: -3872.104843001506651   dF: -1.525e-02   |Residual|: 7.569e-02   |deigs|: 1.860e-03  t[s]:   6695.68
	FillingsUpdate:  mu: +0.629921236  nElectrons: 702.000000
SCF: Cycle:  9   F: -3872.102065221082285   dF: +2.778e-03   |Residual|: 7.613e-02   |deigs|: 2.999e-04  t[s]:   6811.22
	FillingsUpdate:  mu: +0.630320960  nElectrons: 702.000000
SCF: Cycle: 10   F: -3872.125088509547822   dF: -2.302e-02   |Residual|: 2.442e-02   |deigs|: 6.121e-04  t[s]:   6921.76
	FillingsUpdate:  mu: +0.630125725  nElectrons: 702.000000
SCF: Cycle: 11   F: -3872.125021542139166   dF: +6.697e-05   |Residual|: 2.432e-02   |deigs|: 2.863e-04  t[s]:   7001.64
	FillingsUpdate:  mu: +0.630111063  nElectrons: 702.000000
SCF: Cycle: 12   F: -3872.127829862639373   dF: -2.808e-03   |Residual|: 5.522e-03   |deigs|: 5.718e-05  t[s]:   7085.21
	FillingsUpdate:  mu: +0.630104144  nElectrons: 702.000000
SCF: Cycle: 13   F: -3872.127827320018696   dF: +2.543e-06   |Residual|: 5.160e-03   |deigs|: 2.098e-05  t[s]:   7166.10
	FillingsUpdate:  mu: +0.630104588  nElectrons: 702.000000
SCF: Cycle: 14   F: -3872.127942146284113   dF: -1.148e-04   |Residual|: 1.283e-03   |deigs|: 1.079e-05  t[s]:   7248.37
	FillingsUpdate:  mu: +0.630110965  nElectrons: 702.000000
SCF: Cycle: 15   F: -3872.127932123809387   dF: +1.002e-05   |Residual|: 1.792e-03   |deigs|: 1.048e-05  t[s]:   7329.70
	FillingsUpdate:  mu: +0.630111498  nElectrons: 702.000000
SCF: Cycle: 16   F: -3872.127934445492883   dF: -2.322e-06   |Residual|: 1.517e-03   |deigs|: 9.775e-06  t[s]:   7410.92
	FillingsUpdate:  mu: +0.630110782  nElectrons: 702.000000
SCF: Cycle: 17   F: -3872.127948684002149   dF: -1.424e-05   |Residual|: 4.835e-04   |deigs|: 6.270e-06  t[s]:   7491.36
	FillingsUpdate:  mu: +0.630110349  nElectrons: 702.000000
SCF: Cycle: 18   F: -3872.127947734722511   dF: +9.493e-07   |Residual|: 6.599e-04   |deigs|: 1.824e-06  t[s]:   7571.02
	FillingsUpdate:  mu: +0.630110205  nElectrons: 702.000000
SCF: Cycle: 19   F: -3872.127949605148842   dF: -1.870e-06   |Residual|: 1.039e-04   |deigs|: 1.293e-06  t[s]:   7650.77
	FillingsUpdate:  mu: +0.630110357  nElectrons: 702.000000
SCF: Cycle: 20   F: -3872.127949487302885   dF: +1.178e-07   |Residual|: 1.850e-04   |deigs|: 6.450e-07  t[s]:   7728.47
	FillingsUpdate:  mu: +0.630110470  nElectrons: 702.000000
SCF: Cycle: 21   F: -3872.127949643771899   dF: -1.565e-07   |Residual|: 1.867e-05   |deigs|: 4.403e-07  t[s]:   7808.39
	FillingsUpdate:  mu: +0.630110467  nElectrons: 702.000000
SCF: Cycle: 22   F: -3872.127949634758806   dF: +9.013e-09   |Residual|: 4.738e-05   |deigs|: 1.534e-07  t[s]:   7888.01
	FillingsUpdate:  mu: +0.630110479  nElectrons: 702.000000
SCF: Cycle: 23   F: -3872.127949643501324   dF: -8.743e-09   |Residual|: 1.983e-05   |deigs|: 1.211e-07  t[s]:   7969.02
	FillingsUpdate:  mu: +0.630110474  nElectrons: 702.000000
SCF: Cycle: 24   F: -3872.127949645474928   dF: -1.974e-09   |Residual|: 6.282e-06   |deigs|: 5.667e-08  t[s]:   8041.06
SCF: Converged (|Delta E|<1.000000e-08 for 2 iters).

Setting wave functions to eigenvectors of Hamiltonian

# Ionic positions in lattice coordinates:
ion V   0.000000000000000   0.000000000000000   0.000000000000000 0
ion V   0.156352819791929   0.172777143714671   0.175252280815140 1
ion V  -0.016649925776993  -0.002436359378123   0.342017210995718 1
ion V   0.170970306187489   0.169218568287963   0.492051241874591 1
ion V  -0.004394419936462   0.000926227175809   0.660452619854234 1
ion V   0.158411047769529   0.173425157063812   0.838620536017119 1
ion V   0.001616948954532   0.337494973784082  -0.007577531680863 1
ion V   0.167273749344880   0.497719591922668   0.172561748626493 1
ion V  -0.004749570959111   0.338555183622920   0.339365550102898 1
ion V   0.180558831801406   0.500800728324617   0.490037060632318 1
ion V   0.003653501915673   0.330434780117921   0.674961527962641 1
ion V   0.168421017728003   0.493430980815548   0.832243156584022 1
ion V  -0.004222900638148   0.666865953236512  -0.009611464005251 1
ion V   0.165772287562987   0.827811391622583   0.175244921870387 1
ion V  -0.008628816048902   0.660874732679019   0.338995570565690 1
ion V   0.173002809180760   0.837046514936857   0.501853853940476 1
ion V  -0.007967816002276   0.673535261223430   0.665491930239945 1
ion V   0.159270573608530   0.848304048100684   0.825352357378761 1
ion V   0.326492215465854  -0.012958360794032   0.007841074399896 1
ion V   0.494132323253849   0.159854214767656   0.170828861693213 1
ion V   0.327778118397159  -0.006250255191622   0.342003566711808 1
ion V   0.494646712023848   0.161636748679826   0.513827171755168 1
ion V   0.333938767630060  -0.005296236671932   0.674787702663626 1
ion V   0.494487295268736   0.169622815399294   0.824554227901039 1
ion V   0.321188141631090   0.328079277600842  -0.002393753838395 1
ion V   0.495309724891885   0.489689660533590   0.162690233757185 1
ion V   0.331682320802582   0.326976330808931   0.330183320214036 1
ion V   0.497544910822789   0.492598468501860   0.501274337090773 1
ion V   0.329153921445857   0.334015165270381   0.667673071402950 1
ion V   0.505882690714012   0.491731646817259   0.850525067240510 1
ion V   0.343645185914336   0.668723260400427   0.014985334485137 1
ion V   0.506049575183862   0.830246228110297   0.172618426014245 1
ion V   0.336323356267614   0.666084642744134   0.357436493723608 1
ion V   0.507689882683058   0.824497707446998   0.504472106017851 1
ion V   0.333847189767471   0.672063819193732   0.680312711042591 1
ion V   0.501749981385473   0.836588419734694   0.843011786819526 1
ion V   0.647597501760125   0.002644660485717   0.002826773331351 1
ion V   0.849846222585872   0.169211211476552   0.153078265549947 1
ion V   0.670415249721616  -0.002940124619150   0.342019803266015 1
ion V   0.837183867899763   0.153798817685505   0.487365642827710 1
ion V   0.658539137027051   0.008293728379838   0.662661994118314 1
ion V   0.830730206959081   0.172115072986253   0.832172440998820 1
ion V   0.662486232449785   0.332760444700989   0.002460589633962 1
ion V   0.835234022176835   0.500577098969630   0.165192882833587 1
ion V   0.675156748620001   0.329206347459070   0.342779270597789 1
ion V   0.807445400622051   0.500194345413093   0.498992149642444 1
ion V   0.651566811443671   0.315603890827107   0.684709207866353 1
ion V   0.841830503951028   0.495120097434129   0.825046018586979 1
ion V   0.668488393492521   0.674924182998634  -0.013670632252965 1
ion V   0.829711223925665   0.826141174867452   0.172970684495741 1
ion V   0.656292629797886   0.667819590484141   0.318280161878247 1
ion V   0.835126409286360   0.830965224080268   0.496010029182688 1
ion V   0.656990426958418   0.672900906134383   0.675513817655651 1
ion V   0.831319798793469   0.834571657987085   0.823835213716092 1

# Forces in Lattice coordinates:
force V  -0.085037743686132  -0.035307451514587  -0.011457772742033 0
force V   0.127014996201308  -0.213561533488201  -0.148828694369136 1
force V   0.537777397517778  -0.049179382441761  -0.372815381370650 1
force V  -0.160898115782609  -0.077344256422182   0.230550471792724 1
force V   0.074919844225814   0.101523668679039   0.081844752699828 1
force V   0.143301259914133  -0.240035231049689  -0.134971503843629 1
force V  -0.044777202664406   0.036582854482083   0.179422818756569 1
force V  -0.052864169965798   0.127773508198958  -0.084627140588835 1
force V   0.062345266054247  -0.034789438761986  -0.131764685109325 1
force V  -0.355401360519825  -0.026672630567753   0.371263900778647 1
force V  -0.101784856691456   0.064467775022806  -0.399918777580300 1
force V  -0.044790732067947   0.288109747367943   0.069216241321734 1
force V   0.144361699256496   0.028343763367620   0.184693094156142 1
force V  -0.114990637506555   0.008490017645571  -0.021733072417145 1
force V   0.175738435870722   0.053086433686051  -0.126370609249748 1
force V  -0.238280052385683  -0.091290433417448   0.131673226038145 1
force V   0.215371925015684  -0.183678834405304  -0.109897054662087 1
force V   0.079534871725057  -0.322140898539636   0.298173885243069 1
force V   0.008243834176219   0.299594556700751  -0.008100114942284 1
force V   0.012227611947578   0.072072171552158   0.048318324640130 1
force V   0.151788581486797   0.079410418599909  -0.106648478227865 1
force V  -0.031312991378789   0.001556457250691  -0.344961673977883 1
force V  -0.080194119124125   0.140569393900618  -0.128224115979658 1
force V  -0.166928944992430  -0.180744667224535   0.475503530189116 1
force V   0.259670186170412   0.042216034046036   0.209804703770551 1
force V   0.075363172120959   0.079374820738868   0.160384560188602 1
force V   0.086539997527648   0.015086364133100   0.092856862089862 1
force V   0.055240250791982   0.075977809996906   0.136439314059719 1
force V   0.019912776067066   0.017245397685534   0.035933055938933 1
force V  -0.253659876079011   0.207602716225714  -0.256772254517172 1
force V  -0.284202459092531  -0.113008439358591  -0.220231904101564 1
force V  -0.231368638326841   0.081421844287010   0.039861944750990 1
force V   0.015231406262236  -0.055601010025977  -0.516457679751074 1
force V  -0.229990893783826   0.181056971445227   0.079754107366240 1
force V   0.047274126325793  -0.152796907347405  -0.115462426686226 1
force V  -0.150389160766621  -0.047474123758194  -0.134208535032961 1
force V   0.422641482883016   0.002666713344952  -0.027744498255913 1
force V  -0.469491953773107  -0.069757287715564   0.269220901036233 1
force V  -0.133075062095514  -0.005016059162815  -0.270215770703761 1
force V  -0.159893434629280   0.376994368436479   0.448160408415354 1
force V   0.227969922336641  -0.323046206263294   0.078489346951711 1
force V  -0.045257422763588  -0.194246671062651   0.106470620646097 1
force V   0.156650241823036  -0.053421486818929   0.023371426517040 1
force V  -0.077006402731337   0.002123733239508  -0.053685309545845 1
force V  -0.244332237103154  -0.058596658839720  -0.305819168914354 1
force V   0.342800050789677  -0.012341246539553   0.107064853089569 1
force V   0.364603949111263   0.443159726584273  -0.467981249027733 1
force V  -0.280242410875479   0.153737494110419   0.084497561514303 1
force V   0.093072849539143  -0.246998132702947   0.374728647329972 1
force V   0.042327311298933   0.154723204124937  -0.284986652023634 1
force V   0.215557418667499  -0.218024399083154   0.320521188038401 1
force V  -0.224101778292259  -0.071198699700339   0.114466650385889 1
force V   0.174979076100022  -0.197844755151354  -0.149184805301882 1
force V  -0.039189686970226   0.157422347200357   0.143979670613425 1

# Energy components:
   Eewald =    -2949.8667117740651520
       EH =      783.9488297577645426
     Eloc =    -2302.4954597905571063
      Enl =       84.1413965486236748
      Exc =     -526.0060103203616109
 Exc_core =       42.6475138334631367
       KE =      996.1510691813939502
-------------------------------------
     Etot =    -3871.4793725637382522
       TS =        0.6485770817366929
-------------------------------------
        F =    -3872.1279496454749278

IonicMinimize: Iter:   2  F: -3872.127949645474928  |grad|_K:  1.181e-02  alpha:  2.242e-01  linmin: -9.720e-01  t[s]:   8062.69

#--- Lowdin population analysis ---
# oxidation-state V +0.113 +0.144 +0.097 +0.131 +0.124 +0.111 +0.095 +0.149 +0.114 +0.115 +0.130 +0.111 +0.141 +0.131 +0.118 +0.119 +0.141 +0.105 +0.149 +0.123 +0.116 +0.118 +0.118 +0.096 +0.110 +0.134 +0.089 +0.141 +0.113 +0.113 +0.131 +0.105 +0.100 +0.104 +0.151 +0.078 +0.131 +0.135 +0.129 +0.082 +0.126 +0.122 +0.113 +0.135 +0.125 +0.131 +0.102 +0.120 +0.132 +0.131 +0.094 +0.114 +0.112 +0.114


-------- Electronic minimization -----------
Will mix electronic density at each iteration.
	FillingsUpdate:  mu: +0.630110474  nElectrons: 702.000000
	FillingsUpdate:  mu: +0.636246271  nElectrons: 702.000000
SCF: Cycle:  0   F: -3809.160810793389828   dF: +5.872e+01   |Residual|: 3.018e+00   |deigs|: 7.726e-03  t[s]:   8248.36
	FillingsUpdate:  mu: +0.605248217  nElectrons: 702.000000
SCF: Cycle:  1   F: -3495.987011541857100   dF: +3.132e+02   |Residual|: 7.633e+00   |deigs|: 1.092e-01  t[s]:   8383.54
	FillingsUpdate:  mu: +0.643612429  nElectrons: 702.000000
SCF: Cycle:  2   F: -3838.000819103916456   dF: -3.420e+02   |Residual|: 2.844e+00   |deigs|: 1.015e-01  t[s]:   8522.56
	FillingsUpdate:  mu: +0.643254495  nElectrons: 702.000000
SCF: Cycle:  3   F: -3863.601042615979168   dF: -2.560e+01   |Residual|: 1.376e+00   |deigs|: 2.632e-02  t[s]:   8660.09
	FillingsUpdate:  mu: +0.634553024  nElectrons: 702.000000
SCF: Cycle:  4   F: -3863.017007924891004   dF: +5.840e-01   |Residual|: 1.473e+00   |deigs|: 1.685e-02  t[s]:   8796.64
	FillingsUpdate:  mu: +0.631195408  nElectrons: 702.000000
SCF: Cycle:  5   F: -3870.651916261674160   dF: -7.635e+00   |Residual|: 5.982e-01   |deigs|: 1.083e-02  t[s]:   8932.01
	FillingsUpdate:  mu: +0.631030592  nElectrons: 702.000000
SCF: Cycle:  6   F: -3871.866490601674741   dF: -1.215e+00   |Residual|: 2.828e-01   |deigs|: 3.261e-03  t[s]:   9069.61
	FillingsUpdate:  mu: +0.630702804  nElectrons: 702.000000
SCF: Cycle:  7   F: -3872.127711654225550   dF: -2.612e-01   |Residual|: 1.261e-01   |deigs|: 1.219e-03  t[s]:   9206.57
	FillingsUpdate:  mu: +0.629230228  nElectrons: 702.000000
SCF: Cycle:  8   F: -3872.144795038754637   dF: -1.708e-02   |Residual|: 8.320e-02   |deigs|: 2.121e-03  t[s]:   9343.60
	FillingsUpdate:  mu: +0.629564515  nElectrons: 702.000000
SCF: Cycle:  9   F: -3872.150238611641726   dF: -5.444e-03   |Residual|: 7.349e-02   |deigs|: 5.024e-04  t[s]:   9458.86
	FillingsUpdate:  mu: +0.629928316  nElectrons: 702.000000
SCF: Cycle: 10   F: -3872.173134131005554   dF: -2.290e-02   |Residual|: 2.122e-02   |deigs|: 5.637e-04  t[s]:   9570.55
	FillingsUpdate:  mu: +0.629754173  nElectrons: 702.000000
SCF: Cycle: 11   F: -3872.174458497965134   dF: -1.324e-03   |Residual|: 1.418e-02   |deigs|: 2.554e-04  t[s]:   9650.47
	FillingsUpdate:  mu: +0.629755376  nElectrons: 702.000000
SCF: Cycle: 12   F: -3872.175166724850897   dF: -7.082e-04   |Residual|: 6.068e-03   |deigs|: 3.122e-05  t[s]:   9730.94
	FillingsUpdate:  mu: +0.629746559  nElectrons: 702.000000
SCF: Cycle: 13   F: -3872.175296411947784   dF: -1.297e-04   |Residual|: 2.366e-03   |deigs|: 1.871e-05  t[s]:   9809.89
	FillingsUpdate:  mu: +0.629749082  nElectrons: 702.000000
SCF: Cycle: 14   F: -3872.175298717500027   dF: -2.306e-06   |Residual|: 2.196e-03   |deigs|: 8.482e-06  t[s]:   9890.71
	FillingsUpdate:  mu: +0.629753153  nElectrons: 702.000000
SCF: Cycle: 15   F: -3872.175306791064486   dF: -8.074e-06   |Residual|: 1.569e-03   |deigs|: 8.014e-06  t[s]:   9972.26
	FillingsUpdate:  mu: +0.629754909  nElectrons: 702.000000
SCF: Cycle: 16   F: -3872.175307280397647   dF: -4.893e-07   |Residual|: 1.367e-03   |deigs|: 8.735e-06  t[s]:  10053.28
	FillingsUpdate:  mu: +0.629753960  nElectrons: 702.000000
SCF: Cycle: 17   F: -3872.175319538053827   dF: -1.226e-05   |Residual|: 4.739e-04   |deigs|: 5.309e-06  t[s]:  10133.04
	FillingsUpdate:  mu: +0.629753560  nElectrons: 702.000000
SCF: Cycle: 18   F: -3872.175319078551183   dF: +4.595e-07   |Residual|: 5.614e-04   |deigs|: 1.451e-06  t[s]:  10212.29
	FillingsUpdate:  mu: +0.629753497  nElectrons: 702.000000
SCF: Cycle: 19   F: -3872.175320381942583   dF: -1.303e-06   |Residual|: 8.353e-05   |deigs|: 1.006e-06  t[s]:  10291.68
	FillingsUpdate:  mu: +0.629753666  nElectrons: 702.000000
SCF: Cycle: 20   F: -3872.175320233513048   dF: +1.484e-07   |Residual|: 1.926e-04   |deigs|: 4.775e-07  t[s]:  10370.60
	FillingsUpdate:  mu: +0.629753678  nElectrons: 702.000000
SCF: Cycle: 21   F: -3872.175320404065587   dF: -1.706e-07   |Residual|: 1.304e-05   |deigs|: 3.692e-07  t[s]:  10449.76
	FillingsUpdate:  mu: +0.629753695  nElectrons: 702.000000
SCF: Cycle: 22   F: -3872.175320399849625   dF: +4.216e-09   |Residual|: 3.136e-05   |deigs|: 1.208e-07  t[s]:  10530.52
	FillingsUpdate:  mu: +0.629753694  nElectrons: 702.000000
SCF: Cycle: 23   F: -3872.175320404160630   dF: -4.311e-09   |Residual|: 9.312e-06   |deigs|: 1.026e-07  t[s]:  10611.66
	FillingsUpdate:  mu: +0.629753692  nElectrons: 702.000000
SCF: Cycle: 24   F: -3872.175320404031936   dF: +1.287e-10   |Residual|: 6.941e-06   |deigs|: 7.006e-08  t[s]:  10667.58
	FillingsUpdate:  mu: +0.629753690  nElectrons: 702.000000
SCF: Cycle: 25   F: -3872.175320403974183   dF: +5.775e-11   |Residual|: 3.148e-06   |deigs|: 3.177e-08  t[s]:  10715.00
	FillingsUpdate:  mu: +0.629753690  nElectrons: 702.000000
SCF: Cycle: 26   F: -3872.175320404117883   dF: -1.437e-10   |Residual|: 2.887e-06   |deigs|: 2.649e-08  t[s]:  10761.93
	FillingsUpdate:  mu: +0.629753690  nElectrons: 702.000000
SCF: Cycle: 27   F: -3872.175320403940987   dF: +1.769e-10   |Residual|: 9.487e-07   |deigs|: 2.448e-08  t[s]:  10810.70
	FillingsUpdate:  mu: +0.629753690  nElectrons: 702.000000
SCF: Cycle: 28   F: -3872.175320404528520   dF: -5.875e-10   |Residual|: 6.545e-07   |deigs|: 2.356e-08  t[s]:  10857.25
	FillingsUpdate:  mu: +0.629753690  nElectrons: 702.000000
SCF: Cycle: 29   F: -3872.175320404510785   dF: +1.774e-11   |Residual|: 3.079e-07   |deigs|: 2.317e-08  t[s]:  10904.22
	FillingsUpdate:  mu: +0.629753690  nElectrons: 702.000000
SCF: Cycle: 30   F: -3872.175320404490776   dF: +2.001e-11   |Residual|: 1.853e-07   |deigs|: 2.299e-08  t[s]:  10950.11
	FillingsUpdate:  mu: +0.629753691  nElectrons: 702.000000
SCF: Cycle: 31   F: -3872.175320404108788   dF: +3.820e-10   |Residual|: 2.467e-07   |deigs|: 2.286e-08  t[s]:  10994.69
	FillingsUpdate:  mu: +0.629753691  nElectrons: 702.000000
SCF: Cycle: 32   F: -3872.175320403850492   dF: +2.583e-10   |Residual|: 6.556e-08   |deigs|: 2.276e-08  t[s]:  11039.90
	FillingsUpdate:  mu: +0.629753691  nElectrons: 702.000000
SCF: Cycle: 33   F: -3872.175320404523063   dF: -6.726e-10   |Residual|: 1.034e-07   |deigs|: 2.266e-08  t[s]:  11085.77
	FillingsUpdate:  mu: +0.629753691  nElectrons: 702.000000
SCF: Cycle: 34   F: -3872.175320404142894   dF: +3.802e-10   |Residual|: 6.234e-08   |deigs|: 2.258e-08  t[s]:  11130.69
	FillingsUpdate:  mu: +0.629753691  nElectrons: 702.000000
SCF: Cycle: 35   F: -3872.175320404072863   dF: +7.003e-11   |Residual|: 2.670e-08   |deigs|: 2.248e-08  t[s]:  11176.29
SCF: Converged (|Residual|<1.000000e-07 for 2 iters).

Setting wave functions to eigenvectors of Hamiltonian

# Ionic positions in lattice coordinates:
ion V   0.000000000000000   0.000000000000000   0.000000000000000 0
ion V   0.157972790105412   0.170839402434557   0.173604174847902 1
ion V  -0.012909454648136  -0.001968605681702   0.339778586982952 1
ion V   0.169194896335795   0.168374033029738   0.494375748969485 1
ion V  -0.003859559549031   0.001126832907725   0.661683966111274 1
ion V   0.159521805601725   0.172307266404012   0.837528539751556 1
ion V   0.001012968602703   0.336764894291489  -0.006365889276945 1
ion V   0.166968150222721   0.498482323541407   0.171844355552922 1
ion V  -0.004390639104739   0.337435881147259   0.337753244941620 1
ion V   0.176591974780433   0.500638331012788   0.493541667825386 1
ion V   0.002261668956170   0.331619762895836   0.672194644870354 1
ion V   0.167638401262930   0.495799668988542   0.833057585032629 1
ion V  -0.003012519405654   0.667179509734692  -0.007595620926931 1
ion V   0.165151704073315   0.828275276189492   0.174476242348319 1
ion V  -0.006813886165084   0.661825541040112   0.337707035608864 1
ion V   0.171032072812956   0.835836161219908   0.502227070809160 1
ion V  -0.006282954709803   0.672093642264737   0.665183072489861 1
ion V   0.160810175789199   0.844744833370944   0.828260609747031 1
ion V   0.327152193711172  -0.009675312170878   0.007399849432775 1
ion V   0.495039975437877   0.160590324552743   0.170849309597411 1
ion V   0.328610242022472  -0.005595094796729   0.341170413509610 1
ion V   0.495613824153730   0.161994432864734   0.511554701160056 1
ion V   0.332822483353429  -0.004021665054456   0.674014135482855 1
ion V   0.494898666909216   0.168698617977656   0.827267403305735 1
ion V   0.323539462197839   0.328990315667796  -0.000651195059691 1
ion V   0.496756809388027   0.491232307525466   0.164494788793934 1
ion V   0.331567852803750   0.327761795878992   0.331923412342559 1
ion V   0.497909528826533   0.493727547522290   0.502159100963512 1
ion V   0.329467806442193   0.333873613632405   0.668574953959919 1
ion V   0.503726093914392   0.493495865579054   0.847827889086062 1
ion V   0.340402799336064   0.667937457517244   0.012122731245544 1
ion V   0.503922746175351   0.830143196280190   0.172473571890863 1
ion V   0.335459111514246   0.665179261645895   0.352538445243474 1
ion V   0.505271886103448   0.825879555587679   0.504618191199467 1
ion V   0.333780633132835   0.670477077684037   0.678087933011489 1
ion V   0.501083204719814   0.835678764675052   0.842207620599952 1
ion V   0.652162760936902   0.001748857067804   0.002327924779290 1
ion V   0.844911479361926   0.168416236651140   0.156287964101475 1
ion V   0.669744234885408  -0.002822982189840   0.339849232204166 1
ion V   0.835952368151914   0.156418638235059   0.490410242298835 1
ion V   0.659973527999088   0.006072060247825   0.663927409238913 1
ion V   0.830516265310930   0.171137867257612   0.832575643754641 1
ion V   0.663110599976003   0.332583240679606   0.001771249282996 1
ion V   0.834546102289480   0.500371163024001   0.164899895683056 1
ion V   0.672714925961165   0.328781378280119   0.339865995449482 1
ion V   0.813063265946020   0.499457612667262   0.499434326813611 1
ion V   0.654227795961742   0.318753177516218   0.680672558571193 1
ion V   0.839198664277782   0.496541547227490   0.826268711497394 1
ion V   0.667986275243486   0.672664268916585  -0.009907684009451 1
ion V   0.830046974978515   0.827753450475113   0.170673643782557 1
ion V   0.658379047317256   0.666605430837680   0.322284539098013 1
ion V   0.834147205157076   0.831286031536035   0.496301755184344 1
ion V   0.659083364014446   0.670964688876209   0.673905002086965 1
ion V   0.831139431717430   0.834997162450115   0.825621178293068 1

# Forces in Lattice coordinates:
force V  -0.080340746366137  -0.018107633580048  -0.006312139578878 0
force V   0.104250468039850  -0.157234104229367  -0.105975612792972 1
force V   0.386811606019388  -0.034596717846226  -0.269454296095583 1
force V  -0.123093857963002  -0.057093600356523   0.181494521044048 1
force V   0.056837279599553   0.069018711352560   0.065912874954247 1
force V   0.109007436308246  -0.179694407491515  -0.093833648725673 1
force V  -0.038939769971006   0.024845800143325   0.143642658874406 1
force V  -0.042985843101510   0.084480708570634  -0.066368714944278 1
force V   0.051226824885835  -0.033461587603469  -0.097551296247502 1
force V  -0.275250726129184  -0.022726687542969   0.274910322843488 1
force V  -0.080729409978911   0.050836257864262  -0.285663813997234 1
force V  -0.036307081406844   0.212731944956532   0.052014181356935 1
force V   0.100548865688818   0.019009548638147   0.145804097456994 1
force V  -0.076204379506991   0.017979933957458  -0.027777227571325 1
force V   0.132800839232335   0.041676959472552  -0.095131206714242 1
force V  -0.177490511185367  -0.065040493733862   0.089954018205115 1
force V   0.157971926719479  -0.135602870564595  -0.072127942861378 1
force V   0.064371449191191  -0.245841738092341   0.218078777060254 1
force V   0.016986900385274   0.218138842718080  -0.012635619653261 1
force V   0.017106772929166   0.056565213730084   0.030648241630769 1
force V   0.112031826990787   0.063251921032909  -0.083350821479211 1
force V  -0.022577412459619   0.004343813439057  -0.253214041250419 1
force V  -0.052832198356684   0.102647144878691  -0.093747730726218 1
force V  -0.110317248825192  -0.133593929645891   0.346211918271442 1
force V   0.192838479120016   0.036547074894370   0.149994155957129 1
force V   0.050835479185375   0.070032417289063   0.119494634365267 1
force V   0.062873439537232   0.014552612733331   0.073591895678477 1
force V   0.042139037642776   0.057505042735448   0.092450272554568 1
force V   0.015919621289763   0.013402594255699   0.023926424757409 1
force V  -0.189607677235420   0.157353707831252  -0.198398699705023 1
force V  -0.214159520539583  -0.082345618866643  -0.158394905949214 1
force V  -0.171038846809066   0.056331970816232   0.023152000754022 1
force V   0.004945633267156  -0.041075892911085  -0.389204572305759 1
force V  -0.173182371567119   0.129889202791115   0.051449017271361 1
force V   0.029458853142116  -0.115562844017252  -0.094779581269846 1
force V  -0.112981334782141  -0.036465514575510  -0.108370823590623 1
force V   0.303657484613630  -0.003003616858136  -0.019653334915351 1
force V  -0.345478029674462  -0.055763748244358   0.202895318249057 1
force V  -0.108708294308448  -0.004838405284031  -0.195177137359059 1
force V  -0.119043616228542   0.283560636784403   0.322343567125497 1
force V   0.168769832407990  -0.240299561849102   0.057189965152304 1
force V  -0.028532661216264  -0.147599287529636   0.070766315277890 1
force V   0.109890309761835  -0.037362062031237   0.018080477117418 1
force V  -0.058688190035605  -0.000270014209865  -0.034814369619783 1
force V  -0.180622521884920  -0.031383359549283  -0.215901289387082 1
force V   0.273536983568452  -0.009396125749238   0.073500385183961 1
force V   0.276995041584104   0.344112394316963  -0.359247240754383 1
force V  -0.206879509964544   0.113851234807944   0.073217505633545 1
force V   0.057378430543844  -0.184841210241004   0.271574455152666 1
force V   0.034207441676852   0.110979204619322  -0.201170902340361 1
force V   0.167079883542101  -0.157911621262526   0.250235185892722 1
force V  -0.160967438474475  -0.049131138961253   0.092906750863735 1
force V   0.134049478777145  -0.150859343301594  -0.117114479990824 1
force V  -0.024568759248469   0.104424868198419   0.114312174169050 1

# Energy components:
   Eewald =    -2953.9557953579387686
       EH =      779.8777358429978221
     Eloc =    -2294.0924140487099976
      Enl =       84.0673810128312198
      Exc =     -525.8995007402827468
 Exc_core =       42.6475432477052010
       KE =      995.8350692034362055
-------------------------------------
     Etot =    -3871.5199808399602261
       TS =        0.6553395641127667
-------------------------------------
        F =    -3872.1753204040728633

IonicMinimize: Iter:   3  F: -3872.175320404072863  |grad|_K:  8.768e-03  alpha:  2.556e-01  linmin: -9.466e-01  t[s]:  11197.35

#--- Lowdin population analysis ---
# oxidation-state V +0.115 +0.139 +0.104 +0.128 +0.123 +0.113 +0.102 +0.142 +0.116 +0.117 +0.129 +0.113 +0.136 +0.128 +0.118 +0.119 +0.137 +0.108 +0.144 +0.122 +0.117 +0.118 +0.119 +0.103 +0.113 +0.132 +0.098 +0.138 +0.115 +0.115 +0.129 +0.110 +0.107 +0.108 +0.143 +0.090 +0.129 +0.133 +0.128 +0.092 +0.125 +0.122 +0.114 +0.131 +0.125 +0.131 +0.108 +0.122 +0.130 +0.128 +0.101 +0.116 +0.113 +0.116


-------- Electronic minimization -----------
Will mix electronic density at each iteration.
	FillingsUpdate:  mu: +0.629753691  nElectrons: 702.000000
	FillingsUpdate:  mu: +0.635106020  nElectrons: 702.000000
SCF: Cycle:  0   F: -3816.982622277089376   dF: +5.159e+01   |Residual|: 2.793e+00   |deigs|: 6.454e-03  t[s]:  11386.01
	FillingsUpdate:  mu: +0.609429833  nElectrons: 702.000000
SCF: Cycle:  1   F: -3516.277112603411751   dF: +3.007e+02   |Residual|: 7.330e+00   |deigs|: 1.015e-01  t[s]:  11522.51
	FillingsUpdate:  mu: +0.641747693  nElectrons: 702.000000
SCF: Cycle:  2   F: -3844.895320744596120   dF: -3.286e+02   |Residual|: 2.544e+00   |deigs|: 9.394e-02  t[s]:  11661.63
	FillingsUpdate:  mu: +0.641440875  nElectrons: 702.000000
SCF: Cycle:  3   F: -3864.174728871296338   dF: -1.928e+01   |Residual|: 1.310e+00   |deigs|: 2.431e-02  t[s]:  11799.35
	FillingsUpdate:  mu: +0.634003426  nElectrons: 702.000000
SCF: Cycle:  4   F: -3864.717765285338828   dF: -5.430e-01   |Residual|: 1.307e+00   |deigs|: 1.449e-02  t[s]:  11935.86
	FillingsUpdate:  mu: +0.630670656  nElectrons: 702.000000
SCF: Cycle:  5   F: -3871.072702572185335   dF: -6.355e+00   |Residual|: 5.122e-01   |deigs|: 1.037e-02  t[s]:  12075.35
	FillingsUpdate:  mu: +0.630322041  nElectrons: 702.000000
SCF: Cycle:  6   F: -3871.987949251107693   dF: -9.152e-01   |Residual|: 2.404e-01   |deigs|: 3.500e-03  t[s]:  12215.19
	FillingsUpdate:  mu: +0.630134460  nElectrons: 702.000000
SCF: Cycle:  7   F: -3872.176580488046056   dF: -1.886e-01   |Residual|: 1.004e-01   |deigs|: 9.638e-04  t[s]:  12351.96
	FillingsUpdate:  mu: +0.629222082  nElectrons: 702.000000
SCF: Cycle:  8   F: -3872.193849268723625   dF: -1.727e-02   |Residual|: 5.340e-02   |deigs|: 1.322e-03  t[s]:  12489.20
	FillingsUpdate:  mu: +0.629429673  nElectrons: 702.000000
SCF: Cycle:  9   F: -3872.183626742799788   dF: +1.022e-02   |Residual|: 6.880e-02   |deigs|: 3.207e-04  t[s]:  12600.28
	FillingsUpdate:  mu: +0.629617555  nElectrons: 702.000000
SCF: Cycle: 10   F: -3872.205131094600802   dF: -2.150e-02   |Residual|: 1.635e-02   |deigs|: 3.160e-04  t[s]:  12680.13
	FillingsUpdate:  mu: +0.629471065  nElectrons: 702.000000
SCF: Cycle: 11   F: -3872.205775615890161   dF: -6.445e-04   |Residual|: 1.224e-02   |deigs|: 2.172e-04  t[s]:  12759.97
	FillingsUpdate:  mu: +0.629478491  nElectrons: 702.000000
SCF: Cycle: 12   F: -3872.206215059090482   dF: -4.394e-04   |Residual|: 7.177e-03   |deigs|: 2.476e-05  t[s]:  12841.15
	FillingsUpdate:  mu: +0.629481100  nElectrons: 702.000000
SCF: Cycle: 13   F: -3872.206449326394704   dF: -2.343e-04   |Residual|: 1.453e-03   |deigs|: 1.588e-05  t[s]:  12920.30
	FillingsUpdate:  mu: +0.629483755  nElectrons: 702.000000
SCF: Cycle: 14   F: -3872.206443035614939   dF: +6.291e-06   |Residual|: 1.978e-03   |deigs|: 6.364e-06  t[s]:  13000.84
	FillingsUpdate:  mu: +0.629485457  nElectrons: 702.000000
SCF: Cycle: 15   F: -3872.206458094738082   dF: -1.506e-05   |Residual|: 2.957e-04   |deigs|: 4.063e-06  t[s]:  13080.39
	FillingsUpdate:  mu: +0.629484931  nElectrons: 702.000000
SCF: Cycle: 16   F: -3872.206456895389238   dF: +1.199e-06   |Residual|: 5.376e-04   |deigs|: 1.523e-06  t[s]:  13158.90
	FillingsUpdate:  mu: +0.629484563  nElectrons: 702.000000
SCF: Cycle: 17   F: -3872.206458193270464   dF: -1.298e-06   |Residual|: 1.791e-04   |deigs|: 1.109e-06  t[s]:  13239.14
	FillingsUpdate:  mu: +0.629484496  nElectrons: 702.000000
SCF: Cycle: 18   F: -3872.206458223350637   dF: -3.008e-08   |Residual|: 1.521e-04   |deigs|: 5.550e-07  t[s]:  13319.42
	FillingsUpdate:  mu: +0.629484421  nElectrons: 702.000000
SCF: Cycle: 19   F: -3872.206458283475058   dF: -6.012e-08   |Residual|: 1.171e-04   |deigs|: 3.823e-07  t[s]:  13399.00
	FillingsUpdate:  mu: +0.629484516  nElectrons: 702.000000
SCF: Cycle: 20   F: -3872.206458330253099   dF: -4.678e-08   |Residual|: 5.533e-05   |deigs|: 2.586e-07  t[s]:  13479.10
	FillingsUpdate:  mu: +0.629484548  nElectrons: 702.000000
SCF: Cycle: 21   F: -3872.206458342549013   dF: -1.230e-08   |Residual|: 1.437e-05   |deigs|: 1.116e-07  t[s]:  13559.61
	FillingsUpdate:  mu: +0.629484541  nElectrons: 702.000000
SCF: Cycle: 22   F: -3872.206458340484915   dF: +2.064e-09   |Residual|: 2.064e-05   |deigs|: 5.507e-08  t[s]:  13638.71
	FillingsUpdate:  mu: +0.629484537  nElectrons: 702.000000
SCF: Cycle: 23   F: -3872.206458342192491   dF: -1.708e-09   |Residual|: 7.257e-06   |deigs|: 5.323e-08  t[s]:  13712.83
	FillingsUpdate:  mu: +0.629484524  nElectrons: 702.000000
SCF: Cycle: 24   F: -3872.206458342758651   dF: -5.662e-10   |Residual|: 2.688e-06   |deigs|: 3.182e-08  t[s]:  13760.75
SCF: Converged (|Delta E|<1.000000e-08 for 2 iters).

Setting wave functions to eigenvectors of Hamiltonian

# Ionic positions in lattice coordinates:
ion V   0.000000000000000   0.000000000000000   0.000000000000000 0
ion V   0.159787412074842   0.169150991218820   0.172306825500394 1
ion V  -0.009991259580418  -0.001506336303075   0.338012847813429 1
ion V   0.167474926008195   0.167633609410350   0.496843423947190 1
ion V  -0.003330219989749   0.001091115668029   0.662965066814783 1
ion V   0.160623960722111   0.171213687354682   0.836786352194950 1
ion V   0.000262873508446   0.336058287980528  -0.004871091603839 1
ion V   0.166546995515262   0.498786843108369   0.171065478594711 1
ion V  -0.003874823350681   0.336169693625692   0.336331723749865 1
ion V   0.172628591028394   0.500379883958525   0.496653430153847 1
ion V   0.000833489917527   0.332775098592682   0.670109282256341 1
ion V   0.166833127100778   0.497887398283437   0.833805597597869 1
ion V  -0.002174570849863   0.667381834835774  -0.005470380214497 1
ion V   0.164927995136518   0.829120142474237   0.173365752718055 1
ion V  -0.005105447783716   0.662748626372855   0.336506837812885 1
ion V   0.169235790327906   0.834866381958477   0.502293565462690 1
ion V  -0.004835422739753   0.670821537946111   0.665240803619260 1
ion V   0.162364963351088   0.841319638450020   0.830738618877295 1
ion V   0.328135187460706  -0.006911349745362   0.006766120654908 1
ion V   0.496130788692436   0.161363830689954   0.170683750517050 1
ion V   0.329349429447938  -0.004842858456269   0.340260253395308 1
ion V   0.496466680754437   0.162425131838582   0.509600520489057 1
ion V   0.332088223057652  -0.002942574481640   0.673361248532553 1
ion V   0.495721673172620   0.167870482414957   0.829492701899806 1
ion V   0.325650038531833   0.329986492605460   0.000698901089049 1
ion V   0.497835594272290   0.493008519226957   0.166117898018991 1
ion V   0.331442991399776   0.328571670463517   0.333630194552418 1
ion V   0.498283710589826   0.494767044986031   0.502629822423980 1
ion V   0.329788620949982   0.333778485013456   0.669261050604598 1
ion V   0.501739058602472   0.495203420905587   0.845126487505911 1
ion V   0.337397760793402   0.667283671413353   0.009778218983679 1
ion V   0.502044048360410   0.829922809406672   0.172116722482004 1
ion V   0.334476120478191   0.664388351314589   0.347933863216065 1
ion V   0.503021964912860   0.826956453300563   0.504474610573730 1
ion V   0.333523744457070   0.668979869096711   0.675788860541293 1
ion V   0.500412183566527   0.834832499025295   0.841142422635412 1
ion V   0.655849144402804   0.000787612180400   0.001924045254038 1
ion V   0.840623863429306   0.167557913507311   0.159256743133354 1
ion V   0.668751217211643  -0.002764790808339   0.338099958564935 1
ion V   0.834829357343227   0.158931075138298   0.492781751918950 1
ion V   0.661261368593996   0.004042043652615   0.665003702752694 1
ion V   0.830508318111553   0.170107798248839   0.832642050577700 1
[...]
ion V   0.831788932681676   0.165736298959554   0.834912424039525 1
ion V   0.665063431916414   0.332127689411826   0.001610253116518 1
ion V   0.831633617873621   0.498869303871382   0.168208493057432 1
ion V   0.664566965680189   0.332067746672847   0.335113472632811 1
ion V   0.831307019073749   0.499073994646461   0.501509146081650 1
ion V   0.664785714322425   0.332673874114507   0.668071085535959 1
ion V   0.831540165074213   0.499184315232119   0.835109615136494 1
ion V   0.665176334275818   0.665442209675778   0.001630236870131 1
ion V   0.832246621303335   0.832630343088110   0.167787733084233 1
ion V   0.664913354041891   0.665305074790993   0.335291672298753 1
ion V   0.831596247639979   0.832212787570400   0.501400189797646 1
ion V   0.664809215682314   0.665507194951048   0.668328738196616 1
ion V   0.831979172215864   0.832611912735049   0.835136593646883 1

# Forces in Lattice coordinates:
force V  -0.029519265219607  -0.020610171398379   0.034152492430987 0
force V   0.001599693468126  -0.000031616215519  -0.001053731423040 1
force V  -0.007325345698498   0.000594512122652   0.001224934611767 1
force V   0.002956402346709   0.003112229131121  -0.003263528498864 1
force V   0.000011784870555  -0.005645823451716   0.002250472306774 1
force V  -0.000948330964599   0.002388119458165  -0.003341622675917 1
force V  -0.000057259041318  -0.003723236549310   0.003455996125073 1
force V   0.003060384051946  -0.002094527211979  -0.003113318288425 1
force V  -0.003877287187403  -0.001079257678231   0.001310664209609 1
force V   0.006354145537996   0.002096157533581  -0.004173746590090 1
force V  -0.002572809199797   0.000384731054415   0.004575331959201 1
force V   0.001459574900653   0.001985671014085  -0.006839736881728 1
force V  -0.001476327021876   0.002131635544706   0.004044151055629 1
force V   0.002029552421585   0.005100134475176  -0.005221723525398 1
force V  -0.006545441138878  -0.001906395979029  -0.000227392779785 1
force V   0.006275686534716   0.000002960377843  -0.004281113622368 1
force V  -0.002763386506747   0.003772724250946   0.003100526301081 1
force V   0.001150739982219   0.002355236026715  -0.005317137364521 1
force V  -0.001225335795775  -0.002862859981971   0.004564331711208 1
force V  -0.000847126155262   0.003018743098361  -0.003930708443057 1
force V   0.001543799058438  -0.001102654071745  -0.000881539630616 1
force V  -0.000930222983535   0.001065657929416   0.003600587101171 1
force V   0.001878155780870  -0.003180170685397   0.001175589800579 1
force V   0.002229350276458   0.003831350099378  -0.012018959000795 1
force V  -0.001441154898621  -0.003853172927550   0.001811708593787 1
force V   0.000606249002413   0.002450658560664  -0.002266957814849 1
force V   0.002065241137495  -0.001387125047415  -0.000323343547103 1
force V  -0.001067395081367  -0.000130359797230  -0.001743046000452 1
force V   0.000176172348733   0.000635366961413  -0.002163977337789 1
force V   0.001076489601582  -0.002164097085287  -0.003753892610103 1
force V   0.003316463291255   0.001353168570669   0.007714306245222 1
force V   0.001909936194148   0.000998179904000  -0.003535007166418 1
force V   0.000771068546660  -0.001260398724453   0.006579904598698 1
force V  -0.002196510863087  -0.002691583193545  -0.003449411290924 1
force V   0.000087960197084   0.001091707219846  -0.001705090373357 1
force V   0.001558843768947   0.002381876677315  -0.005262879618361 1
force V  -0.000823763391785  -0.001021294683278   0.002816921049913 1
force V   0.004780053950751   0.004742661466403  -0.002292754695752 1
force V   0.000862851426558  -0.000513764322129   0.002284077880777 1
force V   0.004249148096785   0.001507799460470  -0.006824868896512 1
force V  -0.004395590378971   0.001292234100864   0.001727236102020 1
force V   0.002878544396533   0.000472850931200  -0.003800996478382 1
force V  -0.002450651122587   0.003144565484332   0.002814718652981 1
force V   0.000476234826274   0.004029089291013   0.001720222545595 1
force V   0.004525146480848   0.001832049896067   0.002494208577225 1
force V   0.004454080435886  -0.001802853079088  -0.002372276677431 1
force V  -0.003534290541942  -0.007261500295343   0.008225812443342 1
force V   0.003232413709403  -0.001047468519394  -0.002725522407463 1
force V  -0.002475999087591   0.001968865826895   0.003263908336713 1
force V   0.000382027595703  -0.001424779249841   0.001652330686483 1
force V  -0.001843283822974   0.002310651294188  -0.004102422759922 1
force V   0.003149182090142   0.002804562989405  -0.001732653612473 1
force V  -0.001333031496355   0.000476548613711   0.002726064750439 1
force V   0.002555720894951  -0.001462056625509  -0.004981678832224 1

# Energy components:
   Eewald =    -2959.2412332391909331
       EH =      774.6107070577789955
     Eloc =    -2283.2200119018930309
      Enl =       83.9708663560581670
      Exc =     -525.7593790009793793
 Exc_core =       42.6473996967698525
       KE =      995.4202133470533909
-------------------------------------
     Etot =    -3871.5714376844034632
       TS =        0.6666025628155909
-------------------------------------
        F =    -3872.2380402472190326

IonicMinimize: Iter:   9  F: -3872.238040247219033  |grad|_K:  1.927e-04  alpha:  1.000e+00  linmin:  2.109e-02  t[s]:  23954.33

#--- Lowdin population analysis ---
# oxidation-state V +0.119 +0.121 +0.120 +0.120 +0.121 +0.119 +0.121 +0.121 +0.121 +0.120 +0.122 +0.120 +0.120 +0.122 +0.121 +0.121 +0.121 +0.120 +0.121 +0.121 +0.121 +0.120 +0.122 +0.121 +0.121 +0.121 +0.122 +0.120 +0.123 +0.120 +0.121 +0.122 +0.121 +0.121 +0.122 +0.121 +0.119 +0.123 +0.120 +0.121 +0.121 +0.121 +0.121 +0.122 +0.121 +0.120 +0.122 +0.121 +0.120 +0.124 +0.121 +0.121 +0.121 +0.122


-------- Electronic minimization -----------
Will mix electronic density at each iteration.
	FillingsUpdate:  mu: +0.629188355  nElectrons: 702.000000
	FillingsUpdate:  mu: +0.629196479  nElectrons: 702.000000
SCF: Cycle:  0   F: -3872.231794868694124   dF: +5.275e-03   |Residual|: 2.965e-02   |deigs|: 5.845e-06  t[s]:  24127.83
	FillingsUpdate:  mu: +0.629188146  nElectrons: 702.000000
SCF: Cycle:  1   F: -3872.146932008511612   dF: +8.486e-02   |Residual|: 1.258e-01   |deigs|: 4.556e-04  t[s]:  24248.02
	FillingsUpdate:  mu: +0.629190927  nElectrons: 702.000000
SCF: Cycle:  2   F: -3872.237974803904763   dF: -9.104e-02   |Residual|: 4.376e-03   |deigs|: 5.080e-04  t[s]:  24363.01
	FillingsUpdate:  mu: +0.629186625  nElectrons: 702.000000
SCF: Cycle:  3   F: -3872.237651599994024   dF: +3.232e-04   |Residual|: 8.543e-03   |deigs|: 1.549e-05  t[s]:  24442.62
	FillingsUpdate:  mu: +0.629186595  nElectrons: 702.000000
SCF: Cycle:  4   F: -3872.237997210654157   dF: -3.456e-04   |Residual|: 1.096e-03   |deigs|: 1.578e-05  t[s]:  24523.86
	FillingsUpdate:  mu: +0.629188882  nElectrons: 702.000000
SCF: Cycle:  5   F: -3872.237994778223310   dF: +2.432e-06   |Residual|: 9.460e-04   |deigs|: 3.639e-06  t[s]:  24602.55
	FillingsUpdate:  mu: +0.629188699  nElectrons: 702.000000
SCF: Cycle:  6   F: -3872.237992847704390   dF: +1.931e-06   |Residual|: 1.153e-03   |deigs|: 2.147e-06  t[s]:  24682.67
	FillingsUpdate:  mu: +0.629188097  nElectrons: 702.000000
SCF: Cycle:  7   F: -3872.237998593076099   dF: -5.745e-06   |Residual|: 8.064e-05   |deigs|: 1.759e-06  t[s]:  24762.85
	FillingsUpdate:  mu: +0.629188169  nElectrons: 702.000000
SCF: Cycle:  8   F: -3872.237998463725944   dF: +1.294e-07   |Residual|: 1.875e-04   |deigs|: 3.031e-07  t[s]:  24843.12
	FillingsUpdate:  mu: +0.629188212  nElectrons: 702.000000
SCF: Cycle:  9   F: -3872.237998608348789   dF: -1.446e-07   |Residual|: 1.940e-05   |deigs|: 2.512e-07  t[s]:  24922.13
	FillingsUpdate:  mu: +0.629188230  nElectrons: 702.000000
SCF: Cycle: 10   F: -3872.237998608272392   dF: +7.640e-11   |Residual|: 2.113e-05   |deigs|: 4.161e-08  t[s]:  25001.62
	FillingsUpdate:  mu: +0.629188231  nElectrons: 702.000000
SCF: Cycle: 11   F: -3872.237998608889484   dF: -6.171e-10   |Residual|: 9.510e-06   |deigs|: 4.014e-08  t[s]:  25081.99
	FillingsUpdate:  mu: +0.629188226  nElectrons: 702.000000
SCF: Cycle: 12   F: -3872.237998609126407   dF: -2.369e-10   |Residual|: 2.222e-06   |deigs|: 1.229e-08  t[s]:  25137.58
SCF: Converged (|Delta E|<1.000000e-08 for 2 iters).

Setting wave functions to eigenvectors of Hamiltonian
IonicMinimize: 	Wolfe criterion not satisfied: alpha: 1  (E-E0)/|gdotd0|: 0.336908  gdotd/gdotd0: -1.66915 (taking cubic step)

-------- Electronic minimization -----------
Will mix electronic density at each iteration.
	FillingsUpdate:  mu: +0.629188226  nElectrons: 702.000000
	FillingsUpdate:  mu: +0.629191695  nElectrons: 702.000000
SCF: Cycle:  0   F: -3872.235617965835445   dF: +2.081e-03   |Residual|: 1.861e-02   |deigs|: 2.294e-06  t[s]:  25331.85
	FillingsUpdate:  mu: +0.629187587  nElectrons: 702.000000
SCF: Cycle:  1   F: -3872.202239875316081   dF: +3.338e-02   |Residual|: 7.896e-02   |deigs|: 2.550e-04  t[s]:  25443.01
	FillingsUpdate:  mu: +0.629189294  nElectrons: 702.000000
SCF: Cycle:  2   F: -3872.238048875016375   dF: -3.581e-02   |Residual|: 2.747e-03   |deigs|: 2.838e-04  t[s]:  25538.00
	FillingsUpdate:  mu: +0.629186979  nElectrons: 702.000000
SCF: Cycle:  3   F: -3872.237960226731047   dF: +8.865e-05   |Residual|: 4.690e-03   |deigs|: 9.808e-06  t[s]:  25618.34
	FillingsUpdate:  mu: +0.629187190  nElectrons: 702.000000
SCF: Cycle:  4   F: -3872.238061836283123   dF: -1.016e-04   |Residual|: 9.003e-04   |deigs|: 9.589e-06  t[s]:  25697.76
	FillingsUpdate:  mu: +0.629188700  nElectrons: 702.000000
SCF: Cycle:  5   F: -3872.238062573343086   dF: -7.371e-07   |Residual|: 4.087e-04   |deigs|: 2.579e-06  t[s]:  25778.35
	FillingsUpdate:  mu: +0.629188419  nElectrons: 702.000000
SCF: Cycle:  6   F: -3872.238060651377964   dF: +1.922e-06   |Residual|: 7.662e-04   |deigs|: 1.639e-06  t[s]:  25860.55
	FillingsUpdate:  mu: +0.629188043  nElectrons: 702.000000
SCF: Cycle:  7   F: -3872.238063315703130   dF: -2.664e-06   |Residual|: 5.285e-05   |deigs|: 1.242e-06  t[s]:  25940.73
	FillingsUpdate:  mu: +0.629188071  nElectrons: 702.000000
SCF: Cycle:  8   F: -3872.238063269920531   dF: +4.578e-08   |Residual|: 1.069e-04   |deigs|: 1.481e-07  t[s]:  26021.38
	FillingsUpdate:  mu: +0.629188080  nElectrons: 702.000000
SCF: Cycle:  9   F: -3872.238063317664910   dF: -4.774e-08   |Residual|: 2.345e-05   |deigs|: 1.332e-07  t[s]:  26101.63
	FillingsUpdate:  mu: +0.629188094  nElectrons: 702.000000
SCF: Cycle: 10   F: -3872.238063318851800   dF: -1.187e-09   |Residual|: 9.117e-06   |deigs|: 3.809e-08  t[s]:  26181.75
	FillingsUpdate:  mu: +0.629188104  nElectrons: 702.000000
SCF: Cycle: 11   F: -3872.238063318449804   dF: +4.020e-10   |Residual|: 1.289e-05   |deigs|: 3.096e-08  t[s]:  26252.99
	FillingsUpdate:  mu: +0.629188105  nElectrons: 702.000000
SCF: Cycle: 12   F: -3872.238063318524837   dF: -7.503e-11   |Residual|: 1.068e-06   |deigs|: 1.697e-08  t[s]:  26307.32
	FillingsUpdate:  mu: +0.629188105  nElectrons: 702.000000
SCF: Cycle: 13   F: -3872.238063318660352   dF: -1.355e-10   |Residual|: 1.652e-06   |deigs|: 4.573e-09  t[s]:  26355.07
SCF: Converged (|Delta E|<1.000000e-08 for 2 iters).

Setting wave functions to eigenvectors of Hamiltonian

# Ionic positions in lattice coordinates:
ion V   0.000000000000000   0.000000000000000   0.000000000000000 0
ion V   0.165174133072452   0.165593951216108   0.168160144186104 1
ion V  -0.001334314045834  -0.001044213760170   0.334789251168426 1
ion V   0.164840588273420   0.165465586014720   0.501535650413692 1
ion V  -0.001507779806054  -0.000940040738757   0.668097949614339 1
ion V   0.165412741131232   0.165691337197243   0.834835317810681 1
ion V  -0.001486086645257   0.332473528877104   0.001667967716567 1
ion V   0.164831964660019   0.499144803575679   0.168437385640870 1
ion V  -0.001730460971407   0.332307709304307   0.335146866725260 1
ion V   0.164630644134438   0.498963741352776   0.501795741045855 1
ion V  -0.001713509578832   0.332387191833488   0.668188393199545 1
ion V   0.164866734732341   0.499047996292228   0.835217437142827 1
ion V  -0.001465536459283   0.665611194567480   0.001615454250066 1
ion V   0.165075834693312   0.832443765848167   0.168084893605821 1
ion V  -0.001684501084821   0.665575277814344   0.335071725842988 1
ion V   0.164810214267272   0.832299757339145   0.501556477150820 1
ion V  -0.001650413257937   0.665395335779027   0.668295503856992 1
ion V   0.165187565118205   0.832278759245305   0.834943092448785 1
ion V   0.332167114984294  -0.000986901254285   0.001674396034157 1
ion V   0.498611824305400   0.165430832494958   0.168486023954072 1
ion V   0.331800821869632  -0.001025551486767   0.335153067880476 1
ion V   0.498363036825443   0.165521097159108   0.501586429149921 1
ion V   0.331923843911114  -0.000982871182451   0.668276585638347 1
ion V   0.498677993511379   0.165449093759621   0.835369319981585 1
ion V   0.331985085305565   0.332439877412447   0.001868258975544 1
ion V   0.498428863271634   0.499000870133366   0.168546278919040 1
ion V   0.331523189202397   0.332377756568598   0.335379133092098 1
ion V   0.498134025869264   0.499046694111666   0.501800974532030 1
ion V   0.331689781570030   0.332312596394940   0.668568685100519 1
ion V   0.498389133158989   0.499035008900066   0.835236276600719 1
ion V   0.331772051019894   0.665414727788049   0.001719163455715 1
ion V   0.498652051566478   0.832283369924938   0.168448266675900 1
ion V   0.331592195680223   0.665486679991053   0.335216504047072 1
ion V   0.498373093303482   0.832406442957455   0.501689238879886 1
ion V   0.331585765615441   0.665374488507811   0.668508488849227 1
ion V   0.498653925738057   0.832308860987264   0.835182766027775 1
ion V   0.665418784102717  -0.001045467073773   0.001656195112004 1
ion V   0.832050027949632   0.165357700173161   0.168144276750918 1
ion V   0.665084816122925  -0.001097882528593   0.335008771568652 1
ion V   0.831583337235029   0.165577506997578   0.501533196923872 1
ion V   0.665078017924427  -0.001051063340844   0.668386197053464 1
ion V   0.831913699604864   0.165646446636635   0.834914967220571 1
ion V   0.665059362655854   0.332238105974405   0.001786535164701 1
ion V   0.831643279294083   0.499028903565195   0.168390269020911 1
ion V   0.664683587186812   0.332239559285693   0.335195303065661 1
ion V   0.831421808294103   0.499037114475100   0.501593020603769 1
ion V   0.664769337533115   0.332520303551826   0.668329774234898 1
ion V   0.831604240696584   0.499108733723465   0.835159712910640 1
ion V   0.665150790860903   0.665474008015639   0.001840357929300 1
ion V   0.832295573062114   0.832644290157503   0.167866486871963 1
ion V   0.664873174818446   0.665437703697618   0.335252865380043 1
ion V   0.831631526488600   0.832289187880278   0.501451790112429 1
ion V   0.664782547270831   0.665499618912300   0.668439138010507 1
ion V   0.832058120529977   0.832542106160309   0.835063649158429 1

# Forces in Lattice coordinates:
force V  -0.028300199748256  -0.021125787631029   0.032225960637398 0
force V  -0.000251318573631   0.000634611128275   0.001519959939972 1
force V  -0.002947360186024   0.001869100778224   0.001118771666822 1
force V   0.000339905809748  -0.000038103718970  -0.001026338184296 1
force V   0.001616652481124  -0.000337119317181  -0.002782693315569 1
force V  -0.001285883397469   0.002084101236674   0.000808133733377 1
force V   0.001240041265339   0.000536375775408  -0.003402599972295 1
force V   0.000265177251610  -0.001651563824606   0.000793438792754 1
force V   0.001819218583187   0.000846369841535  -0.001333935782752 1
force V   0.001792554727426   0.000355627089239  -0.002602388975777 1
force V   0.001930060398344   0.001627724907933   0.001290847361158 1
force V  -0.000158959960151  -0.000648109581168   0.001024059041493 1
force V   0.000567775192823   0.001059057272716  -0.002669041542189 1
force V   0.000268514672022   0.001299546834737  -0.000051237540120 1
force V   0.000636754012190   0.000555404703223  -0.001049222685980 1
force V   0.001339637221320   0.000108659798059  -0.002322115074914 1
force V  -0.000291492376189   0.002860164603159  -0.000849468601630 1
force V   0.000958262864967   0.001515542652110  -0.000601981634368 1
force V   0.001025307184354  -0.000490641522900  -0.002684701741048 1
force V   0.001928649804973  -0.000150848312530  -0.000283458773541 1
force V   0.000091345131088   0.000192583858268  -0.000867859025091 1
force V   0.001512812681195  -0.001077569689889   0.002744771161572 1
force V   0.000271775452715  -0.000207550774171  -0.000606674690540 1
force V   0.001313844964813   0.000615560955329  -0.002600145902462 1
force V  -0.001554460486757   0.000255389912916  -0.003922114218110 1
force V   0.000270046868693  -0.000296369982192   0.000910089490797 1
force V   0.000906146721038  -0.000082133995059  -0.001386022412179 1
force V   0.001432845715127  -0.001482854747297  -0.000615843108316 1
force V  -0.000524670911789   0.000833433724247  -0.002119734573746 1
force V   0.001609296227800  -0.001273198566658   0.002800020251000 1
force V   0.002563398384291   0.002166230036046  -0.000724932372904 1
force V   0.002017675124451  -0.000515235572196  -0.000061161490736 1
force V   0.000148563195029  -0.000267367574047   0.002174601829827 1
force V   0.001735710629096  -0.002801241560508  -0.000790830470889 1
force V   0.000347394898724   0.001474740325106  -0.001535261113718 1
force V   0.001224279506531  -0.000223783564752   0.002387528765359 1
force V  -0.001422061291818   0.001394906562413  -0.002411535709868 1
force V   0.001579091071070   0.000972435396927  -0.001565727299586 1
force V   0.000677184782609   0.001427759977027   0.000334095530859 1
force V   0.001115155748424  -0.003114195539728  -0.003532423014141 1
force V  -0.001866300563577   0.002324903596308  -0.002585709346551 1
force V   0.000546389476344   0.000558335614082   0.000641332912520 1
force V  -0.000926694588798   0.002411314307852  -0.002528623534502 1
force V   0.000354492759359   0.000784098490017   0.001169351938944 1
force V   0.002158321684072   0.001506607192902   0.001178203016957 1
force V   0.000446791988007  -0.000599611668107   0.000172621766887 1
force V  -0.001231804543598  -0.003087391266488   0.002137469184134 1
force V   0.001777330276733  -0.000465148704615   0.001622696552166 1
force V  -0.001590381127840   0.002784580595160  -0.004291839871028 1
force V  -0.000926907883989  -0.000135310853582   0.002133141540868 1
force V  -0.000922389400968   0.002247823223377  -0.002006678307658 1
force V   0.001414538632551   0.001019162098203  -0.000901661151028 1
force V  -0.000082112136756   0.000512776963715  -0.000729297449004 1
force V   0.000189651042060  -0.001778218286931   0.000292557543225 1

# Energy components:
   Eewald =    -2959.2446671851430438
       EH =      774.6072946510685142
     Eloc =    -2283.2129532254102742
      Enl =       83.9708080320775139
      Exc =     -525.7592853345877302
 Exc_core =       42.6474165561373653
       KE =      995.4199345417837321
-------------------------------------
     Etot =    -3871.5714519640732760
       TS =        0.6666113545871690
-------------------------------------
        F =    -3872.2380633186603518

IonicMinimize: Iter:  10  F: -3872.238063318660352  |grad|_K:  9.258e-05  alpha:  3.734e-01  linmin: -5.037e-04  t[s]:  26376.07
IonicMinimize: Converged (|grad|_K<1.000000e-04).

#--- Lowdin population analysis ---
# oxidation-state V +0.120 +0.121 +0.120 +0.121 +0.121 +0.120 +0.121 +0.121 +0.121 +0.120 +0.121 +0.120 +0.120 +0.122 +0.121 +0.121 +0.121 +0.121 +0.121 +0.121 +0.121 +0.120 +0.121 +0.121 +0.121 +0.120 +0.122 +0.120 +0.122 +0.120 +0.121 +0.121 +0.121 +0.121 +0.122 +0.121 +0.120 +0.122 +0.120 +0.121 +0.121 +0.121 +0.121 +0.121 +0.121 +0.121 +0.122 +0.121 +0.121 +0.123 +0.121 +0.121 +0.121 +0.122


Dumping 'V_ionic.Ecomponents' ... done
End date and time: Tue Jul 16 20:39:05 2024  (Duration: 0-7:19:49.80)
Done!
