
*************** JDFTx 1.7.0 (git hash e155c65d) ***************

Start date and time: Tue Jul 16 08:49:59 2024
Executable jdftx with command-line: -i V_inter_tet.in
Running on hosts (process indices):  node3407 (0-63)
Divided in process groups (process indices):  0 (0)  1 (1)  2 (2)  3 (3)  4 (4)  5 (5)  6 (6)  7 (7)  8 (8)  9 (9)  10 (10)  11 (11)  12 (12)  13 (13)  14 (14)  15 (15)  16 (16)  17 (17)  18 (18)  19 (19)  20 (20)  21 (21)  22 (22)  23 (23)  24 (24)  25 (25)  26 (26)  27 (27)  28 (28)  29 (29)  30 (30)  31 (31)  32 (32)  33 (33)  34 (34)  35 (35)  36 (36)  37 (37)  38 (38)  39 (39)  40 (40)  41 (41)  42 (42)  43 (43)  44 (44)  45 (45)  46 (46)  47 (47)  48 (48)  49 (49)  50 (50)  51 (51)  52 (52)  53 (53)  54 (54)  55 (55)  56 (56)  57 (57)  58 (58)  59 (59)  60 (60)  61 (61)  62 (62)  63 (63)
Resource initialization completed at t[s]:      0.41
Run totals: 64 processes, 64 threads, 0 GPUs


Input parsed successfully to the following command list (including defaults):

basis kpoint-dependent
coords-type Lattice
core-overlap-check vector
coulomb-interaction Periodic
davidson-band-ratio 1.1
dump End Ecomponents
dump-name $INPUT.$VAR
elec-cutoff 20 100
elec-eigen-algo Davidson
elec-ex-corr gga-PBEsol
elec-smearing Fermi 0.01
electronic-minimize  \
	dirUpdateScheme      FletcherReeves \
	linminMethod         DirUpdateRecommended \
	nIterations          100 \
	history              15 \
	knormThreshold       0 \
	maxThreshold         no \
	energyDiffThreshold  1e-08 \
	nEnergyDiff          2 \
	alphaTstart          1 \
	alphaTmin            1e-10 \
	updateTestStepSize   yes \
	alphaTreduceFactor   0.1 \
	alphaTincreaseFactor 3 \
	nAlphaAdjustMax      3 \
	wolfeEnergy          0.0001 \
	wolfeGradient        0.9 \
	fdTest               no
electronic-scf  \
	nIterations	50 \
	energyDiffThreshold	1e-08 \
	residualThreshold	1e-07 \
	mixFraction	0.5 \
	qMetric	0.8 \
	history	10 \
	nEigSteps	2 \
	eigDiffThreshold	1e-08 \
	mixedVariable	Density \
	qKerker	0.8 \
	qKappa	-1 \
	verbose	no \
	mixFractionMag	1.5
exchange-regularization WignerSeitzTruncated
fluid None
fluid-ex-corr lda-TF lda-PZ
fluid-gummel-loop 10 1.000000e-05
fluid-minimize  \
	dirUpdateScheme      PolakRibiere \
	linminMethod         DirUpdateRecommended \
	nIterations          100 \
	history              15 \
	knormThreshold       0 \
	maxThreshold         no \
	energyDiffThreshold  0 \
	nEnergyDiff          2 \
	alphaTstart          1 \
	alphaTmin            1e-10 \
	updateTestStepSize   yes \
	alphaTreduceFactor   0.1 \
	alphaTincreaseFactor 3 \
	nAlphaAdjustMax      3 \
	wolfeEnergy          0.0001 \
	wolfeGradient        0.9 \
	fdTest               no
fluid-solvent H2O 55.338 ScalarEOS \
	epsBulk 78.4 \
	pMol 0.92466 \
	epsInf 1.77 \
	Pvap 1.06736e-10 \
	sigmaBulk 4.62e-05 \
	Rvdw 2.61727 \
	Res 1.42 \
	tauNuc 343133 \
	poleEl 15 7 1
forces-output-coords Positions
ion V   0.000000000000000   0.000000000000000   0.000000000000000 0
ion V   0.158490000000000   0.139310000000000   0.173570000000000 1
ion V  -0.004320000000000  -0.011310000000000   0.306910000000000 1
ion V   0.153770000000000   0.171310000000000   0.518330000000000 1
ion V  -0.004180000000000  -0.009070000000000   0.658070000000000 1
ion V   0.177630000000000   0.176500000000000   0.825400000000000 1
ion V   0.019690000000000   0.315050000000000  -0.006580000000000 1
ion V   0.161010000000000   0.518620000000000   0.159650000000000 1
ion V  -0.000860000000000   0.334390000000000   0.353100000000000 1
ion V   0.171110000000000   0.487850000000000   0.485690000000000 1
ion V  -0.000060000000000   0.337210000000000   0.661060000000000 1
ion V   0.178320000000000   0.494900000000000   0.830370000000000 1
ion V   0.005810000000000   0.658420000000000   0.008410000000000 1
ion V   0.162630000000000   0.833860000000000   0.160280000000000 1
ion V   0.014000000000000   0.673070000000000   0.340240000000000 1
ion V   0.179480000000000   0.824240000000000   0.500240000000000 1
ion V   0.001510000000000   0.679310000000000   0.645640000000000 1
ion V   0.149700000000000   0.830440000000000   0.833020000000000 1
ion V   0.324410000000000   0.005860000000000   0.014700000000000 1
ion V   0.476780000000000   0.163450000000000   0.173850000000000 1
ion V   0.337320000000000   0.005560000000000   0.314500000000000 1
ion V   0.500050000000000   0.170850000000000   0.525460000000000 1
ion V   0.318280000000000  -0.003350000000000   0.664050000000000 1
ion V   0.493600000000000   0.179640000000000   0.832680000000000 1
ion V   0.319270000000000   0.314850000000000  -0.005510000000000 1
ion V   0.487090000000000   0.500180000000000   0.167560000000000 1
ion V   0.337900000000000   0.325050000000000   0.337680000000000 1
ion V   0.490780000000000   0.511840000000000   0.504880000000000 1
ion V   0.330080000000000   0.323100000000000   0.669740000000000 1
ion V   0.508930000000000   0.473620000000000   0.841970000000000 1
ion V   0.343140000000000   0.660750000000000   0.017770000000000 1
ion V   0.495180000000000   0.839240000000000   0.162720000000000 1
ion V   0.347630000000000   0.665080000000000   0.343940000000000 1
ion V   0.493560000000000   0.812720000000000   0.503370000000000 1
ion V   0.334010000000000   0.674300000000000   0.676770000000000 1
ion V   0.495410000000000   0.817870000000000   0.843530000000000 1
ion V   0.674990000000000   0.000040000000000   0.008680000000000 1
ion V   0.832050000000000   0.160820000000000   0.172620000000000 1
ion V   0.664240000000000   0.020210000000000   0.326700000000000 1
ion V   0.833990000000000   0.156060000000000   0.491470000000000 1
ion V   0.661120000000000   0.005700000000000   0.674560000000000 1
ion V   0.851110000000000   0.153060000000000   0.836180000000000 1
ion V   0.675970000000000   0.335650000000000   0.010620000000000 1
ion V   0.824610000000000   0.517910000000000   0.179050000000000 1
ion V   0.672560000000000   0.315350000000000   0.342430000000000 1
ion V   0.843250000000000   0.513430000000000   0.509570000000000 1
ion V   0.658910000000000   0.337600000000000   0.677590000000000 1
ion V   0.840820000000000   0.485960000000000   0.839790000000000 1
ion V   0.648670000000000   0.661590000000000  -0.025630000000000 1
ion V   0.821010000000000   0.819620000000000   0.178280000000000 1
ion V   0.670430000000000   0.685430000000000   0.334620000000000 1
ion V   0.841270000000000   0.818900000000000   0.511080000000000 1
ion V   0.655510000000000   0.679520000000000   0.649220000000000 1
ion V   0.833860000000000   0.823140000000000   0.833310000000000 1
ion O   0.320000000000000   0.154000000000000   0.081000000000000 1
ion-species GBRV/$ID_pbesol.uspp
ion-width 0
ionic-minimize  \
	dirUpdateScheme      L-BFGS \
	linminMethod         DirUpdateRecommended \
	nIterations          30 \
	history              15 \
	knormThreshold       0.0001 \
	maxThreshold         no \
	energyDiffThreshold  1e-06 \
	nEnergyDiff          2 \
	alphaTstart          1 \
	alphaTmin            1e-10 \
	updateTestStepSize   yes \
	alphaTreduceFactor   0.1 \
	alphaTincreaseFactor 3 \
	nAlphaAdjustMax      3 \
	wolfeEnergy          0.0001 \
	wolfeGradient        0.9 \
	fdTest               no
kpoint   0.500000000000   0.500000000000   0.500000000000  1.00000000000000
kpoint-folding 3 3 3 
latt-move-scale 1 1 1
latt-scale 1 1 1 
lattice  \
	  16.834482362426918    0.000000000000000    0.000000000000000  \
	   0.000000000000000   16.834482362426918    0.000000000000000  \
	   0.000000000000000    0.000000000000000   16.834482362426918 
lattice-minimize  \
	dirUpdateScheme      L-BFGS \
	linminMethod         DirUpdateRecommended \
	nIterations          0 \
	history              15 \
	knormThreshold       0 \
	maxThreshold         no \
	energyDiffThreshold  1e-06 \
	nEnergyDiff          2 \
	alphaTstart          1 \
	alphaTmin            1e-10 \
	updateTestStepSize   yes \
	alphaTreduceFactor   0.1 \
	alphaTincreaseFactor 3 \
	nAlphaAdjustMax      3 \
	wolfeEnergy          0.0001 \
	wolfeGradient        0.9 \
	fdTest               no
lcao-params -1 1e-06 0.01
pcm-variant GLSSA13
perturb-minimize  \
	nIterations            0 \
	algorithm              MINRES \
	residualTol            0.0001 \
	residualDiffThreshold  0.0001 \
	CGBypass               no \
	recomputeResidual      no
spintype no-spin
subspace-rotation-factor 1 yes
symmetries automatic
symmetry-threshold 0.0001



---------- Setting up symmetries ----------

Found 48 point-group symmetries of the bravais lattice
Found 1 space-group symmetries with basis
Applied RMS atom displacement 0 bohrs to make symmetries exact.

---------- Initializing the Grid ----------
R = 
[      16.8345            0            0  ]
[            0      16.8345            0  ]
[            0            0      16.8345  ]
unit cell volume = 4770.89
G =
[   0.373233          0          0  ]
[          0   0.373233          0  ]
[          0          0   0.373233  ]
Minimum fftbox size, Smin = [  76  76  76  ]
Chosen fftbox size, S = [  80  80  80  ]

---------- Initializing tighter grid for wavefunction operations ----------
R = 
[      16.8345            0            0  ]
[            0      16.8345            0  ]
[            0            0      16.8345  ]
unit cell volume = 4770.89
G =
[   0.373233          0          0  ]
[          0   0.373233          0  ]
[          0          0   0.373233  ]
Minimum fftbox size, Smin = [  68  68  68  ]
Chosen fftbox size, S = [  70  70  70  ]

---------- Exchange Correlation functional ----------
Initalized PBEsol GGA exchange.
Initalized PBEsol GGA correlation.

---------- Setting up pseudopotentials ----------
Width of ionic core gaussian charges (only for fluid interactions / plotting) set to 0

Reading pseudopotential file '/home/rc652/JDFTx/build/pseudopotentials/GBRV/v_pbesol.uspp':
  Title: V.  Created by USPP 7.3.6 on 22-9-15
  Reference state energy: -72.158624.  13 valence electrons in orbitals:
    |300>  occupation: 2  eigenvalue: -2.573661
    |310>  occupation: 6  eigenvalue: -1.615030
    |400>  occupation: 2  eigenvalue: -0.173307
    |320>  occupation: 3  eigenvalue: -0.190514
  lMax: 2  lLocal: 3  QijEcut: 6
  6 projectors sampled on a log grid with 593 points:
    l: 0  eig: -2.573661  rCut: 1.5
    l: 0  eig: -0.173307  rCut: 1.5
    l: 1  eig: -1.615030  rCut: 1.6
    l: 1  eig: 0.150000  rCut: 1.6
    l: 2  eig: -0.190514  rCut: 1.7
    l: 2  eig: 0.150000  rCut: 1.7
  Partial core density with radius 0.8
  Transforming core density to a uniform radial grid of dG=0.02 with 1298 points.
  Transforming local potential to a uniform radial grid of dG=0.02 with 1298 points.
  Transforming nonlocal projectors to a uniform radial grid of dG=0.02 with 432 points.
  Transforming density augmentations to a uniform radial grid of dG=0.02 with 1298 points.
  Transforming atomic orbitals to a uniform radial grid of dG=0.02 with 432 points.
  Core radius for overlap checks: 1.80 bohrs.

Reading pseudopotential file '/home/rc652/JDFTx/build/pseudopotentials/GBRV/o_pbesol.uspp':
  Title: O.  Created by USPP 7.3.6 on 3-2-2014
  Reference state energy: -15.849885.  6 valence electrons in orbitals:
    |200>  occupation: 2  eigenvalue: -0.873214
    |210>  occupation: 4  eigenvalue: -0.330058
  lMax: 2  lLocal: 2  QijEcut: 6
  5 projectors sampled on a log grid with 511 points:
    l: 0  eig: -0.873214  rCut: 1.25
    l: 0  eig: 0.000000  rCut: 1.25
    l: 1  eig: -0.330058  rCut: 1.25
    l: 1  eig: 0.000000  rCut: 1.25
    l: 2  eig: 1.000000  rCut: 1.25
  Partial core density with radius 0.7
  Transforming core density to a uniform radial grid of dG=0.02 with 1298 points.
  Transforming local potential to a uniform radial grid of dG=0.02 with 1298 points.
  Transforming nonlocal projectors to a uniform radial grid of dG=0.02 with 432 points.
  Transforming density augmentations to a uniform radial grid of dG=0.02 with 1298 points.
  Transforming atomic orbitals to a uniform radial grid of dG=0.02 with 432 points.
  Core radius for overlap checks: 1.25 bohrs.

Initialized 2 species with 55 total atoms.

Folded 1 k-points by 3x3x3 to 27 k-points.

---------- Setting up k-points, bands, fillings ----------
Adding inversion symmetry to k-mesh for non-inversion-symmetric unit cell.
Reduced to 14 k-points under symmetry. 
Computing the number of bands and number of electrons
Calculating initial fillings.
nElectrons: 708.000000   nBands: 544   nStates: 14

----- Setting up reduced wavefunction bases (one per k-point) -----
average nbasis = 20387.259 , ideal nbasis = 20381.601

---------- Setting up ewald sum ----------
Optimum gaussian width for ewald sums = 3.443891 bohr.
Real space sum over 343 unit cells with max indices [  3  3  3  ]
Reciprocal space sum over 6859 terms with max indices [  9  9  9  ]

---------- Allocating electronic variables ----------
Initializing wave functions:  linear combination of atomic orbitals
V pseudo-atom occupations:   s ( 2 0 )  p ( 6 )  d ( 5 )
O pseudo-atom occupations:   s ( 2 )  p ( 4 )
	FillingsUpdate:  mu: +0.681506767  nElectrons: 708.000000
LCAOMinimize: Iter:   0  F: -3881.0857665762973738  |grad|_K:  1.183e-03  alpha:  1.000e+00
	FillingsUpdate:  mu: +0.690558689  nElectrons: 708.000000
LCAOMinimize: Iter:   1  F: -3881.7924594649412029  |grad|_K:  1.213e-03  alpha:  1.465e-01  linmin: -1.347e-01  cgtest:  4.935e-01  t[s]:    167.00
	FillingsUpdate:  mu: +0.692624662  nElectrons: 708.000000
LCAOMinimize: Iter:   2  F: -3882.5244892735750000  |grad|_K:  2.459e-03  alpha:  1.941e-01  linmin:  1.824e-02  cgtest: -3.571e-01  t[s]:    220.90
	FillingsUpdate:  mu: +0.695106382  nElectrons: 708.000000
LCAOMinimize: Iter:   3  F: -3882.6372381954947741  |grad|_K:  2.606e-03  alpha:  8.608e-03  linmin: -1.765e-02  cgtest:  9.850e-01  t[s]:    274.92
LCAOMinimize: 	Predicted alpha/alphaT>3.000000, increasing alphaT to 2.582254e-02.
	FillingsUpdate:  mu: +0.710765627  nElectrons: 708.000000
LCAOMinimize: Iter:   4  F: -3883.1784721757935586  |grad|_K:  5.586e-04  alpha:  3.772e-02  linmin:  5.200e-02  cgtest: -3.291e-01  t[s]:    342.09
LCAOMinimize: 	Predicted alpha/alphaT>3.000000, increasing alphaT to 1.131539e-01.
	FillingsUpdate:  mu: +0.720761535  nElectrons: 708.000000
LCAOMinimize: Iter:   5  F: -3883.3630100528462208  |grad|_K:  1.129e-03  alpha:  3.377e-01  linmin:  1.363e-02  cgtest:  1.566e-01  t[s]:    409.41
	FillingsUpdate:  mu: +0.726470574  nElectrons: 708.000000
LCAOMinimize: Iter:   6  F: -3883.4854085431020394  |grad|_K:  7.601e-04  alpha:  3.677e-02  linmin: -5.048e-02  cgtest:  8.517e-01  t[s]:    463.24
LCAOMinimize: Encountered beta<0, resetting CG.
	FillingsUpdate:  mu: +0.726529545  nElectrons: 708.000000
LCAOMinimize: Iter:   7  F: -3883.5461838103369701  |grad|_K:  1.394e-04  alpha:  5.072e-02  linmin:  1.828e-02  cgtest: -4.722e-02  t[s]:    517.22
	FillingsUpdate:  mu: +0.726972034  nElectrons: 708.000000
LCAOMinimize: Iter:   8  F: -3883.5491959837104332  |grad|_K:  1.371e-04  alpha:  7.539e-02  linmin:  1.283e-03  cgtest:  7.936e-03  t[s]:    570.90
	FillingsUpdate:  mu: +0.728492667  nElectrons: 708.000000
LCAOMinimize: Iter:   9  F: -3883.5544124964280854  |grad|_K:  1.613e-04  alpha:  1.350e-01  linmin:  2.233e-03  cgtest: -5.780e-03  t[s]:    624.66
	FillingsUpdate:  mu: +0.730458597  nElectrons: 708.000000
LCAOMinimize: Iter:  10  F: -3883.5613898290348516  |grad|_K:  6.274e-05  alpha:  1.310e-01  linmin:  3.139e-03  cgtest:  9.386e-02  t[s]:    678.43
	FillingsUpdate:  mu: +0.730546196  nElectrons: 708.000000
LCAOMinimize: Iter:  11  F: -3883.5617782472645558  |grad|_K:  2.476e-05  alpha:  4.774e-02  linmin: -1.222e-03  cgtest:  2.776e-02  t[s]:    732.17
	FillingsUpdate:  mu: +0.730561685  nElectrons: 708.000000
LCAOMinimize: Iter:  12  F: -3883.5618416401980539  |grad|_K:  1.263e-05  alpha:  4.964e-02  linmin:  4.051e-05  cgtest: -6.399e-03  t[s]:    786.31
LCAOMinimize: 	Predicted alpha/alphaT>3.000000, increasing alphaT to 1.489172e-01.
	FillingsUpdate:  mu: +0.730590343  nElectrons: 708.000000
LCAOMinimize: Iter:  13  F: -3883.5618939546811816  |grad|_K:  1.115e-05  alpha:  1.577e-01  linmin:  2.930e-04  cgtest:  1.039e-03  t[s]:    853.64
	FillingsUpdate:  mu: +0.730605550  nElectrons: 708.000000
LCAOMinimize: Iter:  14  F: -3883.5619139367763637  |grad|_K:  4.422e-06  alpha:  7.730e-02  linmin: -1.797e-04  cgtest:  1.074e-02  t[s]:    907.35
	FillingsUpdate:  mu: +0.730604858  nElectrons: 708.000000
LCAOMinimize: Iter:  15  F: -3883.5619156794618902  |grad|_K:  2.119e-06  alpha:  4.286e-02  linmin:  5.739e-05  cgtest: -1.119e-03  t[s]:    961.29
	FillingsUpdate:  mu: +0.730602342  nElectrons: 708.000000
LCAOMinimize: Iter:  16  F: -3883.5619168156385967  |grad|_K:  2.302e-06  alpha:  1.222e-01  linmin:  9.728e-04  cgtest: -3.289e-03  t[s]:   1015.23
	FillingsUpdate:  mu: +0.730589503  nElectrons: 708.000000
LCAOMinimize: Iter:  17  F: -3883.5619193034544878  |grad|_K:  2.029e-06  alpha:  2.266e-01  linmin: -6.302e-05  cgtest:  1.473e-02  t[s]:   1069.53
	FillingsUpdate:  mu: +0.730588740  nElectrons: 708.000000
LCAOMinimize: Iter:  18  F: -3883.5619196557663599  |grad|_K:  6.490e-07  alpha:  4.118e-02  linmin:  6.595e-06  cgtest: -3.033e-03  t[s]:   1123.56
	FillingsUpdate:  mu: +0.730588173  nElectrons: 708.000000
LCAOMinimize: Iter:  19  F: -3883.5619197026389884  |grad|_K:  2.358e-07  alpha:  5.426e-02  linmin:  1.449e-02  cgtest: -3.698e-02  t[s]:   1180.87
LCAOMinimize: Converged (|Delta F|<1.000000e-06 for 2 iters).


---- Citations for features of the code used in this run ----

   Software package:
      R. Sundararaman, K. Letchworth-Weaver, K.A. Schwarz, D. Gunceler, Y. Ozhabes and T.A. Arias, 'JDFTx: software for joint density-functional theory', SoftwareX 6, 278 (2017)

   gga-PBEsol exchange-correlation functional:
      J.P. Perdew et al., Phys. Rev. Lett. 100, 136406 (2008)

   Pseudopotentials:
      KF Garrity, JW Bennett, KM Rabe and D Vanderbilt, Comput. Mater. Sci. 81, 446 (2014)

This list may not be complete. Please suggest additional citations or
report any other bugs at https://github.com/shankar1729/jdftx/issues

Initialization completed successfully at t[s]:   1208.62


-------- Electronic minimization -----------
Will mix electronic density at each iteration.
	FillingsUpdate:  mu: +0.730588173  nElectrons: 708.000000
	FillingsUpdate:  mu: +0.695180242  nElectrons: 708.000000
SCF: Cycle:  0   F: -3882.834233203630447   dF: +7.277e-01   |Residual|: 2.190e+00   |deigs|: 2.777e-02  t[s]:   1462.70
	FillingsUpdate:  mu: +0.632224254  nElectrons: 708.000000
SCF: Cycle:  1   F: -3887.277180558210148   dF: -4.443e+00   |Residual|: 4.422e-01   |deigs|: 9.541e-02  t[s]:   1673.03
	FillingsUpdate:  mu: +0.637463466  nElectrons: 708.000000
SCF: Cycle:  2   F: -3881.833158872405875   dF: +5.444e+00   |Residual|: 1.016e+00   |deigs|: 9.890e-03  t[s]:   1884.41
	FillingsUpdate:  mu: +0.636834425  nElectrons: 708.000000
SCF: Cycle:  3   F: -3887.770827723943967   dF: -5.938e+00   |Residual|: 1.321e-01   |deigs|: 7.588e-03  t[s]:   2102.24
	FillingsUpdate:  mu: +0.636687680  nElectrons: 708.000000
SCF: Cycle:  4   F: -3887.530778423019910   dF: +2.400e-01   |Residual|: 2.256e-01   |deigs|: 1.406e-03  t[s]:   2308.12
	FillingsUpdate:  mu: +0.636620074  nElectrons: 708.000000
SCF: Cycle:  5   F: -3887.804113989998768   dF: -2.733e-01   |Residual|: 5.210e-02   |deigs|: 8.812e-04  t[s]:   2519.22
	FillingsUpdate:  mu: +0.636474722  nElectrons: 708.000000
SCF: Cycle:  6   F: -3887.787261016169850   dF: +1.685e-02   |Residual|: 7.806e-02   |deigs|: 6.310e-04  t[s]:   2707.44
	FillingsUpdate:  mu: +0.636372835  nElectrons: 708.000000
SCF: Cycle:  7   F: -3887.814584499664761   dF: -2.732e-02   |Residual|: 1.103e-02   |deigs|: 4.036e-04  t[s]:   2895.87
	FillingsUpdate:  mu: +0.636352751  nElectrons: 708.000000
SCF: Cycle:  8   F: -3887.814066859943978   dF: +5.176e-04   |Residual|: 1.490e-02   |deigs|: 9.955e-05  t[s]:   3020.34
	FillingsUpdate:  mu: +0.636334773  nElectrons: 708.000000
SCF: Cycle:  9   F: -3887.815048947738887   dF: -9.821e-04   |Residual|: 4.094e-03   |deigs|: 5.628e-05  t[s]:   3151.10
	FillingsUpdate:  mu: +0.636336907  nElectrons: 708.000000
SCF: Cycle: 10   F: -3887.815084890791240   dF: -3.594e-05   |Residual|: 2.847e-03   |deigs|: 2.045e-05  t[s]:   3275.55
	FillingsUpdate:  mu: +0.636347380  nElectrons: 708.000000
SCF: Cycle: 11   F: -3887.815106325102988   dF: -2.143e-05   |Residual|: 1.547e-03   |deigs|: 1.754e-05  t[s]:   3399.65
	FillingsUpdate:  mu: +0.636346158  nElectrons: 708.000000
SCF: Cycle: 12   F: -3887.815112670215967   dF: -6.345e-06   |Residual|: 1.046e-03   |deigs|: 8.420e-06  t[s]:   3522.65
	FillingsUpdate:  mu: +0.636345309  nElectrons: 708.000000
SCF: Cycle: 13   F: -3887.815116082881104   dF: -3.413e-06   |Residual|: 5.203e-04   |deigs|: 3.290e-06  t[s]:   3648.13
	FillingsUpdate:  mu: +0.636344837  nElectrons: 708.000000
SCF: Cycle: 14   F: -3887.815116970874442   dF: -8.880e-07   |Residual|: 2.591e-04   |deigs|: 2.608e-06  t[s]:   3772.44
	FillingsUpdate:  mu: +0.636345426  nElectrons: 708.000000
SCF: Cycle: 15   F: -3887.815116792367007   dF: +1.785e-07   |Residual|: 2.795e-04   |deigs|: 1.969e-06  t[s]:   3897.39
	FillingsUpdate:  mu: +0.636345388  nElectrons: 708.000000
SCF: Cycle: 16   F: -3887.815117216965064   dF: -4.246e-07   |Residual|: 3.990e-05   |deigs|: 1.337e-06  t[s]:   4020.89
	FillingsUpdate:  mu: +0.636345421  nElectrons: 708.000000
SCF: Cycle: 17   F: -3887.815117210740482   dF: +6.225e-09   |Residual|: 5.497e-05   |deigs|: 3.066e-07  t[s]:   4144.01
	FillingsUpdate:  mu: +0.636345429  nElectrons: 708.000000
SCF: Cycle: 18   F: -3887.815117218388878   dF: -7.648e-09   |Residual|: 3.523e-05   |deigs|: 2.202e-07  t[s]:   4268.50
	FillingsUpdate:  mu: +0.636345450  nElectrons: 708.000000
SCF: Cycle: 19   F: -3887.815117222792651   dF: -4.404e-09   |Residual|: 1.219e-05   |deigs|: 2.502e-07  t[s]:   4392.21
SCF: Converged (|Delta E|<1.000000e-08 for 2 iters).

Setting wave functions to eigenvectors of Hamiltonian

# Ionic positions in lattice coordinates:
ion V   0.000000000000000   0.000000000000000   0.000000000000000 0
ion V   0.158490000000000   0.139310000000000   0.173570000000000 1
ion V  -0.004320000000000  -0.011310000000000   0.306910000000000 1
ion V   0.153770000000000   0.171310000000000   0.518330000000000 1
ion V  -0.004180000000000  -0.009070000000000   0.658070000000000 1
ion V   0.177630000000000   0.176500000000000   0.825400000000000 1
ion V   0.019690000000000   0.315050000000000  -0.006580000000000 1
ion V   0.161010000000000   0.518620000000000   0.159650000000000 1
ion V  -0.000860000000000   0.334390000000000   0.353100000000000 1
ion V   0.171110000000000   0.487850000000000   0.485690000000000 1
ion V  -0.000060000000000   0.337210000000000   0.661060000000000 1
ion V   0.178320000000000   0.494900000000000   0.830370000000000 1
ion V   0.005810000000000   0.658420000000000   0.008410000000000 1
ion V   0.162630000000000   0.833860000000000   0.160280000000000 1
ion V   0.014000000000000   0.673070000000000   0.340240000000000 1
ion V   0.179480000000000   0.824240000000000   0.500240000000000 1
ion V   0.001510000000000   0.679310000000000   0.645640000000000 1
ion V   0.149700000000000   0.830440000000000   0.833020000000000 1
ion V   0.324410000000000   0.005860000000000   0.014700000000000 1
ion V   0.476780000000000   0.163450000000000   0.173850000000000 1
ion V   0.337320000000000   0.005560000000000   0.314500000000000 1
ion V   0.500050000000000   0.170850000000000   0.525460000000000 1
ion V   0.318280000000000  -0.003350000000000   0.664050000000000 1
ion V   0.493600000000000   0.179640000000000   0.832680000000000 1
ion V   0.319270000000000   0.314850000000000  -0.005510000000000 1
ion V   0.487090000000000   0.500180000000000   0.167560000000000 1
ion V   0.337900000000000   0.325050000000000   0.337680000000000 1
ion V   0.490780000000000   0.511840000000000   0.504880000000000 1
ion V   0.330080000000000   0.323100000000000   0.669740000000000 1
ion V   0.508930000000000   0.473620000000000   0.841970000000000 1
ion V   0.343140000000000   0.660750000000000   0.017770000000000 1
ion V   0.495180000000000   0.839240000000000   0.162720000000000 1
ion V   0.347630000000000   0.665080000000000   0.343940000000000 1
ion V   0.493560000000000   0.812720000000000   0.503370000000000 1
ion V   0.334010000000000   0.674300000000000   0.676770000000000 1
ion V   0.495410000000000   0.817870000000000   0.843530000000000 1
ion V   0.674990000000000   0.000040000000000   0.008680000000000 1
ion V   0.832050000000000   0.160820000000000   0.172620000000000 1
ion V   0.664240000000000   0.020210000000000   0.326700000000000 1
ion V   0.833990000000000   0.156060000000000   0.491470000000000 1
ion V   0.661120000000000   0.005700000000000   0.674560000000000 1
ion V   0.851110000000000   0.153060000000000   0.836180000000000 1
ion V   0.675970000000000   0.335650000000000   0.010620000000000 1
ion V   0.824610000000000   0.517910000000000   0.179050000000000 1
ion V   0.672560000000000   0.315350000000000   0.342430000000000 1
ion V   0.843250000000000   0.513430000000000   0.509570000000000 1
ion V   0.658910000000000   0.337600000000000   0.677590000000000 1
ion V   0.840820000000000   0.485960000000000   0.839790000000000 1
ion V   0.648670000000000   0.661590000000000  -0.025630000000000 1
ion V   0.821010000000000   0.819620000000000   0.178280000000000 1
ion V   0.670430000000000   0.685430000000000   0.334620000000000 1
ion V   0.841270000000000   0.818900000000000   0.511080000000000 1
ion V   0.655510000000000   0.679520000000000   0.649220000000000 1
ion V   0.833860000000000   0.823140000000000   0.833310000000000 1
ion O   0.320000000000000   0.154000000000000   0.081000000000000 1

# Forces in Lattice coordinates:
force V  -0.169868727942043  -0.282084745791045  -0.143345459412521 0
force V  -2.135431653764688   0.813458533794723   1.374472361111762 1
force V  -0.098083010603655  -0.048128853910648   0.785671109200935 1
force V   0.189603244673042  -0.254732110037865  -0.606819235833903 1
force V   0.059604397636099   0.135236187731108   0.185671310683952 1
force V  -0.677484311260502  -0.557624951772691  -0.267910922655576 1
force V  -0.474523679506259   0.432533643713621   0.219829995132336 1
force V   0.193944180148966  -0.581586049827213   0.275501277690904 1
force V  -0.114373179488596  -0.012030629188031  -0.527464210409193 1
force V   0.094824556327113   0.232648375739237   0.359901761852907 1
force V  -0.030332081530702  -0.067030940656822   0.268622106141123 1
force V  -0.286174335349399   0.224422354307838  -0.009780013576094 1
force V  -0.289374716933586   0.106962839727980  -0.283391785924390 1
force V   0.114816082235246  -0.257352173919844   0.176927473331252 1
force V  -0.236780742751645  -0.158885464280319  -0.208775066851894 1
force V  -0.200989525308235   0.390129540471133  -0.196913046101912 1
force V   0.204650587743278  -0.592263465823027   0.710959912325131 1
force V   0.297846849143905  -0.058438318203563  -0.013778951548772 1
force V   0.373686237363526  -6.751742410798595  -3.935187888866629 1
force V   3.243409795229173   0.488020159343962   1.538474688731518 1
force V  -0.188617665980431  -0.609617539343140   1.196921553406197 1
force V  -0.023314909684328  -0.148805854036807  -0.530597661538777 1
force V   0.309060024585695  -0.049847079382938   0.214968524996393 1
force V   0.464286280675374  -0.539562291287090   0.014630474563352 1
force V   0.217691137316074   2.828219001516423  -0.981853154511701 1
force V   0.385608519333312  -0.188292425499220   0.130055846933016 1
force V  -0.212869396551297   0.354933325504689   0.243615914908117 1
force V   0.303364733723292  -0.462351427451349  -0.035537974965843 1
force V   0.111933133638926   0.444514030121680  -0.098107947205739 1
force V  -0.252712414237869   0.573528449777760  -0.130308326925971 1
force V  -0.342549227029634   0.089752892484957  -0.505022542560949 1
force V   0.270419079541123  -0.108189874667981   0.133787876984260 1
force V  -0.379502793183016  -0.029857341384407  -0.397268702886686 1
force V   0.103374348736290   0.881479421525130  -0.100287479517655 1
force V  -0.136524017352562  -0.380666592147961  -0.043730154577480 1
force V   0.035005344013827   0.476578216141732  -0.220187619231627 1
force V  -0.277271733290944  -0.101908092724272  -0.251922355203002 1
force V   0.102998975087490   0.230808877878152  -0.221066955978075 1
force V  -0.053487132907880  -0.603773846302070   0.298614807740455 1
force V  -0.039905417057549   0.156257020085227   0.353523818474617 1
force V   0.088760987862608  -0.194057586703801   0.002447534255902 1
force V  -0.426608030089323   0.254182764616021  -0.016713332211517 1
force V  -0.085067255383941  -0.168917851063390   0.032724341230256 1
force V   0.160312064045942  -0.396727276977205  -0.180396123296177 1
force V  -0.128476527622868   0.619152710327707   0.024991324508123 1
force V  -0.300229583917506  -0.346318068240310  -0.233743533199251 1
force V   0.421910059957351  -0.101782216280677  -0.211383198264393 1
force V  -0.059578624005669   0.214143075527385  -0.168568388118533 1
force V   0.467553999529637  -0.056157916145221   0.654748520676341 1
force V   0.204494806505095   0.295118895290760  -0.433428870379348 1
force V  -0.179994989136971  -0.441350163789346   0.084934005383857 1
force V  -0.269052102412494   0.716926372275380  -0.525250860023642 1
force V   0.286824948768890  -0.484991790880100   0.650982395439356 1
force V  -0.066670987283758   0.187953798887454   0.004222989457956 1
force O  -0.545710040030443   3.895128380083704   1.544549902658997 1

# Energy components:
   Eewald =    -2942.8698017587125833
       EH =      811.1389523595111086
     Eloc =    -2360.8088889258669951
      Enl =       86.8920871591991215
      Exc =     -530.5440167475264843
 Exc_core =       42.7102811871878814
       KE =     1006.2917344107070221
-------------------------------------
     Etot =    -3887.1896523155000978
       TS =        0.6254649072926559
-------------------------------------
        F =    -3887.8151172227926509

IonicMinimize: Iter:   0  F: -3887.815117222792651  |grad|_K:  5.217e-02  t[s]:   4428.62

#--- Lowdin population analysis ---
# oxidation-state V +0.128 +0.080 +0.110 +0.124 +0.112 +0.100 +0.149 +0.131 +0.132 +0.130 +0.114 +0.149 +0.079 +0.127 +0.114 +0.107 +0.084 +0.134 +0.140 +0.084 +0.138 +0.102 +0.137 +0.133 +0.120 +0.146 +0.142 +0.133 +0.078 +0.119 +0.096 +0.129 +0.092 +0.099 +0.108 +0.099 +0.157 +0.085 +0.148 +0.109 +0.157 +0.123 +0.140 +0.161 +0.157 +0.124 +0.124 +0.150 +0.100 +0.111 +0.072 +0.091 +0.105 +0.155
# oxidation-state O -0.132


-------- Electronic minimization -----------
Will mix electronic density at each iteration.
	FillingsUpdate:  mu: +0.636345450  nElectrons: 708.000000
	FillingsUpdate:  mu: +0.637091526  nElectrons: 708.000000
SCF: Cycle:  0   F: -3874.281900564877560   dF: +1.303e+01   |Residual|: 1.268e+00   |deigs|: 2.111e-03  t[s]:   4715.29
	FillingsUpdate:  mu: +0.639251934  nElectrons: 708.000000
SCF: Cycle:  1   F: -3750.774281282961056   dF: +1.235e+02   |Residual|: 4.502e+00   |deigs|: 5.612e-02  t[s]:   4926.27
	FillingsUpdate:  mu: +0.639838787  nElectrons: 708.000000
SCF: Cycle:  2   F: -3885.908905624597537   dF: -1.351e+02   |Residual|: 7.133e-01   |deigs|: 5.142e-02  t[s]:   5138.14
	FillingsUpdate:  mu: +0.637644145  nElectrons: 708.000000
SCF: Cycle:  3   F: -3883.081354116852708   dF: +2.828e+00   |Residual|: 1.045e+00   |deigs|: 6.942e-03  t[s]:   5349.75
	FillingsUpdate:  mu: +0.637129612  nElectrons: 708.000000
SCF: Cycle:  4   F: -3887.697873453501870   dF: -4.617e+00   |Residual|: 2.274e-01   |deigs|: 7.015e-03  t[s]:   5561.68
	FillingsUpdate:  mu: +0.636675724  nElectrons: 708.000000
SCF: Cycle:  5   F: -3887.519339575483173   dF: +1.785e-01   |Residual|: 2.722e-01   |deigs|: 1.662e-03  t[s]:   5773.24
	FillingsUpdate:  mu: +0.636404569  nElectrons: 708.000000
SCF: Cycle:  6   F: -3887.876752587570991   dF: -3.574e-01   |Residual|: 7.179e-02   |deigs|: 1.272e-03  t[s]:   5979.42
	FillingsUpdate:  mu: +0.636401331  nElectrons: 708.000000
SCF: Cycle:  7   F: -3887.856954785903326   dF: +1.980e-02   |Residual|: 9.272e-02   |deigs|: 3.402e-04  t[s]:   6187.65
	FillingsUpdate:  mu: +0.636396362  nElectrons: 708.000000
SCF: Cycle:  8   F: -3887.895238648219674   dF: -3.828e-02   |Residual|: 2.111e-02   |deigs|: 2.760e-04  t[s]:   6372.72
	FillingsUpdate:  mu: +0.636353320  nElectrons: 708.000000
SCF: Cycle:  9   F: -3887.894534366982953   dF: +7.043e-04   |Residual|: 2.253e-02   |deigs|: 1.245e-04  t[s]:   6494.85
	FillingsUpdate:  mu: +0.636294937  nElectrons: 708.000000
SCF: Cycle: 10   F: -3887.896725694048200   dF: -2.191e-03   |Residual|: 5.883e-03   |deigs|: 1.028e-04  t[s]:   6616.44
	FillingsUpdate:  mu: +0.636293394  nElectrons: 708.000000
SCF: Cycle: 11   F: -3887.896649783680914   dF: +7.591e-05   |Residual|: 7.067e-03   |deigs|: 3.722e-05  t[s]:   6738.40
	FillingsUpdate:  mu: +0.636318541  nElectrons: 708.000000
SCF: Cycle: 12   F: -3887.896845906246654   dF: -1.961e-04   |Residual|: 1.481e-03   |deigs|: 4.255e-05  t[s]:   6860.98
	FillingsUpdate:  mu: +0.636317699  nElectrons: 708.000000
SCF: Cycle: 13   F: -3887.896835862663920   dF: +1.004e-05   |Residual|: 2.079e-03   |deigs|: 1.124e-05  t[s]:   6983.73
	FillingsUpdate:  mu: +0.636315740  nElectrons: 708.000000
SCF: Cycle: 14   F: -3887.896854216635347   dF: -1.835e-05   |Residual|: 4.280e-04   |deigs|: 6.418e-06  t[s]:   7105.23
	FillingsUpdate:  mu: +0.636315568  nElectrons: 708.000000
SCF: Cycle: 15   F: -3887.896853716526948   dF: +5.001e-07   |Residual|: 5.031e-04   |deigs|: 3.076e-06  t[s]:   7226.57
	FillingsUpdate:  mu: +0.636315274  nElectrons: 708.000000
SCF: Cycle: 16   F: -3887.896854769558104   dF: -1.053e-06   |Residual|: 2.301e-04   |deigs|: 1.738e-06  t[s]:   7347.87
	FillingsUpdate:  mu: +0.636315263  nElectrons: 708.000000
SCF: Cycle: 17   F: -3887.896854930895643   dF: -1.613e-07   |Residual|: 1.162e-04   |deigs|: 8.530e-07  t[s]:   7469.28
	FillingsUpdate:  mu: +0.636315235  nElectrons: 708.000000
SCF: Cycle: 18   F: -3887.896854975428596   dF: -4.453e-08   |Residual|: 6.530e-05   |deigs|: 4.872e-07  t[s]:   7590.77
	FillingsUpdate:  mu: +0.636315304  nElectrons: 708.000000
SCF: Cycle: 19   F: -3887.896854969766991   dF: +5.662e-09   |Residual|: 6.911e-05   |deigs|: 3.249e-07  t[s]:   7712.38
	FillingsUpdate:  mu: +0.636315333  nElectrons: 708.000000
SCF: Cycle: 20   F: -3887.896854989798157   dF: -2.003e-08   |Residual|: 2.008e-05   |deigs|: 2.375e-07  t[s]:   7833.78
	FillingsUpdate:  mu: +0.636315353  nElectrons: 708.000000
SCF: Cycle: 21   F: -3887.896854990312022   dF: -5.139e-10   |Residual|: 1.588e-05   |deigs|: 1.384e-07  t[s]:   7954.61
	FillingsUpdate:  mu: +0.636315345  nElectrons: 708.000000
SCF: Cycle: 22   F: -3887.896854991945929   dF: -1.634e-09   |Residual|: 1.026e-05   |deigs|: 6.470e-08  t[s]:   8052.85
SCF: Converged (|Delta E|<1.000000e-08 for 2 iters).

Setting wave functions to eigenvectors of Hamiltonian

# Ionic positions in lattice coordinates:
ion V   0.000000000000000   0.000000000000000   0.000000000000000 0
ion V   0.156868675831243   0.139927617510164   0.174613566650532 1
ion V  -0.004394469419499  -0.011346541780170   0.307506519938157 1
ion V   0.153913956058027   0.171116594921530   0.517869273152859 1
ion V  -0.004134745425694  -0.008967322071033   0.658210970741408 1
ion V   0.177115620770928   0.176076623859716   0.825196588922333 1
ion V   0.019329718410620   0.315378400700213  -0.006413094314446 1
ion V   0.161157251908583   0.518178431421987   0.159859174046501 1
ion V  -0.000946837712570   0.334380865757828   0.352699523369908 1
ion V   0.171181995441621   0.488026638027138   0.485963255022628 1
ion V  -0.000083029600029   0.337159106830954   0.661263951042957 1
ion V   0.178102722446040   0.495070392429281   0.830362574535292 1
ion V   0.005590292559790   0.658501211420138   0.008194835093675 1
ion V   0.162717173986000   0.833664605640868   0.160414331992374 1
ion V   0.013820224477687   0.672949366383444   0.340081487756762 1
ion V   0.179327398920741   0.824536205430783   0.500090493983160 1
ion V   0.001665380736945   0.678860324605464   0.646179795542900 1
ion V   0.149926139897408   0.830395630770239   0.833009538345970 1
ion V   0.324693720870720   0.000733746892087   0.011712212860304 1
ion V   0.479242555371845   0.163820528777069   0.175018085240033 1
ion V   0.337176792241527   0.005097148543952   0.315408761392209 1
ion V   0.500032298180091   0.170737019316597   0.525057144300534 1
ion V   0.318514653488710  -0.003387846340998   0.664213214619622 1
ion V   0.493952508855413   0.179230337915114   0.832691108171956 1
ion V   0.319435281760075   0.316997322211700  -0.006255470943438 1
ion V   0.487382772850384   0.500037039180010   0.167658744760830 1
ion V   0.337738379141375   0.325319482742715   0.337864965119365 1
ion V   0.491010329345295   0.511488960179800   0.504853017831023 1
ion V   0.330164985110403   0.323437496795609   0.669665511647413 1
ion V   0.508738128373378   0.474055450853908   0.841871063544009 1
ion V   0.342879919870630   0.660818144786346   0.017386562181900 1
ion V   0.495385315393064   0.839157856954914   0.162821578300602 1
ion V   0.347341862915578   0.665057330845913   0.343638374167890 1
ion V   0.493638486862242   0.813389262295452   0.503293856839867 1
ion V   0.333906344287789   0.674010979302475   0.676736797927531 1
ion V   0.495436577769504   0.818231841494094   0.843362822788736 1
ion V   0.674779481737004  -0.000037373608954   0.008488728224844 1
ion V   0.832128201860206   0.160995241390380   0.172452155153264 1
ion V   0.664199389952309   0.019751585361561   0.326926722969141 1
ion V   0.833959701855348   0.156178637973150   0.491738412576031 1
ion V   0.661187391683836   0.005552661987613   0.674561858287731 1
ion V   0.850786098315509   0.153252987988553   0.836167310420632 1
ion V   0.675905412778545   0.335521749304652   0.010644845920613 1
ion V   0.824731716760882   0.517608785244925   0.178913034438899 1
ion V   0.672462454335644   0.315820091024283   0.342448974636047 1
ion V   0.843022051013797   0.513167058382025   0.509392530475748 1
ion V   0.659230334755760   0.337522721962600   0.677429507535813 1
ion V   0.840774764994295   0.486122587898008   0.839662014634014 1
ion V   0.649024989867411   0.661547362163030  -0.025132882895288 1
ion V   0.821165262460209   0.819844068701402   0.177950919599911 1
ion V   0.670293338999575   0.685094905366475   0.334684486051537 1
ion V   0.841065722482840   0.819444325571151   0.510681203853790 1
ion V   0.655727771531494   0.679151770508405   0.649714257678208 1
ion V   0.833809380125162   0.823282703718102   0.833313206300169 1
ion O   0.319585670243543   0.156957372001069   0.082172697839623 1

# Forces in Lattice coordinates:
force V  -0.177836708934472  -0.275252570081222  -0.139626044887737 0
force V  -1.839978780216235   0.699846231798741   1.142477921676279 1
force V  -0.109037461893664  -0.050339614471330   0.784027234817552 1
force V   0.185392714092434  -0.247409072273564  -0.594493113860038 1
force V   0.057762411831013   0.134404580574381   0.180835047430223 1
force V  -0.641058904574951  -0.541635993175737  -0.230897853741332 1
force V  -0.470016222055309   0.421729905292466   0.213498973669808 1
force V   0.185437014537221  -0.566809748744336   0.268884492231301 1
force V  -0.113772156043555  -0.007155722786503  -0.511199149085726 1
force V   0.092389835436611   0.226322305381287   0.352769418515596 1
force V  -0.027751038469922  -0.069586724652334   0.258206656306873 1
force V  -0.294856794836567   0.226379269697394  -0.019174405943625 1
force V  -0.284376756402181   0.102059994529191  -0.274485072325050 1
force V   0.125917965092037  -0.227376869518575   0.160894555714679 1
force V  -0.237601861617537  -0.158224216591945  -0.197051173896677 1
force V  -0.198646220266288   0.374474711163596  -0.187190404411099 1
force V   0.192784697698895  -0.570765606697100   0.685465874178862 1
force V   0.296527245787297  -0.064436698829328  -0.013807905793183 1
force V   0.307830015728322  -4.462248441756948  -2.745203386168543 1
force V   2.808979083594513   0.340472147554338   1.223915134862055 1
force V  -0.182429891905180  -0.567303808433549   1.104499914449968 1
force V  -0.020402873480393  -0.144394781616435  -0.519985286444383 1
force V   0.304222444858625  -0.048680797633646   0.207638697459003 1
force V   0.440280592639817  -0.530496705220552   0.022009718513668 1
force V   0.221856207346677   2.651779652614391  -0.927995491418371 1
force V   0.379309322080782  -0.180060407715854   0.127440233808130 1
force V  -0.208862220047501   0.353540806768653   0.243071766366358 1
force V   0.295161590703604  -0.444198903958401  -0.036570650680347 1
force V   0.110317778468896   0.428018820425200  -0.090895208665827 1
force V  -0.234350716495770   0.565788912489824  -0.137977387059331 1
force V  -0.330775928918215   0.087833280073562  -0.498558259604716 1
force V   0.248183519692323  -0.096398152742261   0.119265748604086 1
force V  -0.367795743817532  -0.027968774958977  -0.385641809853564 1
force V   0.101340658476180   0.850276568209867  -0.095342566340461 1
force V  -0.126275452121768  -0.370172533813882  -0.053472433670157 1
force V   0.040265804132510   0.459061671478784  -0.224240501468635 1
force V  -0.267493721464166  -0.096817145038354  -0.243602097336611 1
force V   0.093715013307273   0.226554637143417  -0.208626091969759 1
force V  -0.040692445644436  -0.597505692829055   0.303948017175909 1
force V  -0.041022573235574   0.157237324313710   0.344360488296474 1
force V   0.086033123729173  -0.188997237814884  -0.000379813421607 1
force V  -0.419192472486037   0.251104229569991  -0.014538036153844 1
force V  -0.086334341011418  -0.165948558526487   0.028717279110987 1
force V   0.158890806326499  -0.389871131922199  -0.178954239215289 1
force V  -0.121963220099285   0.610466628209021   0.027622170595422 1
force V  -0.292269385925191  -0.333870151636593  -0.227466566949750 1
force V   0.407683990509540  -0.104202130572488  -0.202490597138398 1
force V  -0.061036555680989   0.214122595256462  -0.165126161457590 1
force V   0.458336239776483  -0.054656059369502   0.645007432256432 1
force V   0.200798630543536   0.286147337400619  -0.426231747052060 1
force V  -0.174234205691038  -0.433253547380937   0.086260249441257 1
force V  -0.260773779779677   0.689302487717665  -0.505831720164140 1
force V   0.280176987996155  -0.471259328812838   0.629932023064412 1
force V  -0.065207835078916   0.183910176480312   0.001685636344030 1
force O  -0.362275312080177   1.947039746169821   0.893885090883067 1

# Energy components:
   Eewald =    -2946.6784033855460621
       EH =      807.5622705239605921
     Eloc =    -2353.2165286329263836
      Enl =       86.8244023008141994
      Exc =     -530.4483649435053394
 Exc_core =       42.7102779943533335
       KE =     1005.9761993557933693
-------------------------------------
     Etot =    -3887.2701467870556371
       TS =        0.6267082048904369
-------------------------------------
        F =    -3887.8968549919459292

IonicMinimize: Iter:   1  F: -3887.896854991945929  |grad|_K:  3.919e-02  alpha:  2.152e-01  linmin: -9.794e-01  t[s]:   8088.86

#--- Lowdin population analysis ---
# oxidation-state V +0.129 +0.097 +0.107 +0.125 +0.112 +0.103 +0.148 +0.130 +0.131 +0.130 +0.114 +0.146 +0.080 +0.127 +0.114 +0.107 +0.086 +0.132 +0.157 +0.103 +0.141 +0.103 +0.138 +0.135 +0.133 +0.145 +0.141 +0.134 +0.080 +0.118 +0.100 +0.128 +0.093 +0.101 +0.109 +0.098 +0.157 +0.087 +0.146 +0.110 +0.157 +0.124 +0.139 +0.160 +0.157 +0.124 +0.124 +0.149 +0.100 +0.111 +0.073 +0.092 +0.106 +0.154
# oxidation-state O -0.208


-------- Electronic minimization -----------
Will mix electronic density at each iteration.
	FillingsUpdate:  mu: +0.636315345  nElectrons: 708.000000
	FillingsUpdate:  mu: +0.637559994  nElectrons: 708.000000
SCF: Cycle:  0   F: -3859.072509819498464   dF: +2.776e+01   |Residual|: 1.824e+00   |deigs|: 3.948e-03  t[s]:   8371.26
	FillingsUpdate:  mu: +0.640027278  nElectrons: 708.000000
SCF: Cycle:  1   F: -3653.714362387849633   dF: +2.054e+02   |Residual|: 5.917e+00   |deigs|: 7.792e-02  t[s]:   8577.76
	FillingsUpdate:  mu: +0.642757236  nElectrons: 708.000000
SCF: Cycle:  2   F: -3881.936003628634808   dF: -2.282e+02   |Residual|: 1.277e+00   |deigs|: 7.275e-02  t[s]:   8784.54
	FillingsUpdate:  mu: +0.640036876  nElectrons: 708.000000
SCF: Cycle:  3   F: -3880.761483738850984   dF: +1.175e+00   |Residual|: 1.315e+00   |deigs|: 8.913e-03  t[s]:   8991.26
	FillingsUpdate:  mu: +0.638178292  nElectrons: 708.000000
SCF: Cycle:  4   F: -3887.479524940286865   dF: -6.718e+00   |Residual|: 3.631e-01   |deigs|: 9.804e-03  t[s]:   9197.96
	FillingsUpdate:  mu: +0.636931953  nElectrons: 708.000000
SCF: Cycle:  5   F: -3887.249610020834552   dF: +2.299e-01   |Residual|: 4.035e-01   |deigs|: 2.863e-03  t[s]:   9404.61
	FillingsUpdate:  mu: +0.636205965  nElectrons: 708.000000
SCF: Cycle:  6   F: -3887.930729318944032   dF: -6.811e-01   |Residual|: 1.167e-01   |deigs|: 2.355e-03  t[s]:   9611.84
	FillingsUpdate:  mu: +0.636373384  nElectrons: 708.000000
SCF: Cycle:  7   F: -3887.894431724906553   dF: +3.630e-02   |Residual|: 1.366e-01   |deigs|: 4.461e-04  t[s]:   9797.95
	FillingsUpdate:  mu: +0.636425767  nElectrons: 708.000000
SCF: Cycle:  8   F: -3887.978131311079778   dF: -8.370e-02   |Residual|: 2.735e-02   |deigs|: 3.646e-04  t[s]:   9985.95
	FillingsUpdate:  mu: +0.636301789  nElectrons: 708.000000
SCF: Cycle:  9   F: -3887.969098740876689   dF: +9.033e-03   |Residual|: 4.673e-02   |deigs|: 2.342e-04  t[s]:  10119.05
	FillingsUpdate:  mu: +0.636227465  nElectrons: 708.000000
SCF: Cycle: 10   F: -3887.980217969530258   dF: -1.112e-02   |Residual|: 6.757e-03   |deigs|: 1.603e-04  t[s]:  10240.84
	FillingsUpdate:  mu: +0.636224280  nElectrons: 708.000000
SCF: Cycle: 11   F: -3887.979576312301106   dF: +6.417e-04   |Residual|: 1.321e-02   |deigs|: 5.879e-05  t[s]:  10362.88
	FillingsUpdate:  mu: +0.636248808  nElectrons: 708.000000
SCF: Cycle: 12   F: -3887.980360297523021   dF: -7.840e-04   |Residual|: 2.028e-03   |deigs|: 5.347e-05  t[s]:  10487.36
	FillingsUpdate:  mu: +0.636248421  nElectrons: 708.000000
SCF: Cycle: 13   F: -3887.980343106739838   dF: +1.719e-05   |Residual|: 2.796e-03   |deigs|: 1.406e-05  t[s]:  10611.37
	FillingsUpdate:  mu: +0.636247762  nElectrons: 708.000000
SCF: Cycle: 14   F: -3887.980374671627033   dF: -3.156e-05   |Residual|: 6.427e-04   |deigs|: 8.677e-06  t[s]:  10734.97
	FillingsUpdate:  mu: +0.636247161  nElectrons: 708.000000
SCF: Cycle: 15   F: -3887.980372739955783   dF: +1.932e-06   |Residual|: 9.081e-04   |deigs|: 5.481e-06  t[s]:  10858.62
	FillingsUpdate:  mu: +0.636246949  nElectrons: 708.000000
SCF: Cycle: 16   F: -3887.980376352900294   dF: -3.613e-06   |Residual|: 2.434e-04   |deigs|: 2.959e-06  t[s]:  10982.78
	FillingsUpdate:  mu: +0.636246942  nElectrons: 708.000000
SCF: Cycle: 17   F: -3887.980376273142610   dF: +7.976e-08   |Residual|: 2.784e-04   |deigs|: 1.086e-06  t[s]:  11107.28
	FillingsUpdate:  mu: +0.636246914  nElectrons: 708.000000
SCF: Cycle: 18   F: -3887.980376585978775   dF: -3.128e-07   |Residual|: 9.590e-05   |deigs|: 9.359e-07  t[s]:  11233.06
	FillingsUpdate:  mu: +0.636246977  nElectrons: 708.000000
SCF: Cycle: 19   F: -3887.980376618655100   dF: -3.268e-08   |Residual|: 5.036e-05   |deigs|: 5.647e-07  t[s]:  11357.07
	FillingsUpdate:  mu: +0.636247015  nElectrons: 708.000000
SCF: Cycle: 20   F: -3887.980376622430413   dF: -3.775e-09   |Residual|: 4.063e-05   |deigs|: 1.909e-07  t[s]:  11481.42
	FillingsUpdate:  mu: +0.636247021  nElectrons: 708.000000
SCF: Cycle: 21   F: -3887.980376629781404   dF: -7.351e-09   |Residual|: 1.114e-05   |deigs|: 1.602e-07  t[s]:  11604.76
SCF: Converged (|Delta E|<1.000000e-08 for 2 iters).

Setting wave functions to eigenvectors of Hamiltonian

# Ionic positions in lattice coordinates:
ion V   0.000000000000000   0.000000000000000   0.000000000000000 0
ion V   0.154119722141949   0.140971837696437   0.176267005661559 1
ion V  -0.004588707123542  -0.011433082256539   0.308814651711271 1
ion V   0.154219072283650   0.170711289132483   0.516889572086513 1
ion V  -0.004040264610460  -0.008743676318241   0.658507783229796 1
ion V   0.176084648533568   0.175189268036385   0.824851554835208 1
ion V   0.018549384184468   0.316071127425659  -0.006063352947037 1
ion V   0.161457712095343   0.517247680664896   0.160301138154632 1
ion V  -0.001136264949727   0.334374276738251   0.351863324944075 1
ion V   0.171333678733290   0.488397809884013   0.486544805299439 1
ion V  -0.000126554233384   0.337040028731161   0.661683892923516 1
ion V   0.177600521640042   0.495450777988090   0.830320196166685 1
ion V   0.005120662075734   0.658666334380279   0.007746034539768 1
ion V   0.162939777696599   0.833317706669121   0.160665502082972 1
ion V   0.013422338742357   0.672685735579650   0.339765164011631 1
ion V   0.178998083346116   0.825144638413181   0.499788442344187 1
ion V   0.001974419793807   0.677930364048595   0.647296996372444 1
ion V   0.150420120654228   0.830281367393395   0.832986436419791 1
ion V   0.325135539424228  -0.004201268634461   0.008435589816756 1
ion V   0.483457503745696   0.164226952938262   0.176716694561342 1
ion V   0.336878802953470   0.004195887569902   0.317152399412526 1
ion V   0.500001415137403   0.170500622620610   0.524200043224840 1
ion V   0.319017618423856  -0.003467897590610   0.664552065161475 1
ion V   0.494661696115479   0.178353971691104   0.832736005314930 1
ion V   0.319810541151968   0.321233640108835  -0.007746661995163 1
ion V   0.488009582807049   0.499745259247709   0.167868790616356 1
ion V   0.337393826534123   0.325908640669798   0.338270486905283 1
ion V   0.491494450472729   0.510766782662449   0.504790779265528 1
ion V   0.330347524171189   0.324134465355475   0.669521585553942 1
ion V   0.508366792476016   0.474992242605365   0.841632090230521 1
ion V   0.342340225109363   0.660962782120315   0.016560694547349 1
ion V   0.495775498304312   0.839009777506793   0.163004858765794 1
ion V   0.346740243046360   0.665012680091766   0.343006849105141 1
ion V   0.493805566545165   0.814775541783238   0.503140003574072 1
ion V   0.333706647454209   0.673404052975834   0.676636731925956 1
ion V   0.495509644403972   0.818979551643299   0.842983703257048 1
ion V   0.674343321421853  -0.000193529814064   0.008090880889042 1
ion V   0.832274559086283   0.161369082247980   0.172117281495896 1
ion V   0.664145486940432   0.018760181859134   0.327440426155624 1
ion V   0.833889932079047   0.156442427033906   0.492303677471322 1
ion V   0.661328131558763   0.005242458918592   0.674558111146296 1
ion V   0.850093881135001   0.153669140257760   0.836145415205783 1
ion V   0.675759771696271   0.335247753648443   0.010688415067148 1
ion V   0.824995624617686   0.516964941897246   0.178615627592877 1
ion V   0.672265850268053   0.316830487636180   0.342498021594021 1
ion V   0.842542494688719   0.512622936507979   0.509019392745581 1
ion V   0.659895826211467   0.337345958513956   0.677100978783626 1
ion V   0.840671180991822   0.486480318316530   0.839389913668105 1
ion V   0.649780623895384   0.661457696957656  -0.024065937432209 1
ion V   0.821496684910161   0.820312283015310   0.177246700831602 1
ion V   0.670008572883594   0.684379944903652   0.334830068468676 1
ion V   0.840639138780582   0.820565591866294   0.509857445495549 1
ion V   0.656188568659674   0.678379514888496   0.650743565262649 1
ion V   0.833702042555223   0.823585526686053   0.833313229330198 1
ion O   0.319182324433682   0.158065857256260   0.082949888025075 1

# Forces in Lattice coordinates:
force V  -0.186336156021835  -0.265608600676615  -0.132511162367787 0
force V  -1.433578988131466   0.629367557415497   0.840446252429256 1
force V  -0.114891620562637  -0.049628377319792   0.766015810478738 1
force V   0.177939639973351  -0.232267601039336  -0.567206667533243 1
force V   0.053602458471788   0.129467175182166   0.172273640090556 1
force V  -0.576534778671001  -0.500364236483162  -0.177074287205537 1
force V  -0.460196001314956   0.398111432917637   0.202759346002302 1
force V   0.171592827010169  -0.537817951929602   0.253416919698950 1
force V  -0.112118962080397   0.001235701967623  -0.478257139957242 1
force V   0.082533861727456   0.216858006687789   0.338619193089285 1
force V  -0.023219673457561  -0.075487537877512   0.235561821527131 1
force V  -0.298430562090981   0.221895300296660  -0.026223155615285 1
force V  -0.271109567558948   0.095163020674629  -0.255809557179789 1
force V   0.126056059176526  -0.200775854200436   0.144356112557399 1
force V  -0.235947298600139  -0.154832417922610  -0.178681559092651 1
force V  -0.193912000779487   0.342321231851245  -0.167584148991266 1
force V   0.168829802780583  -0.527536086429974   0.633615887983084 1
force V   0.282572921367984  -0.070639891284265  -0.017171116867315 1
force V   0.254281473369494  -3.025468301833291  -1.941551538820076 1
force V   2.189165941497638   0.254693218585324   0.814267769622799 1
force V  -0.169473497034046  -0.492963443706356   0.971603698377613 1
force V  -0.016125065214990  -0.136473557008286  -0.496676199073471 1
force V   0.294851407681367  -0.044829123104986   0.193718637903938 1
force V   0.400938108585005  -0.501171627511262   0.027379492501499 1
force V   0.234224152054270   2.093883140733515  -0.613785477695777 1
force V   0.361743158267727  -0.160993771965664   0.119226574093713 1
force V  -0.195897267780190   0.329548531960459   0.216929039541075 1
force V   0.280054067274714  -0.406533271837946  -0.036353749660630 1
force V   0.105777290994814   0.390924403151332  -0.078903370722425 1
force V  -0.210973671146881   0.546372577306981  -0.146583173886339 1
force V  -0.307801211093059   0.079806568856231  -0.476715703693045 1
force V   0.220434324262960  -0.095515244214458   0.106497354217537 1
force V  -0.344406911346740  -0.023791245804602  -0.362750265731100 1
force V   0.097499829072831   0.787909985489955  -0.086681236628401 1
force V  -0.105677036629159  -0.344245150118246  -0.069130997964740 1
force V   0.053162234960389   0.421779139327674  -0.227838346672811 1
force V  -0.250011874773421  -0.088427773132214  -0.227883775453372 1
force V   0.075191042565964   0.211301815928734  -0.184916995797323 1
force V  -0.023195042897977  -0.580261344769911   0.304841907226291 1
force V  -0.042652991411521   0.158346153056689   0.324663227829099 1
force V   0.081619110038814  -0.180616515235942  -0.005413303584427 1
force V  -0.402381575788535   0.242790340611029  -0.010263160542767 1
force V  -0.086545568145009  -0.157675851488215   0.018990898650560 1
force V   0.156562811382713  -0.376364747205726  -0.175738440075551 1
force V  -0.111248336096261   0.587132001367868   0.029848575352563 1
force V  -0.274858773342797  -0.309166685239159  -0.214233007768387 1
force V   0.379446291814949  -0.108527008575948  -0.185512068794239 1
force V  -0.063309554433084   0.211563858994235  -0.156630578690286 1
force V   0.436860561500425  -0.047786619119872   0.622531138716864 1
force V   0.192401783858231   0.269215614487678  -0.409767014507890 1
force V  -0.163195591435432  -0.414504224039895   0.085516226064330 1
force V  -0.245033745440880   0.633558583465276  -0.465990829865130 1
force V   0.266789608339300  -0.441878317235333   0.586975525004829 1
force V  -0.060997516809248   0.175223904927675  -0.002862051654210 1
force O  -0.140745308708167   1.131923668546038   0.553136995720233 1

# Energy components:
   Eewald =    -2951.9710500367564237
       EH =      802.5164150825419256
     Eloc =    -2342.6048907391373177
      Enl =       86.7439712479559404
      Exc =     -530.3240307639849789
 Exc_core =       42.7102799033280434
       KE =     1005.5780112909477566
-------------------------------------
     Etot =    -3887.3512940151049406
       TS =        0.6290826146764663
-------------------------------------
        F =    -3887.9803766297814036

IonicMinimize: Iter:   2  F: -3887.980376629781404  |grad|_K:  3.017e-02  alpha:  3.341e-01  linmin: -9.917e-01  t[s]:  11641.06

#--- Lowdin population analysis ---
# oxidation-state V +0.130 +0.115 +0.104 +0.128 +0.112 +0.107 +0.147 +0.130 +0.129 +0.129 +0.114 +0.141 +0.082 +0.126 +0.113 +0.108 +0.090 +0.130 +0.173 +0.123 +0.144 +0.107 +0.139 +0.137 +0.150 +0.144 +0.141 +0.134 +0.085 +0.117 +0.107 +0.128 +0.096 +0.104 +0.111 +0.097 +0.155 +0.092 +0.144 +0.111 +0.155 +0.124 +0.138 +0.158 +0.155 +0.123 +0.125 +0.147 +0.101 +0.112 +0.075 +0.096 +0.107 +0.152
# oxidation-state O -0.286


-------- Electronic minimization -----------
Will mix electronic density at each iteration.
	FillingsUpdate:  mu: +0.636247021  nElectrons: 708.000000
	FillingsUpdate:  mu: +0.638536052  nElectrons: 708.000000
SCF: Cycle:  0   F: -3839.117391201188184   dF: +4.687e+01   |Residual|: 2.388e+00   |deigs|: 6.039e-03  t[s]:  11930.91
	FillingsUpdate:  mu: +0.637403240  nElectrons: 708.000000
SCF: Cycle:  1   F: -3576.962792809578332   dF: +2.622e+02   |Residual|: 6.894e+00   |deigs|: 9.661e-02  t[s]:  12139.51
	FillingsUpdate:  mu: +0.645582828  nElectrons: 708.000000
SCF: Cycle:  2   F: -3875.678432177406648   dF: -2.987e+02   |Residual|: 1.848e+00   |deigs|: 9.061e-02  t[s]:  12347.23
	FillingsUpdate:  mu: +0.643294602  nElectrons: 708.000000
SCF: Cycle:  3   F: -3881.044647651079686   dF: -5.366e+00   |Residual|: 1.293e+00   |deigs|: 1.294e-02  t[s]:  12555.23
	FillingsUpdate:  mu: +0.638904280  nElectrons: 708.000000
SCF: Cycle:  4   F: -3886.894016201960312   dF: -5.849e+00   |Residual|: 5.304e-01   |deigs|: 1.143e-02  t[s]:  12765.02
	FillingsUpdate:  mu: +0.636919635  nElectrons: 708.000000
SCF: Cycle:  5   F: -3886.699320838774838   dF: +1.947e-01   |Residual|: 5.427e-01   |deigs|: 3.345e-03  t[s]:  12972.71
	FillingsUpdate:  mu: +0.635845125  nElectrons: 708.000000
SCF: Cycle:  6   F: -3887.961056859016480   dF: -1.262e+00   |Residual|: 1.434e-01   |deigs|: 3.647e-03  t[s]:  13180.28
	FillingsUpdate:  mu: +0.636337588  nElectrons: 708.000000
SCF: Cycle:  7   F: -3887.961601389766656   dF: -5.445e-04   |Residual|: 1.532e-01   |deigs|: 7.784e-04  t[s]:  13379.35
	FillingsUpdate:  mu: +0.636426912  nElectrons: 708.000000
SCF: Cycle:  8   F: -3888.057258063543941   dF: -9.566e-02   |Residual|: 4.758e-02   |deigs|: 4.053e-04  t[s]:  13564.53
	FillingsUpdate:  mu: +0.636132749  nElectrons: 708.000000
SCF: Cycle:  9   F: -3888.052808479233136   dF: +4.450e-03   |Residual|: 5.137e-02   |deigs|: 4.466e-04  t[s]:  13730.14
	FillingsUpdate:  mu: +0.636070226  nElectrons: 708.000000
SCF: Cycle: 10   F: -3888.064867634469920   dF: -1.206e-02   |Residual|: 1.010e-02   |deigs|: 1.511e-04  t[s]:  13853.10
	FillingsUpdate:  mu: +0.636089766  nElectrons: 708.000000
SCF: Cycle: 11   F: -3888.064186030867859   dF: +6.816e-04   |Residual|: 1.597e-02   |deigs|: 6.092e-05  t[s]:  13975.67
	FillingsUpdate:  mu: +0.636096693  nElectrons: 708.000000
SCF: Cycle: 12   F: -3888.065238036769642   dF: -1.052e-03   |Residual|: 2.260e-03   |deigs|: 4.265e-05  t[s]:  14098.36
	FillingsUpdate:  mu: +0.636099389  nElectrons: 708.000000
SCF: Cycle: 13   F: -3888.065190971601623   dF: +4.707e-05   |Residual|: 3.754e-03   |deigs|: 1.194e-05  t[s]:  14221.43
	FillingsUpdate:  mu: +0.636099213  nElectrons: 708.000000
SCF: Cycle: 14   F: -3888.065256091671927   dF: -6.512e-05   |Residual|: 6.243e-04   |deigs|: 1.030e-05  t[s]:  14344.42
	FillingsUpdate:  mu: +0.636097460  nElectrons: 708.000000
SCF: Cycle: 15   F: -3888.065253769597803   dF: +2.322e-06   |Residual|: 9.297e-04   |deigs|: 4.588e-06  t[s]:  14467.44
	FillingsUpdate:  mu: +0.636097302  nElectrons: 708.000000
SCF: Cycle: 16   F: -3888.065256914314432   dF: -3.145e-06   |Residual|: 3.393e-04   |deigs|: 2.558e-06  t[s]:  14590.55
	FillingsUpdate:  mu: +0.636097294  nElectrons: 708.000000
SCF: Cycle: 17   F: -3888.065256747712738   dF: +1.666e-07   |Residual|: 4.051e-04   |deigs|: 2.087e-06  t[s]:  14713.17
	FillingsUpdate:  mu: +0.636097361  nElectrons: 708.000000
SCF: Cycle: 18   F: -3888.065257304705938   dF: -5.570e-07   |Residual|: 2.220e-04   |deigs|: 1.222e-06  t[s]:  14834.92
	FillingsUpdate:  mu: +0.636097351  nElectrons: 708.000000
SCF: Cycle: 19   F: -3888.065257487067811   dF: -1.824e-07   |Residual|: 9.913e-05   |deigs|: 6.297e-07  t[s]:  14956.98
	FillingsUpdate:  mu: +0.636097412  nElectrons: 708.000000
SCF: Cycle: 20   F: -3888.065257485044185   dF: +2.024e-09   |Residual|: 9.162e-05   |deigs|: 3.078e-07  t[s]:  15078.57
	FillingsUpdate:  mu: +0.636097433  nElectrons: 708.000000
SCF: Cycle: 21   F: -3888.065257508062587   dF: -2.302e-08   |Residual|: 6.692e-05   |deigs|: 3.425e-07  t[s]:  15200.39
	FillingsUpdate:  mu: +0.636097428  nElectrons: 708.000000
SCF: Cycle: 22   F: -3888.065257525469406   dF: -1.741e-08   |Residual|: 2.300e-05   |deigs|: 2.384e-07  t[s]:  15321.92
	FillingsUpdate:  mu: +0.636097417  nElectrons: 708.000000
SCF: Cycle: 23   F: -3888.065257522956017   dF: +2.513e-09   |Residual|: 3.502e-05   |deigs|: 1.335e-07  t[s]:  15444.00
	FillingsUpdate:  mu: +0.636097407  nElectrons: 708.000000
SCF: Cycle: 24   F: -3888.065257527771792   dF: -4.816e-09   |Residual|: 6.094e-06   |deigs|: 1.036e-07  t[s]:  15564.69
	FillingsUpdate:  mu: +0.636097410  nElectrons: 708.000000
SCF: Cycle: 25   F: -3888.065257527350695   dF: +4.211e-10   |Residual|: 1.010e-05   |deigs|: 3.407e-08  t[s]:  15653.70
	FillingsUpdate:  mu: +0.636097415  nElectrons: 708.000000
SCF: Cycle: 26   F: -3888.065257528210623   dF: -8.599e-10   |Residual|: 2.365e-06   |deigs|: 2.700e-08  t[s]:  15729.40
	FillingsUpdate:  mu: +0.636097415  nElectrons: 708.000000
SCF: Cycle: 27   F: -3888.065257528034635   dF: +1.760e-10   |Residual|: 2.451e-06   |deigs|: 8.742e-09  t[s]:  15803.45
	FillingsUpdate:  mu: +0.636097416  nElectrons: 708.000000
SCF: Cycle: 28   F: -3888.065257528528036   dF: -4.934e-10   |Residual|: 1.292e-06   |deigs|: 7.325e-09  t[s]:  15876.95
SCF: Converged (|deigs|<1.000000e-08 for 2 iters).

Setting wave functions to eigenvectors of Hamiltonian

# Ionic positions in lattice coordinates:
ion V   0.000000000000000   0.000000000000000   0.000000000000000 0
ion V   0.150708828501559   0.142757070334661   0.178068318221051 1
ion V  -0.004981119050679  -0.011592778522986   0.311240871677825 1
ion V   0.154772028980382   0.170004523147910   0.515135424629635 1
ion V  -0.003878962923963  -0.008338815575551   0.659039223510257 1
ion V   0.174410316721224   0.173689164399033   0.824439898397960 1
ion V   0.017091234983088   0.317289566901892  -0.005439946929596 1
ion V   0.161971212526846   0.515594244551667   0.161075764431114 1
ion V  -0.001493711802127   0.334402722143009   0.350413273569099 1
ion V   0.171573367291053   0.489070037658780   0.487597672888958 1
ion V  -0.000188359799082   0.336779566271740   0.662380157377334 1
ion V   0.176622609545594   0.496156882775995   0.830211928919160 1
ion V   0.004282293927227   0.658953023388374   0.006973275657049 1
ion V   0.163353576310077   0.832755220133477   0.161079772737325 1
ion V   0.012664207847123   0.672194878169118   0.339242298453399 1
ion V   0.178385459343787   0.826158106443770   0.499303454439460 1
ion V   0.002450977067300   0.676350733043703   0.649194642524702 1
ion V   0.151295846610980   0.830033801098869   0.832922291312666 1
ion V   0.325780655695350  -0.008948254782726   0.004923355776161 1
ion V   0.488677799847492   0.164743296210610   0.178108330853172 1
ion V   0.336368522889780   0.002820141118751   0.319893894492924 1
ion V   0.499962055550549   0.170082892870339   0.522662406811813 1
ion V   0.319942800859176  -0.003602051839964   0.665137495565650 1
ion V   0.495841102707461   0.176816454447651   0.832842516296525 1
ion V   0.320601214420274   0.326454236307832  -0.008886943718042 1
ion V   0.489128786703826   0.499279304354726   0.168231102653213 1
ion V   0.336796987319054   0.326910116514500   0.338903226168633 1
ion V   0.492355112101004   0.509561618242635   0.504673350998424 1
ion V   0.330676458769175   0.325291651243913   0.669301877289739 1
ion V   0.507756383381719   0.476702056049248   0.841132125574133 1
ion V   0.341412314157695   0.661198680036323   0.015081347765571 1
ion V   0.496402950038413   0.838710389034584   0.163307471378629 1
ion V   0.345695154335389   0.664947717878937   0.341901196099015 1
ion V   0.494109336463941   0.817141021351380   0.502885281399593 1
ion V   0.333424434506153   0.672365340644001   0.676367487341473 1
ion V   0.495717619579241   0.820235302492284   0.842236347368231 1
ion V   0.673586704833211  -0.000454509868513   0.007400332776969 1
ion V   0.832464233004139   0.162009620449048   0.171588470940843 1
ion V   0.664123087974299   0.016934483476637   0.328430202337404 1
ion V   0.833747346460217   0.156957188248968   0.493295996829609 1
ion V   0.661578741010656   0.004683740015811   0.674526016894468 1
ion V   0.848842138635372   0.154429943928894   0.836124554264016 1
ion V   0.675479022870564   0.334761635484407   0.010722339715735 1
ion V   0.825494378457718   0.515788364976073   0.178057254047409 1
ion V   0.671937995513047   0.318661267648268   0.342601666328357 1
ion V   0.841704413543786   0.511695464799450   0.508365340257812 1
ion V   0.661040105382415   0.336982948731111   0.676550839621137 1
ion V   0.840460036532671   0.487156892650429   0.838908017767999 1
ion V   0.651130634048604   0.661321972539287  -0.022119236460706 1
ion V   0.822094203278692   0.821132795873823   0.175970090247425 1
ion V   0.669513371415071   0.683094449007491   0.335105062223134 1
ion V   0.839893241354455   0.822451780961354   0.508466619763538 1
ion V   0.657011728597445   0.677036294952606   0.652516101698680 1
ion V   0.833516772836375   0.824126627199934   0.833290793899201 1
ion O   0.319404874181973   0.158498512381231   0.083482983467548 1

# Forces in Lattice coordinates:
force V  -0.191494131872589  -0.251869624889413  -0.119168738830717 0
force V  -0.979910122509460   0.564650007439074   0.520524438026901 1
force V  -0.106968562154041  -0.038476336718498   0.712029330995260 1
force V   0.168385915782467  -0.206242753474635  -0.513424495693935 1
force V   0.048058949210915   0.119754353915927   0.158243015775506 1
force V  -0.484516686774841  -0.427924016251448  -0.114572217727900 1
force V  -0.434783816210609   0.362210934785050   0.184182890559311 1
force V   0.148920850302802  -0.486591430580701   0.227482320287339 1
force V  -0.104543332635974   0.011818539697343  -0.422486224633807 1
force V   0.064330986411507   0.201904042055970   0.314232263379767 1
force V  -0.015867830702318  -0.082756104486785   0.198194717766774 1
force V  -0.288732127843381   0.200846508367355  -0.026805366737434 1
force V  -0.244642052770484   0.085074951771840  -0.225929436798905 1
force V   0.111340164013636  -0.171708567843910   0.125964714782063 1
force V  -0.227663588246844  -0.146415531911206  -0.154645438695741 1
force V  -0.185542442732392   0.289181910663066  -0.136269941605020 1
force V   0.131300302762518  -0.455659215911392   0.547805930721368 1
force V   0.255615974717260  -0.075625243756431  -0.022211143183000 1
force V   0.189994419573204  -2.018077411794574  -1.322363903522703 1
force V   1.607823163923564   0.195245311278896   0.480428081413862 1
force V  -0.147999831633282  -0.395887474638118   0.805553182796956 1
force V  -0.012279272303592  -0.122008245446170  -0.453426697983720 1
force V   0.277042802307649  -0.036523212370331   0.169987960374381 1
force V   0.344578561129581  -0.442232717536686   0.027457696745493 1
force V   0.225092759947540   1.499871478463100  -0.300465447606000 1
force V   0.330354420159331  -0.128773267801327   0.105780633768291 1
force V  -0.171787705036459   0.286362118931755   0.173715700535168 1
force V   0.254341052198070  -0.346881133542149  -0.034544888901486 1
force V   0.097719637725409   0.327202044048072  -0.057914577118931 1
force V  -0.179983403091388   0.505401749792542  -0.150840535645069 1
force V  -0.269498179789733   0.066292697450140  -0.431931150717737 1
force V   0.184233827308221  -0.100629151789188   0.095182893596955 1
force V  -0.306672024413672  -0.016852437674454  -0.323484841094400 1
force V   0.091251499556298   0.687992027397121  -0.073536584104896 1
force V  -0.074970080550538  -0.300896998298707  -0.089002350726815 1
force V   0.069840988850999   0.362110804326274  -0.225899156172810 1
force V  -0.221169484449005  -0.075971053190840  -0.202087542428453 1
force V   0.048935155877390   0.181486449113485  -0.148589163751473 1
force V  -0.004002294701418  -0.539307069059858   0.292046689409902 1
force V  -0.044807887283506   0.157966297456567   0.292000634166994 1
force V   0.074438478780537  -0.166654689534973  -0.014596255457003 1
force V  -0.370888313704305   0.227165112290765  -0.003888226773839 1
force V  -0.086355633029443  -0.139817679401315   0.001561350726264 1
force V   0.151088135518695  -0.352823716794639  -0.168728769581332 1
force V  -0.098069007523527   0.540145739605118   0.027404631959965 1
force V  -0.245472039067411  -0.270355169371705  -0.191223253879208 1
force V   0.330712665181201  -0.112032013392852  -0.159299300020621 1
force V  -0.066739266147448   0.203703890659364  -0.141026758869650 1
force V   0.396796953976579  -0.035231954308982   0.579622141595937 1
force V   0.176798811016900   0.240755324666377  -0.375526056741843 1
force V  -0.145169981796857  -0.381368486364317   0.079001427727627 1
force V  -0.219488435403420   0.540229085123499  -0.401216045247151 1
force V   0.243459368006631  -0.391315551374317   0.517657086616858 1
force V  -0.053251458710574   0.159214100550789  -0.008746992012107 1
force O  -0.019518732765095   0.696099933341234   0.352314529936427 1

# Energy components:
   Eewald =    -2958.4125776330388362
       EH =      796.3152234039555424
     Eloc =    -2329.6311493031075770
      Enl =       86.6480004458244082
      Exc =     -530.1750406375356306
 Exc_core =       42.7102293013988401
       KE =     1005.1127356120027798
-------------------------------------
     Etot =    -3887.4325788105011270
       TS =        0.6326787180268945
-------------------------------------
        F =    -3888.0652575285280363

IonicMinimize: Iter:   3  F: -3888.065257528528036  |grad|_K:  2.290e-02  alpha:  2.997e-01  linmin: -9.813e-01  t[s]:  15913.09

#--- Lowdin population analysis ---
# oxidation-state V +0.130 +0.135 +0.101 +0.131 +0.112 +0.112 +0.146 +0.129 +0.127 +0.128 +0.115 +0.134 +0.086 +0.125 +0.114 +0.110 +0.095 +0.126 +0.187 +0.145 +0.147 +0.111 +0.139 +0.139 +0.166 +0.143 +0.140 +0.134 +0.091 +0.116 +0.114 +0.127 +0.100 +0.109 +0.113 +0.096 +0.151 +0.098 +0.141 +0.112 +0.152 +0.125 +0.135 +0.155 +0.152 +0.122 +0.125 +0.144 +0.104 +0.114 +0.079 +0.100 +0.110 +0.148
# oxidation-state O -0.360


-------- Electronic minimization -----------
Will mix electronic density at each iteration.
	FillingsUpdate:  mu: +0.636097416  nElectrons: 708.000000
	FillingsUpdate:  mu: +0.639441659  nElectrons: 708.000000
SCF: Cycle:  0   F: -3812.242498127016916   dF: +7.240e+01   |Residual|: 3.001e+00   |deigs|: 8.330e-03  t[s]:  16197.18
	FillingsUpdate:  mu: +0.628916957  nElectrons: 708.000000
SCF: Cycle:  1   F: -3506.050204330112138   dF: +3.062e+02   |Residual|: 7.651e+00   |deigs|: 1.141e-01  t[s]:  16405.08
	FillingsUpdate:  mu: +0.648503025  nElectrons: 708.000000
SCF: Cycle:  2   F: -3862.491649468109699   dF: -3.564e+02   |Residual|: 2.547e+00   |deigs|: 1.056e-01  t[s]:  16612.79
	FillingsUpdate:  mu: +0.647788839  nElectrons: 708.000000
SCF: Cycle:  3   F: -3879.962977768404926   dF: -1.747e+01   |Residual|: 1.371e+00   |deigs|: 2.399e-02  t[s]:  16821.20
	FillingsUpdate:  mu: +0.640844887  nElectrons: 708.000000
SCF: Cycle:  4   F: -3881.467238886567429   dF: -1.504e+00   |Residual|: 1.209e+00   |deigs|: 1.302e-02  t[s]:  17030.31
	FillingsUpdate:  mu: +0.637585279  nElectrons: 708.000000
SCF: Cycle:  5   F: -3886.884918824675879   dF: -5.418e+00   |Residual|: 5.526e-01   |deigs|: 8.980e-03  t[s]:  17237.66
	FillingsUpdate:  mu: +0.635878785  nElectrons: 708.000000
SCF: Cycle:  6   F: -3887.711750293612113   dF: -8.268e-01   |Residual|: 3.163e-01   |deigs|: 4.946e-03  t[s]:  17445.69
	FillingsUpdate:  mu: +0.635954541  nElectrons: 708.000000
SCF: Cycle:  7   F: -3888.034101212481346   dF: -3.224e-01   |Residual|: 1.680e-01   |deigs|: 8.768e-04  t[s]:  17653.20
	FillingsUpdate:  mu: +0.636271081  nElectrons: 708.000000
SCF: Cycle:  8   F: -3888.129129419809942   dF: -9.503e-02   |Residual|: 6.811e-02   |deigs|: 7.363e-04  t[s]:  17838.42
	FillingsUpdate:  mu: +0.635999089  nElectrons: 708.000000
SCF: Cycle:  9   F: -3888.112670617309959   dF: +1.646e-02   |Residual|: 8.195e-02   |deigs|: 4.119e-04  t[s]:  18014.98
	FillingsUpdate:  mu: +0.635758134  nElectrons: 708.000000
SCF: Cycle: 10   F: -3888.144592941364408   dF: -3.192e-02   |Residual|: 2.541e-02   |deigs|: 3.872e-04  t[s]:  18179.07
	FillingsUpdate:  mu: +0.635846015  nElectrons: 708.000000
SCF: Cycle: 11   F: -3888.145205685954352   dF: -6.127e-04   |Residual|: 2.277e-02   |deigs|: 1.504e-04  t[s]:  18301.97
	FillingsUpdate:  mu: +0.635856370  nElectrons: 708.000000
SCF: Cycle: 12   F: -3888.147572186197067   dF: -2.367e-03   |Residual|: 4.702e-03   |deigs|: 6.307e-05  t[s]:  18424.81
	FillingsUpdate:  mu: +0.635857840  nElectrons: 708.000000
SCF: Cycle: 13   F: -3888.147484009329219   dF: +8.818e-05   |Residual|: 6.871e-03   |deigs|: 2.413e-05  t[s]:  18547.62
	FillingsUpdate:  mu: +0.635857556  nElectrons: 708.000000
SCF: Cycle: 14   F: -3888.147681361046125   dF: -1.974e-04   |Residual|: 1.453e-03   |deigs|: 1.620e-05  t[s]:  18670.66
	FillingsUpdate:  mu: +0.635853523  nElectrons: 708.000000
SCF: Cycle: 15   F: -3888.147681993227252   dF: -6.322e-07   |Residual|: 1.354e-03   |deigs|: 8.844e-06  t[s]:  18793.81
	FillingsUpdate:  mu: +0.635852970  nElectrons: 708.000000
SCF: Cycle: 16   F: -3888.147687147027227   dF: -5.154e-06   |Residual|: 6.990e-04   |deigs|: 3.448e-06  t[s]:  18916.52
	FillingsUpdate:  mu: +0.635852669  nElectrons: 708.000000
SCF: Cycle: 17   F: -3888.147688190995268   dF: -1.044e-06   |Residual|: 5.024e-04   |deigs|: 2.563e-06  t[s]:  19039.40
	FillingsUpdate:  mu: +0.635852702  nElectrons: 708.000000
SCF: Cycle: 18   F: -3888.147688406463658   dF: -2.155e-07   |Residual|: 4.565e-04   |deigs|: 1.761e-06  t[s]:  19161.85
	FillingsUpdate:  mu: +0.635852924  nElectrons: 708.000000
SCF: Cycle: 19   F: -3888.147689152904150   dF: -7.464e-07   |Residual|: 1.748e-04   |deigs|: 1.187e-06  t[s]:  19283.34
	FillingsUpdate:  mu: +0.635852939  nElectrons: 708.000000
SCF: Cycle: 20   F: -3888.147689216923482   dF: -6.402e-08   |Residual|: 1.146e-04   |deigs|: 4.902e-07  t[s]:  19405.09
	FillingsUpdate:  mu: +0.635852924  nElectrons: 708.000000
SCF: Cycle: 21   F: -3888.147689174555126   dF: +4.237e-08   |Residual|: 1.402e-04   |deigs|: 4.225e-07  t[s]:  19526.96
	FillingsUpdate:  mu: +0.635852930  nElectrons: 708.000000
SCF: Cycle: 22   F: -3888.147689272308526   dF: -9.775e-08   |Residual|: 3.221e-05   |deigs|: 3.272e-07  t[s]:  19648.60
	FillingsUpdate:  mu: +0.635852884  nElectrons: 708.000000
SCF: Cycle: 23   F: -3888.147689275397170   dF: -3.089e-09   |Residual|: 2.654e-05   |deigs|: 1.403e-07  t[s]:  19770.33
	FillingsUpdate:  mu: +0.635852893  nElectrons: 708.000000
SCF: Cycle: 24   F: -3888.147689276590427   dF: -1.193e-09   |Residual|: 1.874e-05   |deigs|: 1.217e-07  t[s]:  19892.55
SCF: Converged (|Delta E|<1.000000e-08 for 2 iters).

Setting wave functions to eigenvectors of Hamiltonian

# Ionic positions in lattice coordinates:
ion V   0.000000000000000   0.000000000000000   0.000000000000000 0
ion V   0.147608318361649   0.145619628691456   0.179235911083406 1
ion V  -0.005582574790948  -0.011772272061356   0.315114165352467 1
ion V   0.155692939973426   0.168942459092391   0.512428446326548 1
ion V  -0.003630870665450  -0.007693744477345   0.659882580774275 1
ion V   0.172091937427545   0.171574566176313   0.824125847220675 1
ion V   0.014695946534914   0.319197589451294  -0.004468360454750 1
ion V   0.162717323051043   0.513036494593152   0.162260194757481 1
ion V  -0.002065733215197   0.334528167206674   0.348250899569719 1
ion V   0.171856518153423   0.490160049154493   0.489291440196844 1
ion V  -0.000243018409893   0.336262226369335   0.663337746178267 1
ion V   0.174983181519402   0.497229308478810   0.830039432221912 1
ion V   0.002996031859561   0.659391990932411   0.005819349671632 1
ion V   0.163943191208945   0.831929870395638   0.161702896897968 1
ion V   0.011383769792705   0.671387823100093   0.338477912797581 1
ion V   0.177355257828546   0.827562235841385   0.498674570549443 1
ion V   0.003018844334780   0.674078500594842   0.651928906238614 1
ion V   0.152642587336709   0.829565150125785   0.832768337569600 1
ion V   0.326521333243241  -0.013652366936100   0.001372501502957 1
ion V   0.494473005404719   0.165457347887865   0.178761133871299 1
ion V   0.335621210403736   0.001053262622290   0.323643585712459 1
ion V   0.499914604103172   0.169449002143442   0.520254322317018 1
ion V   0.321456410583301  -0.003773983951369   0.666001275839326 1
ion V   0.497537393633508   0.174543610783826   0.833013224042398 1
ion V   0.321893113604455   0.331732843708183  -0.008800482107831 1
ion V   0.490882630811200   0.498695806245088   0.168774646275196 1
ion V   0.335921914103388   0.328353265748805   0.339691458284720 1
ion V   0.493696043745691   0.507860204624601   0.504480951695928 1
ion V   0.331201193188841   0.326865669589138   0.669071023072037 1
ion V   0.506882565215866   0.479427077856843   0.840226722859847 1
ion V   0.340047304247023   0.661514419838836   0.012799630389949 1
ion V   0.497272503797534   0.838113339244192   0.163787115307047 1
ion V   0.344114242488519   0.664885037790324   0.340227847816962 1
ion V   0.494604854279515   0.820609945994371   0.502527956788309 1
ion V   0.333149360109665   0.670843773123405   0.675746313141774 1
ion V   0.496210124229514   0.822025451573719   0.840931312677120 1
ion V   0.672454015425369  -0.000828996566923   0.006362707914005 1
ion V   0.832609910217084   0.162914731308536   0.170915859154871 1
ion V   0.664208840286715   0.014008972035926   0.330071376419430 1
ion V   0.833477123238429   0.157870291621985   0.494818945665960 1
ion V   0.661972458308766   0.003791203874748   0.674396905903797 1
ion V   0.846853175481099   0.155666029334268   0.836134867287296 1
ion V   0.674980538747417   0.334038099435105   0.010646039151354 1
ion V   0.826341474680164   0.513867260881633   0.177115844918205 1
ion V   0.671443565223156   0.321556336523476   0.342755709703710 1
ion V   0.840433094558072   0.510331051393710   0.507374739332706 1
ion V   0.662708670918238   0.336313828580599   0.675764499070683 1
ion V   0.840057077264582   0.488298598040129   0.838169638239355 1
ion V   0.653227506677826   0.661179574501184  -0.018979406116996 1
ion V   0.823039318112062   0.822381216331060   0.173963811049126 1
ion V   0.668765569794841   0.681055164085592   0.335535617496606 1
ion V   0.838754251033677   0.825106076459848   0.506475134324254 1
ion V   0.658302400927419   0.675026920498976   0.655156427890311 1
ion V   0.833246944943330   0.824968060173687   0.833208741238696 1
ion O   0.320220369608898   0.159016396240607   0.084000320291920 1

# Forces in Lattice coordinates:
force V  -0.190898177296413  -0.231526693104153  -0.098356599660609 0
force V  -0.623771308728521   0.475690461338279   0.273647310990366 1
force V  -0.080778417774441  -0.010335978410206   0.603930082195688 1
force V   0.154527890617632  -0.168845187098104  -0.421095247889669 1
force V   0.042113860401716   0.107415107479335   0.136830813828055 1
[...]
ion V   0.002222940710986   0.665974799340550   0.001398003586990 1
ion V   0.165662143161616   0.829446477313379   0.173137085078223 1
ion V   0.003545376981154   0.665675854674805   0.335756059423474 1
ion V   0.171270512768515   0.833113575834205   0.502117276894661 1
ion V   0.003291073414780   0.665628526412383   0.667146231461084 1
ion V   0.165727861743378   0.829366477663900   0.831051466334756 1
ion V   0.336901018291521  -0.042372148857694   0.002460402703350 1
ion V   0.499663512848901   0.166075063790264   0.164467411445628 1
ion V   0.337384004809776  -0.001693420504739   0.337771253423260 1
ion V   0.504541398505123   0.165891438745031   0.501976552975952 1
ion V   0.337237642555411  -0.001581705314223   0.667242251319212 1
ion V   0.499374957554697   0.166203130219693   0.839797128066665 1
ion V   0.337429349579530   0.374720327660517   0.002277457845846 1
ion V   0.509148437181562   0.502762568030172   0.173005643172867 1
ion V   0.338019777429315   0.333767215206343   0.337611414928441 1
ion V   0.504613305687929   0.498943690041635   0.501705800119583 1
ion V   0.337794919757749   0.333821095089477   0.666896978309149 1
ion V   0.508752672603628   0.502728406973993   0.830619857280320 1
ion V   0.337264812166158   0.666100448561787   0.002007673232913 1
ion V   0.508457617252526   0.829170809878323   0.173280695695221 1
ion V   0.337826096919475   0.665794560516849   0.337225612783689 1
ion V   0.503895066779061   0.833360347913247   0.502000262961156 1
ion V   0.337610599244522   0.665911100280758   0.667038003774110 1
ion V   0.508129293477166   0.829414800401261   0.830995169491355 1
ion V   0.672045708033303  -0.001348981093705   0.001601471963071 1
ion V   0.837229113597316   0.166019312485966   0.168485014802929 1
ion V   0.670939990936878   0.000426715313626   0.335197110323176 1
ion V   0.837695741254572   0.165681434478325   0.501306510147985 1
ion V   0.670594204309277   0.000497504987196   0.668076776302593 1
ion V   0.836696919273310   0.166254281914467   0.834351241960667 1
ion V   0.672669483221340   0.334087759488021   0.001464308797255 1
ion V   0.837864889163315   0.498816468712243   0.167506194963837 1
ion V   0.671658982375475   0.331552011458355   0.335026075240705 1
ion V   0.838203295887677   0.497996483101180   0.501087948684598 1
ion V   0.671386052612010   0.331548370288792   0.667914672907268 1
ion V   0.837581138421939   0.498843745569481   0.834930604800025 1
ion V   0.672575245980168   0.666138677724468   0.001260945100490 1
ion V   0.837288321432134   0.833650678460536   0.167483066803182 1
ion V   0.672470546149179   0.665944607756260   0.335703452661564 1
ion V   0.837627793703514   0.833835663444827   0.501175286828855 1
ion V   0.672103995812443   0.666024929032434   0.667052054849972 1
ion V   0.836927337662057   0.833511360474166   0.834884797755584 1
ion O   0.337142324283836   0.166290395529332   0.002285900181077 1

# Forces in Lattice coordinates:
force V   0.041516090450975  -0.036727466654026   0.038009865753810 0
force V   0.002183549297294   0.000516742000141  -0.006240726515882 1
force V  -0.001090439396063   0.001320558815158  -0.003111479939153 1
force V  -0.001903408587212   0.001630417319758  -0.007427251251614 1
force V   0.001817587845849   0.000799421800036  -0.003237829754466 1
force V  -0.001148682181605  -0.001016803200406  -0.008222756911331 1
force V   0.001440713902466   0.002681213885079  -0.002315828322681 1
force V  -0.001117205718472   0.000892653596951  -0.001917292636453 1
force V  -0.004271000948408   0.002755823076041  -0.000357552593311 1
force V  -0.002130727850800   0.001631652636377  -0.002267672347661 1
force V  -0.000768455507797   0.002778412171010   0.000122853264029 1
force V   0.000630330886868   0.000643450632348  -0.000659101783047 1
force V  -0.001363882424892   0.001930809692963   0.000377356050337 1
force V   0.000895205761870  -0.000225510384113  -0.003369944785968 1
force V  -0.001226305556369   0.002133532903320   0.001650027185781 1
force V   0.001445361369426   0.001343144736361  -0.005908721122720 1
force V  -0.000217956861283   0.001622739344001   0.000798579929247 1
force V  -0.000694720787461  -0.001873457427759  -0.003886087231594 1
force V   0.000377043992920   0.004741313769195  -0.006419765761246 1
force V  -0.001857585114020  -0.002092922808340  -0.004137715542948 1
force V  -0.000237087389098  -0.000272629066195  -0.007644146392844 1
force V   0.000281118282965  -0.001040080480940  -0.003597703819717 1
force V   0.000519101040247  -0.001130330935410  -0.005993657457070 1
force V   0.001515613042096  -0.003768632762589  -0.003695405055093 1
force V   0.000217909557327   0.000575939499678  -0.003678174482667 1
force V  -0.002815996494051  -0.003492295389451   0.001083012200211 1
force V  -0.002331542650819  -0.001658500112735  -0.002721670953922 1
force V  -0.004339700364508  -0.002436416624524   0.000061496208141 1
force V  -0.001626134623630  -0.000497348300941  -0.003971998094418 1
force V   0.000979878911919  -0.002963005743551   0.001169429527544 1
force V  -0.000366594790630  -0.002520653941394  -0.000499867897105 1
force V   0.000334147920662   0.000312427420407  -0.001963023977765 1
force V  -0.001126574452164   0.000696588419730  -0.003306347469514 1
force V  -0.001448703015516   0.000363613983267  -0.003996616091543 1
force V  -0.000210113852255  -0.002126488414286  -0.001090793648280 1
force V   0.002512982199314  -0.003591742836711  -0.002782148174272 1
force V   0.002032768755788  -0.000675583251243  -0.000819178724084 1
force V  -0.000043265809919   0.000823603743746   0.000821744901294 1
force V  -0.000780734661796  -0.000000777676310  -0.000439711388469 1
force V  -0.000769982391862  -0.000575083541293   0.001569117999740 1
force V   0.001044655331113  -0.000818634963583   0.001060203841313 1
force V   0.003326728455459   0.000677764409314  -0.000571563404538 1
force V   0.001639892351209  -0.001009139778199   0.000321856973205 1
force V  -0.002406981070090   0.002500362504379   0.004111980049832 1
force V  -0.003275410550238  -0.002459851419407   0.003216097673274 1
force V  -0.003413046954293   0.001425615170453   0.003724990846270 1
force V  -0.002157777380382  -0.000905870118744   0.002392218042635 1
force V  -0.000295109913619   0.002245975201585   0.001384034489015 1
force V  -0.001214750456876  -0.001522570609213   0.002202891909769 1
force V   0.000203376097191   0.000275159987730   0.001106545272532 1
force V  -0.004707828255683  -0.001092517075374   0.001637124366454 1
force V  -0.000728720489271   0.000096654474463   0.002097169478947 1
force V  -0.001661699983862  -0.002760773029414   0.001681584407675 1
force V   0.000761972085414  -0.000108172044846   0.000623950730995 1
force O   0.001342780933775  -0.008718364276958  -0.001948387136542 1

# Energy components:
   Eewald =    -2978.5964723737693021
       EH =      776.4526220421458902
     Eloc =    -2288.3164485882343797
      Enl =       86.2762213383680603
      Exc =     -529.6350742138830583
 Exc_core =       42.7101571979696075
       KE =     1003.3870339345575076
-------------------------------------
     Etot =    -3887.7219606628450492
       TS =        0.6376937742044495
-------------------------------------
        F =    -3888.3596544370493575

IonicMinimize: Iter:  29  F: -3888.359654437049358  |grad|_K:  1.502e-04  alpha:  1.000e+00  linmin: -2.316e-01  t[s]: 118064.73

#--- Lowdin population analysis ---
# oxidation-state V +0.135 +0.215 +0.126 +0.125 +0.128 +0.213 +0.137 +0.109 +0.127 +0.121 +0.128 +0.109 +0.120 +0.111 +0.113 +0.122 +0.114 +0.110 +0.206 +0.213 +0.136 +0.125 +0.136 +0.213 +0.207 +0.109 +0.136 +0.121 +0.137 +0.109 +0.137 +0.110 +0.120 +0.122 +0.121 +0.110 +0.137 +0.125 +0.127 +0.118 +0.127 +0.123 +0.136 +0.121 +0.127 +0.113 +0.127 +0.121 +0.120 +0.122 +0.113 +0.113 +0.114 +0.121
# oxidation-state O -0.587


-------- Electronic minimization -----------
Will mix electronic density at each iteration.
	FillingsUpdate:  mu: +0.634935766  nElectrons: 708.000000
	FillingsUpdate:  mu: +0.634936057  nElectrons: 708.000000
SCF: Cycle:  0   F: -3888.359113811430689   dF: +4.298e-04   |Residual|: 7.937e-03   |deigs|: 9.933e-07  t[s]: 118321.10
	FillingsUpdate:  mu: +0.634936014  nElectrons: 708.000000
SCF: Cycle:  1   F: -3888.352103067941243   dF: +7.011e-03   |Residual|: 3.020e-02   |deigs|: 7.832e-05  t[s]: 118442.66
	FillingsUpdate:  mu: +0.634934974  nElectrons: 708.000000
SCF: Cycle:  2   F: -3888.359677455246128   dF: -7.574e-03   |Residual|: 1.916e-03   |deigs|: 8.076e-05  t[s]: 118564.24
	FillingsUpdate:  mu: +0.634934890  nElectrons: 708.000000
SCF: Cycle:  3   F: -3888.359579848444810   dF: +9.761e-05   |Residual|: 4.633e-03   |deigs|: 7.139e-06  t[s]: 118685.58
	FillingsUpdate:  mu: +0.634934739  nElectrons: 708.000000
SCF: Cycle:  4   F: -3888.359685506334699   dF: -1.057e-04   |Residual|: 5.279e-04   |deigs|: 7.010e-06  t[s]: 118807.29
	FillingsUpdate:  mu: +0.634934936  nElectrons: 708.000000
SCF: Cycle:  5   F: -3888.359683673283598   dF: +1.833e-06   |Residual|: 7.991e-04   |deigs|: 1.438e-06  t[s]: 118928.80
	FillingsUpdate:  mu: +0.634935082  nElectrons: 708.000000
SCF: Cycle:  6   F: -3888.359686088813305   dF: -2.416e-06   |Residual|: 1.281e-04   |deigs|: 9.970e-07  t[s]: 119050.78
	FillingsUpdate:  mu: +0.634934932  nElectrons: 708.000000
SCF: Cycle:  7   F: -3888.359686094444442   dF: -5.631e-09   |Residual|: 1.048e-04   |deigs|: 7.430e-07  t[s]: 119172.84
	FillingsUpdate:  mu: +0.634934924  nElectrons: 708.000000
SCF: Cycle:  8   F: -3888.359686129368583   dF: -3.492e-08   |Residual|: 5.068e-05   |deigs|: 2.416e-07  t[s]: 119296.07
	FillingsUpdate:  mu: +0.634934958  nElectrons: 708.000000
SCF: Cycle:  9   F: -3888.359686137870540   dF: -8.502e-09   |Residual|: 1.815e-05   |deigs|: 2.182e-07  t[s]: 119419.34
	FillingsUpdate:  mu: +0.634934965  nElectrons: 708.000000
SCF: Cycle: 10   F: -3888.359686133969717   dF: +3.901e-09   |Residual|: 2.961e-05   |deigs|: 1.987e-07  t[s]: 119542.84
	FillingsUpdate:  mu: +0.634934952  nElectrons: 708.000000
SCF: Cycle: 11   F: -3888.359686138083816   dF: -4.114e-09   |Residual|: 3.465e-06   |deigs|: 1.456e-07  t[s]: 119662.57
	FillingsUpdate:  mu: +0.634934948  nElectrons: 708.000000
SCF: Cycle: 12   F: -3888.359686137987865   dF: +9.595e-11   |Residual|: 5.629e-06   |deigs|: 4.375e-08  t[s]: 119744.71
	FillingsUpdate:  mu: +0.634934950  nElectrons: 708.000000
SCF: Cycle: 13   F: -3888.359686138383495   dF: -3.956e-10   |Residual|: 1.197e-06   |deigs|: 3.327e-08  t[s]: 119820.70
	FillingsUpdate:  mu: +0.634934949  nElectrons: 708.000000
SCF: Cycle: 14   F: -3888.359686138274355   dF: +1.091e-10   |Residual|: 1.224e-06   |deigs|: 4.406e-09  t[s]: 119895.96
	FillingsUpdate:  mu: +0.634934949  nElectrons: 708.000000
SCF: Cycle: 15   F: -3888.359686137975132   dF: +2.992e-10   |Residual|: 1.076e-06   |deigs|: 4.487e-09  t[s]: 119970.70
SCF: Converged (|deigs|<1.000000e-08 for 2 iters).

Setting wave functions to eigenvectors of Hamiltonian

# Ionic positions in lattice coordinates:
ion V   0.000000000000000   0.000000000000000   0.000000000000000 0
ion V   0.174607636698308   0.165985600196909   0.164216797017766 1
ion V   0.003932837502507   0.000378003320536   0.335224131289598 1
ion V   0.170764925807202   0.165666807838163   0.501906454434506 1
ion V   0.003739408243337   0.000415412203276   0.668210645696947 1
ion V   0.174982884670419   0.166111590502011   0.839620606008016 1
ion V   0.001949219763923   0.334129159005115   0.001541261932959 1
ion V   0.166474016097549   0.502495229199945   0.173254555167156 1
ion V   0.004264191324490   0.331298960611594   0.335308034318048 1
ion V   0.171708670550502   0.498590106411275   0.501933932177976 1
ion V   0.004106793413596   0.331343765376660   0.668120903299610 1
ion V   0.166338463734425   0.502522844531184   0.830886774660797 1
ion V   0.002107445837493   0.666083942236432   0.001451625235713 1
ion V   0.165668928273108   0.829496929397097   0.173019924264488 1
ion V   0.003467543407291   0.665724987714271   0.335904282530083 1
ion V   0.171427524071048   0.833241683996442   0.501849114743387 1
ion V   0.003307248359178   0.665709978108637   0.667157231557764 1
ion V   0.165695032166963   0.829283713949565   0.830912735703498 1
ion V   0.336946480960278  -0.042472945895317   0.002160796695953 1
ion V   0.499960337576240   0.166020534608661   0.164229994900000 1
ion V   0.337454384174147  -0.001496760834054   0.337343568375298 1
ion V   0.504503025134474   0.165758672357920   0.501857237373368 1
ion V   0.337262964779602  -0.001681545840518   0.666893277509102 1
ion V   0.499337593727188   0.166092939018380   0.839667633888713 1
ion V   0.337475949433263   0.374563060725282   0.002168422723076 1
ion V   0.509012715761042   0.502558360452948   0.173060673116717 1
ion V   0.337845176144509   0.333574589878281   0.337349409111290 1
ion V   0.504339280309045   0.498801405842434   0.501647270170334 1
ion V   0.337709865438077   0.333828022806447   0.666696251493256 1
ion V   0.508710619788540   0.502597299156320   0.830686675825964 1
ion V   0.337294824918062   0.665977290453485   0.001999249207111 1
ion V   0.508462787801074   0.829206096481785   0.173197857360539 1
ion V   0.337706229266072   0.665754333592472   0.337071179724723 1
ion V   0.503782309424446   0.833305759880519   0.501810108598747 1
ion V   0.337611841431895   0.665822438369452   0.666999347909461 1
ion V   0.508256268021368   0.829300370509042   0.830895952493639 1
ion V   0.672274497538359  -0.001334220822585   0.001547132169376 1
ion V   0.837327153730309   0.166098871433434   0.168522932940651 1
ion V   0.671015974420080   0.000394391451274   0.335219335203068 1
ion V   0.837631916275122   0.165624140713510   0.501413451576817 1
ion V   0.670603106962809   0.000412525350452   0.668123332007388 1
ion V   0.836870117929610   0.166334743366528   0.834351532046310 1
ion V   0.672793801303341   0.334091130782498   0.001472250521529 1
ion V   0.837761637539469   0.498906399355033   0.167693297296117 1
ion V   0.671498429666617   0.331408100041685   0.335133916617113 1
ion V   0.837968726053103   0.497987490207154   0.501251972819809 1
ion V   0.671277050499275   0.331475281731280   0.667982635594722 1
ion V   0.837563037983097   0.499001904379073   0.834973789186024 1
ion V   0.672494698657446   0.666057987697146   0.001389901691638 1
ion V   0.837254497489231   0.833601816294895   0.167632092006280 1
ion V   0.672254512394992   0.665842993622202   0.335838728739532 1
ion V   0.837631666825437   0.833851356359250   0.501303902385971 1
ion V   0.671965458091812   0.665897482703862   0.667114438626648 1
ion V   0.836946842948550   0.833492829799325   0.834868290880372 1
ion O   0.337171861736839   0.166143356203073   0.001990858899574 1

# Forces in Lattice coordinates:
force V   0.043107335118145  -0.035471290245819   0.035716168725186 0
force V   0.007542724535478  -0.002332334696431  -0.004417961024983 1
force V  -0.001436746341836   0.000922387222686  -0.002877304744485 1
force V  -0.000798538619656   0.000719422121152  -0.004142082121226 1
force V   0.000410521283322  -0.000058961514035  -0.003819751783419 1
force V  -0.003425130455872  -0.001300749893729  -0.006145893902668 1
force V  -0.000093486449804  -0.001215117104050  -0.000733398580142 1
force V  -0.001245865509376   0.001271357313094  -0.002352960690793 1
force V  -0.000795798136599   0.001076026476022  -0.000263333263788 1
force V  -0.002167813849563   0.001745206062816  -0.003150026703740 1
force V  -0.000664653057764   0.002114568877690  -0.001251610821460 1
force V  -0.001078412892008   0.000194926614254  -0.003023467246900 1
force V   0.000847625363362   0.001366349549241   0.000390411987031 1
force V   0.000763519807822  -0.000212137230013  -0.003982180719006 1
force V  -0.001451967260423   0.002774162530290  -0.000373463166828 1
force V  -0.001978558872968  -0.000312046217697  -0.002951850580511 1
force V  -0.001044605574762   0.001419377438837   0.000727563087388 1
force V   0.000717828978525   0.000163540546168  -0.004033888788792 1
force V  -0.000076412017096   0.004112512507616  -0.003998323121823 1
force V  -0.010631966157761  -0.002922246502585  -0.003922560099476 1
force V  -0.001883858803746  -0.004541499243598  -0.003895320306761 1
force V  -0.000005234707967  -0.000058959759097  -0.003480285438448 1
force V   0.000491629667862   0.000011075357203  -0.004323704472871 1
force V   0.005433912769471  -0.003407549169152  -0.006016261865847 1
force V  -0.000649133359174   0.002786829458781  -0.002996831114832 1
force V  -0.001917682350028  -0.001295865749593  -0.000264177232677 1
force V  -0.001138560369699   0.001499184405773  -0.000216978787400 1
force V  -0.002610516421721  -0.001445722530856   0.001117309359594 1
force V  -0.001278721201764  -0.002004130765477  -0.003425796937742 1
force V   0.001587114695101  -0.002252263640064  -0.000381758947725 1
force V  -0.000964831160858  -0.000202182893114  -0.001325553591288 1
force V   0.000545576453815  -0.001491390960525  -0.002495024677558 1
force V  -0.000576658865668   0.000984437189307  -0.001886775419294 1
force V   0.000272792729338  -0.000278141559081  -0.001728644385190 1
force V  -0.001211207625081  -0.001088725842147  -0.002121802756340 1
force V   0.000889682630381  -0.003475712278064  -0.002659554739315 1
force V  -0.000621605342286  -0.001998945772934  -0.000619361905501 1
force V  -0.001673183667008   0.000409055318855  -0.000479981645420 1
force V  -0.001706867269679  -0.000789764441456  -0.001335021824183 1
force V  -0.000221006510556   0.000647090866283  -0.000018098749409 1
force V   0.001685325515148  -0.000099953949900  -0.000514487312917 1
force V   0.001114015607791  -0.000194892496032  -0.000764520434751 1
force V  -0.000161161420837  -0.001605819413512   0.000440679929391 1
force V  -0.002559425124912   0.001771979978099   0.002810870826391 1
force V  -0.001854285233262  -0.001161368124532   0.001865450782954 1
force V  -0.001614594904996   0.002095074290622   0.002880690839910 1
force V  -0.001485558047458  -0.000996004272566   0.002048930103502 1
force V  -0.000703919099180  -0.000388341692256   0.002468373280450 1
force V  -0.000106251704367  -0.000592071425087   0.001377141064690 1
force V   0.000649390851023   0.001550231126058   0.000102909017233 1
force V  -0.002941742628305   0.000144900049045   0.000478740414074 1
force V  -0.001462441180242  -0.000172766213837   0.000618079171776 1
force V  -0.000489854589214  -0.001316037820793   0.001224753672865 1
force V   0.001052002048125   0.000729219214792   0.001844662121212 1
force O   0.001193833826836  -0.006870288847424   0.001840699453248 1

# Energy components:
   Eewald =    -2978.6004961759408616
       EH =      776.4488059926788992
     Eloc =    -2288.3083951635553603
      Enl =       86.2760680672948439
      Exc =     -529.6349841832911807
 Exc_core =       42.7101455809855537
       KE =     1003.3868738327360006
-------------------------------------
     Etot =    -3887.7219820490931852
       TS =        0.6377040888818749
-------------------------------------
        F =    -3888.3596861379751317

IonicMinimize: Iter:  30  F: -3888.359686137975132  |grad|_K:  1.374e-04  alpha:  1.000e+00  linmin: -1.390e-01  t[s]: 120006.93
IonicMinimize: None of the convergence criteria satisfied after 30 iterations.

#--- Lowdin population analysis ---
# oxidation-state V +0.136 +0.214 +0.126 +0.125 +0.128 +0.213 +0.137 +0.109 +0.127 +0.121 +0.128 +0.109 +0.120 +0.111 +0.113 +0.122 +0.114 +0.110 +0.206 +0.213 +0.136 +0.125 +0.136 +0.213 +0.207 +0.109 +0.136 +0.121 +0.137 +0.109 +0.137 +0.110 +0.120 +0.122 +0.121 +0.109 +0.137 +0.125 +0.126 +0.118 +0.127 +0.123 +0.136 +0.121 +0.127 +0.113 +0.128 +0.121 +0.120 +0.122 +0.113 +0.113 +0.114 +0.121
# oxidation-state O -0.587


Dumping 'V_inter_tet.Ecomponents' ... done
End date and time: Wed Jul 17 18:10:27 2024  (Duration: 1-9:20:27.36)
Done!
