--------------------------------------------------------------------------
Initialization of PSM library failed.

  Error: PSM is in the finalized state
--------------------------------------------------------------------------

*************** JDFTx 1.7.0 (git hash 3664913) ***************

Start date and time: Fri Jun  7 11:39:49 2024
Executable jdftx with command-line: -i CrO2_ion.in
Running on hosts (process indices):  node3001.physics.cornell.edu (0-15)
Divided in process groups (process indices):  0 (0)  1 (1)  2 (2)  3 (3)  4 (4)  5 (5)  6 (6)  7 (7)  8 (8)  9 (9)  10 (10)  11 (11)  12 (12)  13 (13)  14 (14)  15 (15)
Resource initialization completed at t[s]:      0.00
Run totals: 16 processes, 32 threads, 0 GPUs


Input parsed successfully to the following command list (including defaults):

basis kpoint-dependent
coords-type Lattice
core-overlap-check vector
coulomb-interaction Periodic
davidson-band-ratio 1.1
dump End Ecomponents
dump-name $INPUT.$VAR
elec-cutoff 20 100
elec-eigen-algo Davidson
elec-ex-corr gga-PBEsol
elec-smearing Fermi 0.01
electronic-minimize  \
	dirUpdateScheme      FletcherReeves \
	linminMethod         DirUpdateRecommended \
	nIterations          100 \
	history              15 \
	knormThreshold       0 \
	maxThreshold         no \
	energyDiffThreshold  1e-08 \
	nEnergyDiff          2 \
	alphaTstart          1 \
	alphaTmin            1e-10 \
	updateTestStepSize   yes \
	alphaTreduceFactor   0.1 \
	alphaTincreaseFactor 3 \
	nAlphaAdjustMax      3 \
	wolfeEnergy          0.0001 \
	wolfeGradient        0.9 \
	fdTest               no
electronic-scf  \
	nIterations	50 \
	energyDiffThreshold	1e-08 \
	residualThreshold	1e-07 \
	mixFraction	0.5 \
	qMetric	0.8 \
	history	10 \
	nEigSteps	2 \
	eigDiffThreshold	1e-08 \
	mixedVariable	Density \
	qKerker	0.8 \
	qKappa	-1 \
	verbose	no \
	mixFractionMag	1.5
exchange-regularization WignerSeitzTruncated
fluid None
fluid-ex-corr lda-TF lda-PZ
fluid-gummel-loop 10 1.000000e-05
fluid-minimize  \
	dirUpdateScheme      PolakRibiere \
	linminMethod         DirUpdateRecommended \
	nIterations          100 \
	history              15 \
	knormThreshold       0 \
	maxThreshold         no \
	energyDiffThreshold  0 \
	nEnergyDiff          2 \
	alphaTstart          1 \
	alphaTmin            1e-10 \
	updateTestStepSize   yes \
	alphaTreduceFactor   0.1 \
	alphaTincreaseFactor 3 \
	nAlphaAdjustMax      3 \
	wolfeEnergy          0.0001 \
	wolfeGradient        0.9 \
	fdTest               no
fluid-solvent H2O 55.338 ScalarEOS \
	epsBulk 78.4 \
	pMol 0.92466 \
	epsInf 1.77 \
	Pvap 1.06736e-10 \
	sigmaBulk 4.62e-05 \
	Rvdw 2.61727 \
	Res 1.42 \
	tauNuc 343133 \
	poleEl 15 7 1
forces-output-coords Positions
ion Cr   0.253480000000000   0.259630000000000   0.239120000000000 1
ion Cr   0.001010000000000   0.015440000000000  -0.010950000000000 1
ion Cr   0.262210000000000   0.241330000000000   0.755140000000000 1
ion Cr  -0.007940000000000   0.006900000000000   0.507830000000000 1
ion Cr   0.246950000000000   0.749880000000000   0.249520000000000 1
ion Cr  -0.013540000000000   0.503840000000000  -0.008110000000000 1
ion Cr   0.242990000000000   0.761120000000000   0.752660000000000 1
ion Cr   0.004350000000000   0.513300000000000   0.515270000000000 1
ion Cr   0.761190000000000   0.255090000000000   0.245160000000000 1
ion Cr   0.489640000000000  -0.007840000000000  -0.001720000000000 1
ion Cr   0.754400000000000   0.247900000000000   0.765730000000000 1
ion Cr   0.518990000000000   0.002690000000000   0.510740000000000 1
ion Cr   0.741060000000000   0.756340000000000   0.271270000000000 1
ion Cr   0.512390000000000   0.492270000000000  -0.015080000000000 1
ion Cr   0.756210000000000   0.753600000000000   0.756060000000000 1
ion Cr   0.500900000000000   0.498820000000000   0.495840000000000 1
ion O  -0.005360000000000   0.350650000000000   0.365630000000000 1
ion O   0.239950000000000   0.381240000000000   0.106980000000000 1
ion O   0.004880000000000   0.124970000000000   0.159880000000000 1
ion O   0.245610000000000   0.091290000000000   0.415010000000000 1
ion O   0.005850000000000   0.340400000000000   0.833060000000000 1
ion O   0.241220000000000   0.395890000000000   0.583350000000000 1
ion O  -0.005110000000000   0.150800000000000   0.643290000000000 1
ion O   0.246100000000000   0.096710000000000   0.892540000000000 1
ion O   0.005580000000000   0.851670000000000   0.349120000000000 1
ion O   0.263140000000000   0.907630000000000   0.087110000000000 1
ion O   0.016860000000000   0.652950000000000   0.145940000000000 1
ion O   0.236010000000000   0.582130000000000   0.394360000000000 1
ion O  -0.019980000000000   0.847740000000000   0.844940000000000 1
ion O   0.249470000000000   0.884140000000000   0.610600000000000 1
ion O   0.000330000000000   0.669210000000000   0.649850000000000 1
ion O   0.261850000000000   0.577270000000000   0.910370000000000 1
ion O   0.504980000000000   0.338330000000000   0.334440000000000 1
ion O   0.756290000000000   0.398760000000000   0.095650000000000 1
ion O   0.497180000000000   0.160430000000000   0.131920000000000 1
ion O   0.745050000000000   0.094160000000000   0.403210000000000 1
ion O   0.499060000000000   0.354400000000000   0.864100000000000 1
ion O   0.751460000000000   0.392300000000000   0.592300000000000 1
ion O   0.505600000000000   0.156580000000000   0.640710000000000 1
ion O   0.746020000000000   0.103530000000000   0.902770000000000 1
ion O   0.503550000000000   0.845870000000000   0.336740000000000 1
ion O   0.753680000000000   0.898990000000000   0.105870000000000 1
ion O   0.490530000000000   0.656310000000000   0.152900000000000 1
ion O   0.746610000000000   0.595880000000000   0.412720000000000 1
ion O   0.501650000000000   0.833530000000000   0.853820000000000 1
ion O   0.729660000000000   0.892890000000000   0.607830000000000 1
ion O   0.487770000000000   0.661340000000000   0.647930000000000 1
ion O   0.749980000000000   0.588510000000000   0.911190000000000 1
ion-species GBRV/$ID_pbesol.uspp
ion-width 0
ionic-minimize  \
	dirUpdateScheme      L-BFGS \
	linminMethod         DirUpdateRecommended \
	nIterations          30 \
	history              15 \
	knormThreshold       0.0001 \
	maxThreshold         no \
	energyDiffThreshold  1e-06 \
	nEnergyDiff          2 \
	alphaTstart          1 \
	alphaTmin            1e-10 \
	updateTestStepSize   yes \
	alphaTreduceFactor   0.1 \
	alphaTincreaseFactor 3 \
	nAlphaAdjustMax      3 \
	wolfeEnergy          0.0001 \
	wolfeGradient        0.9 \
	fdTest               no
kpoint   0.000000000000   0.000000000000   0.000000000000  1.00000000000000
kpoint-folding 4 4 4 
latt-move-scale 1 1 1
latt-scale 1 1 1 
lattice  \
	  10.206358269330357    0.000000000000000    0.000000000000000  \
	   0.000000000000000   16.965025200205606    0.000350087465724  \
	   0.000000000000000    0.000350087465724   16.965025200205606 
lattice-minimize  \
	dirUpdateScheme      L-BFGS \
	linminMethod         DirUpdateRecommended \
	nIterations          0 \
	history              15 \
	knormThreshold       0 \
	maxThreshold         no \
	energyDiffThreshold  1e-06 \
	nEnergyDiff          2 \
	alphaTstart          1 \
	alphaTmin            1e-10 \
	updateTestStepSize   yes \
	alphaTreduceFactor   0.1 \
	alphaTincreaseFactor 3 \
	nAlphaAdjustMax      3 \
	wolfeEnergy          0.0001 \
	wolfeGradient        0.9 \
	fdTest               no
lcao-params -1 1e-06 0.01
pcm-variant GLSSA13
perturb-minimize  \
	nIterations            0 \
	algorithm              MINRES \
	residualTol            0.0001 \
	residualDiffThreshold  0.0001 \
	CGBypass               no \
	recomputeResidual      no
spintype no-spin
subspace-rotation-factor 1 yes
symmetries automatic
symmetry-threshold 0.0001



---------- Setting up symmetries ----------

Found 16 point-group symmetries of the bravais lattice
Found 1 space-group symmetries with basis
Applied RMS atom displacement 0 bohrs to make symmetries exact.

---------- Initializing the Grid ----------
R = 
[      10.2064            0            0  ]
[            0       16.965  0.000350087  ]
[            0  0.000350087       16.965  ]
unit cell volume = 2937.51
G =
[   0.615615          0          0  ]
[          0   0.370361 -7.64271e-06  ]
[          0 -7.64271e-06   0.370361  ]
Minimum fftbox size, Smin = [  48  80  80  ]
Chosen fftbox size, S = [  48  80  80  ]

---------- Initializing tighter grid for wavefunction operations ----------
R = 
[      10.2064            0            0  ]
[            0       16.965  0.000350087  ]
[            0  0.000350087       16.965  ]
unit cell volume = 2937.51
G =
[   0.615615          0          0  ]
[          0   0.370361 -7.64271e-06  ]
[          0 -7.64271e-06   0.370361  ]
Minimum fftbox size, Smin = [  44  72  72  ]
Chosen fftbox size, S = [  48  72  72  ]

---------- Exchange Correlation functional ----------
Initalized PBEsol GGA exchange.
Initalized PBEsol GGA correlation.

---------- Setting up pseudopotentials ----------
Width of ionic core gaussian charges (only for fluid interactions / plotting) set to 0

Reading pseudopotential file '/home/rc652/build/pseudopotentials/GBRV/cr_pbesol.uspp':
  Title: Cr.  Created by USPP 7.3.6 on 22-9-15
  Reference state energy: -86.950313.  14 valence electrons in orbitals:
    |300>  occupation: 2  eigenvalue: -3.277767
    |310>  occupation: 6  eigenvalue: -2.223139
    |400>  occupation: 1.6  eigenvalue: -0.455775
    |320>  occupation: 3.4  eigenvalue: -0.615164
  lMax: 2  lLocal: 3  QijEcut: 6
  6 projectors sampled on a log grid with 595 points:
    l: 0  eig: -3.277767  rCut: 1.55
    l: 0  eig: -0.455775  rCut: 1.55
    l: 1  eig: -2.223139  rCut: 1.55
    l: 1  eig: 0.500000  rCut: 1.55
    l: 2  eig: -0.615164  rCut: 1.7
    l: 2  eig: 0.500000  rCut: 1.7
  Partial core density with radius 0.75
  Transforming core density to a uniform radial grid of dG=0.02 with 1287 points.
  Transforming local potential to a uniform radial grid of dG=0.02 with 1287 points.
  Transforming nonlocal projectors to a uniform radial grid of dG=0.02 with 432 points.
  Transforming density augmentations to a uniform radial grid of dG=0.02 with 1287 points.
  Transforming atomic orbitals to a uniform radial grid of dG=0.02 with 432 points.
  Core radius for overlap checks: 1.70 bohrs.

Reading pseudopotential file '/home/rc652/build/pseudopotentials/GBRV/o_pbesol.uspp':
  Title: O.  Created by USPP 7.3.6 on 3-2-2014
  Reference state energy: -15.849885.  6 valence electrons in orbitals:
    |200>  occupation: 2  eigenvalue: -0.873214
    |210>  occupation: 4  eigenvalue: -0.330058
  lMax: 2  lLocal: 2  QijEcut: 6
  5 projectors sampled on a log grid with 511 points:
    l: 0  eig: -0.873214  rCut: 1.25
    l: 0  eig: 0.000000  rCut: 1.25
    l: 1  eig: -0.330058  rCut: 1.25
    l: 1  eig: 0.000000  rCut: 1.25
    l: 2  eig: 1.000000  rCut: 1.25
  Partial core density with radius 0.7
  Transforming core density to a uniform radial grid of dG=0.02 with 1287 points.
  Transforming local potential to a uniform radial grid of dG=0.02 with 1287 points.
  Transforming nonlocal projectors to a uniform radial grid of dG=0.02 with 432 points.
  Transforming density augmentations to a uniform radial grid of dG=0.02 with 1287 points.
  Transforming atomic orbitals to a uniform radial grid of dG=0.02 with 432 points.
  Core radius for overlap checks: 1.25 bohrs.

Initialized 2 species with 48 total atoms.

Folded 1 k-points by 4x4x4 to 64 k-points.

---------- Setting up k-points, bands, fillings ----------
Adding inversion symmetry to k-mesh for non-inversion-symmetric unit cell.
Reduced to 36 k-points under symmetry. 
Computing the number of bands and number of electrons
Calculating initial fillings.
nElectrons: 416.000000   nBands: 288   nStates: 36

----- Setting up reduced wavefunction bases (one per k-point) -----
average nbasis = 12549.172 , ideal nbasis = 12549.280

---------- Setting up ewald sum ----------
Optimum gaussian width for ewald sums = 2.997067 bohr.
Real space sum over 441 unit cells with max indices [  4  3  3  ]
Reciprocal space sum over 6615 terms with max indices [  7  10  10  ]

---------- Allocating electronic variables ----------
Initializing wave functions:  linear combination of atomic orbitals
Cr pseudo-atom occupations:   s ( 2 0 )  p ( 6 )  d ( 6 )
O pseudo-atom occupations:   s ( 2 )  p ( 4 )
	FillingsUpdate:  mu: +0.718722256  nElectrons: 416.000000
LCAOMinimize: Iter:   0  F: -1841.5756038166341568  |grad|_K:  6.434e-03  alpha:  1.000e+00
	FillingsUpdate:  mu: +0.653970526  nElectrons: 416.000000
LCAOMinimize: Iter:   1  F: -1883.3002369521645960  |grad|_K:  1.353e-02  alpha:  2.103e-01  linmin: -2.674e-02  cgtest:  2.151e-01  t[s]:     84.08
LCAOMinimize: 	Step increased F by 3.327841e+01, reducing alpha to 5.072601e-03.
	FillingsUpdate:  mu: +0.621098202  nElectrons: 416.000000
LCAOMinimize: Iter:   2  F: -1887.5030503768618928  |grad|_K:  1.196e-02  alpha:  5.073e-03  linmin: -6.412e-02  cgtest:  9.668e-01  t[s]:    136.45
LCAOMinimize: Encountered beta<0, resetting CG.
LCAOMinimize: 	Predicted alpha/alphaT>3.000000, increasing alphaT to 1.521780e-02.
	FillingsUpdate:  mu: +0.533825530  nElectrons: 416.000000
LCAOMinimize: Iter:   3  F: -1891.9285809452132980  |grad|_K:  5.082e-03  alpha:  2.195e-02  linmin:  1.134e-01  cgtest: -2.775e-01  t[s]:    173.56
LCAOMinimize: 	Predicted alpha/alphaT>3.000000, increasing alphaT to 6.584491e-02.
	FillingsUpdate:  mu: +0.490414355  nElectrons: 416.000000
LCAOMinimize: Iter:   4  F: -1895.5517681430824268  |grad|_K:  9.495e-03  alpha:  1.106e-01  linmin: -1.491e-02  cgtest:  2.855e-01  t[s]:    210.48
	FillingsUpdate:  mu: +0.461434499  nElectrons: 416.000000
LCAOMinimize: Iter:   5  F: -1899.4785512547759936  |grad|_K:  6.888e-03  alpha:  1.267e-02  linmin: -8.552e-02  cgtest:  9.312e-01  t[s]:    240.46
LCAOMinimize: Encountered beta<0, resetting CG.
	FillingsUpdate:  mu: +0.469885608  nElectrons: 416.000000
LCAOMinimize: Iter:   6  F: -1901.4311611933558197  |grad|_K:  2.746e-03  alpha:  2.825e-02  linmin: -7.765e-03  cgtest: -2.341e-02  t[s]:    270.92
LCAOMinimize: 	Predicted alpha/alphaT>3.000000, increasing alphaT to 8.475496e-02.
	FillingsUpdate:  mu: +0.473631559  nElectrons: 416.000000
LCAOMinimize: Iter:   7  F: -1902.4634073778215679  |grad|_K:  3.878e-03  alpha:  9.048e-02  linmin:  4.231e-04  cgtest: -1.593e-01  t[s]:    308.17
	FillingsUpdate:  mu: +0.475966463  nElectrons: 416.000000
LCAOMinimize: Iter:   8  F: -1903.0829070841357407  |grad|_K:  2.714e-03  alpha:  1.800e-02  linmin: -6.437e-02  cgtest:  9.892e-01  t[s]:    337.72
LCAOMinimize: Encountered beta<0, resetting CG.
	FillingsUpdate:  mu: +0.490154263  nElectrons: 416.000000
LCAOMinimize: Iter:   9  F: -1903.3587799489478130  |grad|_K:  8.374e-04  alpha:  2.497e-02  linmin:  5.059e-03  cgtest:  5.237e-03  t[s]:    367.42
	FillingsUpdate:  mu: +0.494347864  nElectrons: 416.000000
LCAOMinimize: Iter:  10  F: -1903.4060280291603249  |grad|_K:  5.577e-04  alpha:  4.573e-02  linmin:  1.607e-02  cgtest: -6.787e-02  t[s]:    397.58
	FillingsUpdate:  mu: +0.515290561  nElectrons: 416.000000
LCAOMinimize: Iter:  11  F: -1903.4540819332660249  |grad|_K:  3.719e-04  alpha:  1.117e-01  linmin:  1.925e-02  cgtest:  1.115e-01  t[s]:    427.47
	FillingsUpdate:  mu: +0.519571518  nElectrons: 416.000000
LCAOMinimize: Iter:  12  F: -1903.4596198227361583  |grad|_K:  1.328e-04  alpha:  2.885e-02  linmin:  8.538e-03  cgtest:  1.973e-01  t[s]:    457.80
	FillingsUpdate:  mu: +0.518581370  nElectrons: 416.000000
LCAOMinimize: Iter:  13  F: -1903.4613596881292779  |grad|_K:  1.410e-04  alpha:  6.604e-02  linmin:  6.995e-04  cgtest: -3.936e-04  t[s]:    487.96
	FillingsUpdate:  mu: +0.515919269  nElectrons: 416.000000
LCAOMinimize: Iter:  14  F: -1903.4639116855751126  |grad|_K:  1.338e-04  alpha:  8.566e-02  linmin:  2.467e-04  cgtest: -1.034e-02  t[s]:    517.53
	FillingsUpdate:  mu: +0.515197078  nElectrons: 416.000000
LCAOMinimize: Iter:  15  F: -1903.4650756350577012  |grad|_K:  7.188e-05  alpha:  4.299e-02  linmin: -1.237e-03  cgtest:  6.256e-03  t[s]:    547.58
LCAOMinimize: 	Predicted alpha/alphaT>3.000000, increasing alphaT to 1.289699e-01.
	FillingsUpdate:  mu: +0.516329156  nElectrons: 416.000000
LCAOMinimize: Iter:  16  F: -1903.4661107008105319  |grad|_K:  1.276e-04  alpha:  1.328e-01  linmin:  3.217e-04  cgtest: -4.559e-03  t[s]:    584.31
	FillingsUpdate:  mu: +0.518812385  nElectrons: 416.000000
LCAOMinimize: Iter:  17  F: -1903.4675269309623218  |grad|_K:  4.238e-05  alpha:  5.708e-02  linmin: -2.241e-03  cgtest:  1.199e-01  t[s]:    613.87
	FillingsUpdate:  mu: +0.518962427  nElectrons: 416.000000
LCAOMinimize: Iter:  18  F: -1903.4676306507399204  |grad|_K:  1.706e-05  alpha:  3.813e-02  linmin:  1.675e-06  cgtest: -1.837e-02  t[s]:    643.97
	FillingsUpdate:  mu: +0.518786996  nElectrons: 416.000000
LCAOMinimize: Iter:  19  F: -1903.4676716795627271  |grad|_K:  2.094e-05  alpha:  9.379e-02  linmin: -1.010e-04  cgtest:  2.719e-03  t[s]:    673.48
	FillingsUpdate:  mu: +0.518687919  nElectrons: 416.000000
LCAOMinimize: Iter:  20  F: -1903.4677012834479228  |grad|_K:  7.798e-06  alpha:  4.490e-02  linmin: -7.402e-06  cgtest: -6.533e-03  t[s]:    703.83
	FillingsUpdate:  mu: +0.518696381  nElectrons: 416.000000
LCAOMinimize: Iter:  21  F: -1903.4677076118862260  |grad|_K:  9.674e-06  alpha:  6.923e-02  linmin:  1.353e-05  cgtest:  1.975e-04  t[s]:    733.80
	FillingsUpdate:  mu: +0.518873825  nElectrons: 416.000000
LCAOMinimize: Iter:  22  F: -1903.4677228563632525  |grad|_K:  8.347e-06  alpha:  1.084e-01  linmin:  1.195e-04  cgtest:  3.190e-04  t[s]:    763.77
	FillingsUpdate:  mu: +0.518909216  nElectrons: 416.000000
LCAOMinimize: Iter:  23  F: -1903.4677264911329075  |grad|_K:  3.826e-06  alpha:  3.474e-02  linmin:  8.368e-06  cgtest:  2.825e-03  t[s]:    793.85
	FillingsUpdate:  mu: +0.518892704  nElectrons: 416.000000
LCAOMinimize: Iter:  24  F: -1903.4677279015984368  |grad|_K:  3.645e-06  alpha:  6.408e-02  linmin: -3.441e-05  cgtest: -2.935e-05  t[s]:    823.78
	FillingsUpdate:  mu: +0.518860014  nElectrons: 416.000000
LCAOMinimize: Iter:  25  F: -1903.4677293191475655  |grad|_K:  1.371e-06  alpha:  7.097e-02  linmin: -3.648e-05  cgtest: -1.420e-03  t[s]:    854.02
	FillingsUpdate:  mu: +0.518855890  nElectrons: 416.000000
LCAOMinimize: Iter:  26  F: -1903.4677294074301699  |grad|_K:  8.421e-07  alpha:  3.117e-02  linmin:  1.312e-04  cgtest: -7.180e-04  t[s]:    884.00
LCAOMinimize: 	Predicted alpha/alphaT>3.000000, increasing alphaT to 9.351897e-02.
	FillingsUpdate:  mu: +0.518863050  nElectrons: 416.000000
LCAOMinimize: Iter:  27  F: -1903.4677295707670055  |grad|_K:  1.152e-06  alpha:  1.531e-01  linmin: -2.494e-05  cgtest:  1.070e-03  t[s]:    920.92
LCAOMinimize: Converged (|Delta F|<1.000000e-06 for 2 iters).


---- Citations for features of the code used in this run ----

   Software package:
      R. Sundararaman, K. Letchworth-Weaver, K.A. Schwarz, D. Gunceler, Y. Ozhabes and T.A. Arias, 'JDFTx: software for joint density-functional theory', SoftwareX 6, 278 (2017)

   gga-PBEsol exchange-correlation functional:
      J.P. Perdew et al., Phys. Rev. Lett. 100, 136406 (2008)

   Pseudopotentials:
      KF Garrity, JW Bennett, KM Rabe and D Vanderbilt, Comput. Mater. Sci. 81, 446 (2014)

This list may not be complete. Please suggest additional citations or
report any other bugs at https://github.com/shankar1729/jdftx/issues

Initialization completed successfully at t[s]:    932.96


-------- Electronic minimization -----------
Will mix electronic density at each iteration.
	FillingsUpdate:  mu: +0.518863050  nElectrons: 416.000000
	FillingsUpdate:  mu: +0.506776066  nElectrons: 416.000000
SCF: Cycle:  0   F: -1904.677157756902943   dF: -1.209e+00   |Residual|: 1.422e+00   |deigs|: 3.273e-02  t[s]:   1050.34
	FillingsUpdate:  mu: +0.459736056  nElectrons: 416.000000
SCF: Cycle:  1   F: -1904.642944594248092   dF: +3.421e-02   |Residual|: 5.890e-01   |deigs|: 4.949e-02  t[s]:   1146.82
	FillingsUpdate:  mu: +0.426492716  nElectrons: 416.000000
SCF: Cycle:  2   F: -1883.870044599904304   dF: +2.077e+01   |Residual|: 2.285e+00   |deigs|: 3.501e-02  t[s]:   1244.94
	FillingsUpdate:  mu: +0.433872683  nElectrons: 416.000000
SCF: Cycle:  3   F: -1900.463129181683598   dF: -1.659e+01   |Residual|: 1.191e+00   |deigs|: 2.091e-02  t[s]:   1340.83
	FillingsUpdate:  mu: +0.438275241  nElectrons: 416.000000
SCF: Cycle:  4   F: -1905.323171593422103   dF: -4.860e+00   |Residual|: 3.567e-01   |deigs|: 8.960e-03  t[s]:   1437.56
	FillingsUpdate:  mu: +0.440792741  nElectrons: 416.000000
SCF: Cycle:  5   F: -1905.128619129862955   dF: +1.946e-01   |Residual|: 4.148e-01   |deigs|: 3.025e-03  t[s]:   1534.60
	FillingsUpdate:  mu: +0.442824313  nElectrons: 416.000000
SCF: Cycle:  6   F: -1905.528688852069081   dF: -4.001e-01   |Residual|: 2.105e-01   |deigs|: 2.180e-03  t[s]:   1632.58
	FillingsUpdate:  mu: +0.441693812  nElectrons: 416.000000
SCF: Cycle:  7   F: -1905.568570286494833   dF: -3.988e-02   |Residual|: 1.690e-01   |deigs|: 1.297e-03  t[s]:   1728.77
	FillingsUpdate:  mu: +0.441484182  nElectrons: 416.000000
SCF: Cycle:  8   F: -1905.588625110267003   dF: -2.005e-02   |Residual|: 1.778e-01   |deigs|: 7.824e-04  t[s]:   1824.42
	FillingsUpdate:  mu: +0.442005912  nElectrons: 416.000000
SCF: Cycle:  9   F: -1905.673577211850670   dF: -8.495e-02   |Residual|: 6.872e-02   |deigs|: 6.373e-04  t[s]:   1905.36
	FillingsUpdate:  mu: +0.442055551  nElectrons: 416.000000
SCF: Cycle: 10   F: -1905.675187105225859   dF: -1.610e-03   |Residual|: 6.533e-02   |deigs|: 3.714e-04  t[s]:   1963.89
	FillingsUpdate:  mu: +0.441964676  nElectrons: 416.000000
SCF: Cycle: 11   F: -1905.687936603247863   dF: -1.275e-02   |Residual|: 3.087e-02   |deigs|: 3.325e-04  t[s]:   2022.03
	FillingsUpdate:  mu: +0.441965574  nElectrons: 416.000000
SCF: Cycle: 12   F: -1905.687826011497918   dF: +1.106e-04   |Residual|: 3.206e-02   |deigs|: 2.461e-04  t[s]:   2081.23
	FillingsUpdate:  mu: +0.441967148  nElectrons: 416.000000
SCF: Cycle: 13   F: -1905.691284483900972   dF: -3.458e-03   |Residual|: 5.987e-03   |deigs|: 1.584e-04  t[s]:   2140.42
	FillingsUpdate:  mu: +0.441965288  nElectrons: 416.000000
SCF: Cycle: 14   F: -1905.691251761811145   dF: +3.272e-05   |Residual|: 6.623e-03   |deigs|: 8.736e-05  t[s]:   2199.88
	FillingsUpdate:  mu: +0.441959484  nElectrons: 416.000000
SCF: Cycle: 15   F: -1905.691352382280002   dF: -1.006e-04   |Residual|: 3.885e-03   |deigs|: 5.579e-05  t[s]:   2258.30
	FillingsUpdate:  mu: +0.441947039  nElectrons: 416.000000
SCF: Cycle: 16   F: -1905.691320092809065   dF: +3.229e-05   |Residual|: 5.225e-03   |deigs|: 4.909e-05  t[s]:   2317.84
	FillingsUpdate:  mu: +0.441941278  nElectrons: 416.000000
SCF: Cycle: 17   F: -1905.691387766513117   dF: -6.767e-05   |Residual|: 2.748e-03   |deigs|: 3.801e-05  t[s]:   2376.59
	FillingsUpdate:  mu: +0.441941441  nElectrons: 416.000000
SCF: Cycle: 18   F: -1905.691342710368872   dF: +4.506e-05   |Residual|: 4.280e-03   |deigs|: 3.689e-05  t[s]:   2435.86
	FillingsUpdate:  mu: +0.441951775  nElectrons: 416.000000
SCF: Cycle: 19   F: -1905.691409560476586   dF: -6.685e-05   |Residual|: 7.888e-04   |deigs|: 3.330e-05  t[s]:   2495.81
	FillingsUpdate:  mu: +0.441956697  nElectrons: 416.000000
SCF: Cycle: 20   F: -1905.691404742838131   dF: +4.818e-06   |Residual|: 1.424e-03   |deigs|: 1.225e-05  t[s]:   2554.76
	FillingsUpdate:  mu: +0.441953468  nElectrons: 416.000000
SCF: Cycle: 21   F: -1905.691410690723387   dF: -5.948e-06   |Residual|: 6.462e-04   |deigs|: 1.080e-05  t[s]:   2614.08
	FillingsUpdate:  mu: +0.441952131  nElectrons: 416.000000
SCF: Cycle: 22   F: -1905.691411232999371   dF: -5.423e-07   |Residual|: 4.571e-04   |deigs|: 5.889e-06  t[s]:   2671.06
	FillingsUpdate:  mu: +0.441950302  nElectrons: 416.000000
SCF: Cycle: 23   F: -1905.691410530587518   dF: +7.024e-07   |Residual|: 6.203e-04   |deigs|: 5.495e-06  t[s]:   2730.27
	FillingsUpdate:  mu: +0.441949048  nElectrons: 416.000000
SCF: Cycle: 24   F: -1905.691411668417686   dF: -1.138e-06   |Residual|: 3.066e-04   |deigs|: 4.955e-06  t[s]:   2789.57
	FillingsUpdate:  mu: +0.441952726  nElectrons: 416.000000
SCF: Cycle: 25   F: -1905.691411915763638   dF: -2.473e-07   |Residual|: 1.677e-04   |deigs|: 3.965e-06  t[s]:   2847.69
	FillingsUpdate:  mu: +0.441952980  nElectrons: 416.000000
SCF: Cycle: 26   F: -1905.691411823751650   dF: +9.201e-08   |Residual|: 2.397e-04   |deigs|: 2.213e-06  t[s]:   2905.95
	FillingsUpdate:  mu: +0.441952225  nElectrons: 416.000000
SCF: Cycle: 27   F: -1905.691411853752470   dF: -3.000e-08   |Residual|: 1.924e-04   |deigs|: 2.227e-06  t[s]:   2964.55
	FillingsUpdate:  mu: +0.441951985  nElectrons: 416.000000
SCF: Cycle: 28   F: -1905.691411983129001   dF: -1.294e-07   |Residual|: 7.124e-05   |deigs|: 1.647e-06  t[s]:   3024.14
	FillingsUpdate:  mu: +0.441951841  nElectrons: 416.000000
SCF: Cycle: 29   F: -1905.691411934535381   dF: +4.859e-08   |Residual|: 1.313e-04   |deigs|: 1.086e-06  t[s]:   3081.95
	FillingsUpdate:  mu: +0.441951962  nElectrons: 416.000000
SCF: Cycle: 30   F: -1905.691411991491805   dF: -5.696e-08   |Residual|: 4.388e-05   |deigs|: 1.059e-06  t[s]:   3141.15
	FillingsUpdate:  mu: +0.441952187  nElectrons: 416.000000
SCF: Cycle: 31   F: -1905.691411996795750   dF: -5.304e-09   |Residual|: 2.433e-05   |deigs|: 6.583e-07  t[s]:   3197.85
	FillingsUpdate:  mu: +0.441952313  nElectrons: 416.000000
SCF: Cycle: 32   F: -1905.691411990455435   dF: +6.340e-09   |Residual|: 4.757e-05   |deigs|: 5.887e-07  t[s]:   3254.83
	FillingsUpdate:  mu: +0.441952202  nElectrons: 416.000000
SCF: Cycle: 33   F: -1905.691411997325986   dF: -6.871e-09   |Residual|: 2.132e-05   |deigs|: 5.628e-07  t[s]:   3311.01
	FillingsUpdate:  mu: +0.441952155  nElectrons: 416.000000
SCF: Cycle: 34   F: -1905.691411997815749   dF: -4.898e-10   |Residual|: 1.783e-05   |deigs|: 4.058e-07  t[s]:   3357.29
SCF: Converged (|Delta E|<1.000000e-08 for 2 iters).

Setting wave functions to eigenvectors of Hamiltonian

# Ionic positions in lattice coordinates:
ion Cr   0.253480000000000   0.259630000000000   0.239120000000000 1
ion Cr   0.001010000000000   0.015440000000000  -0.010950000000000 1
ion Cr   0.262210000000000   0.241330000000000   0.755140000000000 1
ion Cr  -0.007940000000000   0.006900000000000   0.507830000000000 1
ion Cr   0.246950000000000   0.749880000000000   0.249520000000000 1
ion Cr  -0.013540000000000   0.503840000000000  -0.008110000000000 1
ion Cr   0.242990000000000   0.761120000000000   0.752660000000000 1
ion Cr   0.004350000000000   0.513300000000000   0.515270000000000 1
ion Cr   0.761190000000000   0.255090000000000   0.245160000000000 1
ion Cr   0.489640000000000  -0.007840000000000  -0.001720000000000 1
ion Cr   0.754400000000000   0.247900000000000   0.765730000000000 1
ion Cr   0.518990000000000   0.002690000000000   0.510740000000000 1
ion Cr   0.741060000000000   0.756340000000000   0.271270000000000 1
ion Cr   0.512390000000000   0.492270000000000  -0.015080000000000 1
ion Cr   0.756210000000000   0.753600000000000   0.756060000000000 1
ion Cr   0.500900000000000   0.498820000000000   0.495840000000000 1
ion O  -0.005360000000000   0.350650000000000   0.365630000000000 1
ion O   0.239950000000000   0.381240000000000   0.106980000000000 1
ion O   0.004880000000000   0.124970000000000   0.159880000000000 1
ion O   0.245610000000000   0.091290000000000   0.415010000000000 1
ion O   0.005850000000000   0.340400000000000   0.833060000000000 1
ion O   0.241220000000000   0.395890000000000   0.583350000000000 1
ion O  -0.005110000000000   0.150800000000000   0.643290000000000 1
ion O   0.246100000000000   0.096710000000000   0.892540000000000 1
ion O   0.005580000000000   0.851670000000000   0.349120000000000 1
ion O   0.263140000000000   0.907630000000000   0.087110000000000 1
ion O   0.016860000000000   0.652950000000000   0.145940000000000 1
ion O   0.236010000000000   0.582130000000000   0.394360000000000 1
ion O  -0.019980000000000   0.847740000000000   0.844940000000000 1
ion O   0.249470000000000   0.884140000000000   0.610600000000000 1
ion O   0.000330000000000   0.669210000000000   0.649850000000000 1
ion O   0.261850000000000   0.577270000000000   0.910370000000000 1
ion O   0.504980000000000   0.338330000000000   0.334440000000000 1
ion O   0.756290000000000   0.398760000000000   0.095650000000000 1
ion O   0.497180000000000   0.160430000000000   0.131920000000000 1
ion O   0.745050000000000   0.094160000000000   0.403210000000000 1
ion O   0.499060000000000   0.354400000000000   0.864100000000000 1
ion O   0.751460000000000   0.392300000000000   0.592300000000000 1
ion O   0.505600000000000   0.156580000000000   0.640710000000000 1
ion O   0.746020000000000   0.103530000000000   0.902770000000000 1
ion O   0.503550000000000   0.845870000000000   0.336740000000000 1
ion O   0.753680000000000   0.898990000000000   0.105870000000000 1
ion O   0.490530000000000   0.656310000000000   0.152900000000000 1
ion O   0.746610000000000   0.595880000000000   0.412720000000000 1
ion O   0.501650000000000   0.833530000000000   0.853820000000000 1
ion O   0.729660000000000   0.892890000000000   0.607830000000000 1
ion O   0.487770000000000   0.661340000000000   0.647930000000000 1
ion O   0.749980000000000   0.588510000000000   0.911190000000000 1

# Forces in Lattice coordinates:
force Cr  -0.487520332907979  -0.916206858668133   0.497876290918421 1
force Cr  -0.183251879570465  -0.871846471066631   0.926942111322956 1
force Cr   0.213792640723965   0.145421574038767  -0.803450702938296 1
force Cr   0.010872093170464  -0.227757145266510  -0.074427813118582 1
force Cr  -0.196455019627272  -0.538153507514666  -0.548150360313389 1
force Cr   0.643081180310670  -0.542733051288802   1.008703120945228 1
force Cr   0.199690266037226  -0.598751086747380  -0.174475330843162 1
force Cr  -0.156978323175072  -0.585941885426370   0.023075809190891 1
force Cr   0.395885319082385  -0.321833615050623   0.006827868467323 1
force Cr   0.678680687268244   0.048125486603677   0.353133459042146 1
force Cr  -0.493408108845272  -0.217779545432967  -1.094797398530177 1
force Cr  -0.347291656728929   0.125626710690077  -0.089107020553535 1
force Cr   0.677292857511574  -0.666002361963060  -1.215476382454051 1
force Cr  -0.216655940229602   0.119450462964640   1.710406481281742 1
force Cr  -0.529188865275402  -0.559423288582571  -0.671525951915775 1
force Cr  -0.167749151479249  -0.234499144108615   0.528019845233064 1
force O  -0.028800783939704  -0.334195416753210  -0.667945817344110 1
force O  -0.097397169492974   0.961655168129349  -0.846556871761182 1
force O  -0.030337990613003   0.561972594388612  -0.084297353696088 1
force O   0.116811555580268   0.006064416909815  -0.241847599911019 1
force O   0.116499665237798   0.824464108104731   0.822470062226741 1
force O   0.242857002706508  -0.206068388216200   0.722238498953127 1
force O   0.058976779513289  -0.035298990780147   0.460890313198780 1
force O   0.133640554155635   0.302428781620023  -0.366989163932278 1
force O  -0.062277842477162   0.100585060821068   0.383929469781885 1
force O  -0.461698019380668  -0.773242720273890   0.763087902032362 1
force O  -0.224531873544633  -0.223572454102972  -0.126230887635725 1
force O   0.239672459418175   0.723034949154634  -0.330607266829570 1
force O   0.400033502138800   0.882746908444872   1.054937651681474 1
force O  -0.028167376854782   1.088692103163560  -0.614822105121886 1
force O  -0.060456776091610  -1.086242202506113  -0.396483815534383 1
force O  -0.380324803725070   0.761493463985892  -0.586220791598377 1
force O   0.005164589405527   0.611069943364646   0.764257370850905 1
force O   0.079652179542047  -0.360605806974524   0.431602798003140 1
force O   0.112365026903616  -0.311000468846669   0.284699497869597 1
force O   0.076406769928210   0.369202516444975  -0.533754826292431 1
force O   0.004151173265418  -0.982078293525447  -0.909209506460186 1
force O  -0.132000201134800   0.270428348171869   0.335740163955840 1
force O  -0.005422023669042  -0.259532565575864   0.285705751535009 1
force O  -0.049077511633846   0.116729002715925  -0.293088537833151 1
force O  -0.450591802506790   0.896522874835747   1.138872747780704 1
force O  -0.133791263844072   0.125918897551942  -0.326676301270520 1
force O   0.184577170907913  -0.248093883933519   0.004012412912706 1
force O   0.059477157960595   0.671396929065666  -0.696596016217701 1
force O  -0.059813711619775   0.567395709512413   0.549564043519967 1
force O   0.283400942826107   0.004800700393882   0.103717733494025 1
force O   0.122263808114783  -0.710396475964980  -0.016155513120448 1
force O  -0.075473701653639   1.461654311931358  -1.446219895090326 1

# Energy components:
   Eewald =    -1323.4427161908192829
       EH =      521.1462230702106808
     Eloc =    -1596.5619777644869828
      Enl =      223.3391490759277076
      Exc =     -292.6556209117232470
 Exc_core =       13.9083343842257019
       KE =      548.9172506528367421
-------------------------------------
     Etot =    -1905.3493576838291119
       TS =        0.3420543139865666
-------------------------------------
        F =    -1905.6914119978157487

IonicMinimize: Iter:   0  F: -1905.691411997815749  |grad|_K:  3.452e-02  t[s]:   3370.54

#--- Lowdin population analysis ---
# oxidation-state Cr +1.338 +1.312 +1.287 +1.322 +1.346 +1.295 +1.318 +1.361 +1.342 +1.323 +1.292 +1.313 +1.345 +1.292 +1.310 +1.355
# oxidation-state O -0.650 -0.562 -0.645 -0.642 -0.604 -0.623 -0.615 -0.595 -0.649 -0.548 -0.643 -0.617 -0.603 -0.610 -0.625 -0.606 -0.584 -0.630 -0.672 -0.575 -0.565 -0.664 -0.619 -0.625 -0.539 -0.674 -0.667 -0.625 -0.634 -0.602 -0.696 -0.506


-------- Electronic minimization -----------
Will mix electronic density at each iteration.
	FillingsUpdate:  mu: +0.441952155  nElectrons: 416.000000
	FillingsUpdate:  mu: +0.439205449  nElectrons: 416.000000
SCF: Cycle:  0   F: -1890.687971891622283   dF: +1.271e+01   |Residual|: 2.005e+00   |deigs|: 7.964e-03  t[s]:   3505.73
	FillingsUpdate:  mu: +0.389897539  nElectrons: 416.000000
SCF: Cycle:  1   F: -1819.098104970878239   dF: +7.159e+01   |Residual|: 4.751e+00   |deigs|: 9.288e-02  t[s]:   3603.83
	FillingsUpdate:  mu: +0.445018297  nElectrons: 416.000000
SCF: Cycle:  2   F: -1882.202263367480555   dF: -6.310e+01   |Residual|: 2.602e+00   |deigs|: 7.685e-02  t[s]:   3701.39
	FillingsUpdate:  mu: +0.446332489  nElectrons: 416.000000
SCF: Cycle:  3   F: -1897.581343429467779   dF: -1.538e+01   |Residual|: 1.548e+00   |deigs|: 2.065e-02  t[s]:   3798.78
	FillingsUpdate:  mu: +0.432843689  nElectrons: 416.000000
SCF: Cycle:  4   F: -1894.130878869523031   dF: +3.450e+00   |Residual|: 1.904e+00   |deigs|: 1.524e-02  t[s]:   3895.79
	FillingsUpdate:  mu: +0.431611020  nElectrons: 416.000000
SCF: Cycle:  5   F: -1900.126478440205801   dF: -5.996e+00   |Residual|: 1.260e+00   |deigs|: 1.343e-02  t[s]:   3992.36
	FillingsUpdate:  mu: +0.436004823  nElectrons: 416.000000
SCF: Cycle:  6   F: -1902.550340300611197   dF: -2.424e+00   |Residual|: 9.177e-01   |deigs|: 5.990e-03  t[s]:   4090.62
	FillingsUpdate:  mu: +0.442696878  nElectrons: 416.000000
SCF: Cycle:  7   F: -1905.344539617205101   dF: -2.794e+00   |Residual|: 3.535e-01   |deigs|: 7.261e-03  t[s]:   4190.24
	FillingsUpdate:  mu: +0.439909461  nElectrons: 416.000000
SCF: Cycle:  8   F: -1904.527376179972407   dF: +8.172e-01   |Residual|: 6.053e-01   |deigs|: 3.162e-03  t[s]:   4288.61
	FillingsUpdate:  mu: +0.438601471  nElectrons: 416.000000
SCF: Cycle:  9   F: -1905.743725626877904   dF: -1.216e+00   |Residual|: 1.424e-01   |deigs|: 3.357e-03  t[s]:   4388.20
	FillingsUpdate:  mu: +0.439082063  nElectrons: 416.000000
SCF: Cycle: 10   F: -1905.510828263506482   dF: +2.329e-01   |Residual|: 2.922e-01   |deigs|: 1.375e-03  t[s]:   4486.90
	FillingsUpdate:  mu: +0.439259171  nElectrons: 416.000000
SCF: Cycle: 11   F: -1905.762198357757597   dF: -2.514e-01   |Residual|: 1.067e-01   |deigs|: 1.254e-03  t[s]:   4584.91
	FillingsUpdate:  mu: +0.439037378  nElectrons: 416.000000
SCF: Cycle: 12   F: -1905.788348215694441   dF: -2.615e-02   |Residual|: 6.454e-02   |deigs|: 4.442e-04  t[s]:   4665.55
	FillingsUpdate:  mu: +0.438893495  nElectrons: 416.000000
SCF: Cycle: 13   F: -1905.772465962807246   dF: +1.588e-02   |Residual|: 9.663e-02   |deigs|: 3.752e-04  t[s]:   4740.66
	FillingsUpdate:  mu: +0.438990683  nElectrons: 416.000000
SCF: Cycle: 14   F: -1905.799527762573689   dF: -2.706e-02   |Residual|: 3.980e-02   |deigs|: 3.916e-04  t[s]:   4800.67
	FillingsUpdate:  mu: +0.438722018  nElectrons: 416.000000
SCF: Cycle: 15   F: -1905.795932702716982   dF: +3.595e-03   |Residual|: 5.090e-02   |deigs|: 4.142e-04  t[s]:   4860.00
	FillingsUpdate:  mu: +0.439067321  nElectrons: 416.000000
SCF: Cycle: 16   F: -1905.804944800224575   dF: -9.012e-03   |Residual|: 1.278e-02   |deigs|: 4.202e-04  t[s]:   4919.58
	FillingsUpdate:  mu: +0.439002657  nElectrons: 416.000000
SCF: Cycle: 17   F: -1905.803607032522677   dF: +1.338e-03   |Residual|: 2.338e-02   |deigs|: 1.651e-04  t[s]:   4976.90
	FillingsUpdate:  mu: +0.438954209  nElectrons: 416.000000
SCF: Cycle: 18   F: -1905.804521684710608   dF: -9.147e-04   |Residual|: 1.561e-02   |deigs|: 1.428e-04  t[s]:   5036.54
	FillingsUpdate:  mu: +0.438980248  nElectrons: 416.000000
SCF: Cycle: 19   F: -1905.805182315454886   dF: -6.606e-04   |Residual|: 8.701e-03   |deigs|: 1.035e-04  t[s]:   5094.72
	FillingsUpdate:  mu: +0.438999505  nElectrons: 416.000000
SCF: Cycle: 20   F: -1905.805223904565992   dF: -4.159e-05   |Residual|: 8.950e-03   |deigs|: 6.417e-05  t[s]:   5154.91
	FillingsUpdate:  mu: +0.438995151  nElectrons: 416.000000
SCF: Cycle: 21   F: -1905.805427469223559   dF: -2.036e-04   |Residual|: 4.000e-03   |deigs|: 5.106e-05  t[s]:   5213.14
	FillingsUpdate:  mu: +0.438992743  nElectrons: 416.000000
SCF: Cycle: 22   F: -1905.805397752252020   dF: +2.972e-05   |Residual|: 4.852e-03   |deigs|: 4.259e-05  t[s]:   5272.37
	FillingsUpdate:  mu: +0.438980206  nElectrons: 416.000000
SCF: Cycle: 23   F: -1905.805273317595720   dF: +1.244e-04   |Residual|: 7.124e-03   |deigs|: 5.971e-05  t[s]:   5332.16
	FillingsUpdate:  mu: +0.438988182  nElectrons: 416.000000
SCF: Cycle: 24   F: -1905.805428155519849   dF: -1.548e-04   |Residual|: 3.939e-03   |deigs|: 5.213e-05  t[s]:   5392.17
	FillingsUpdate:  mu: +0.438986857  nElectrons: 416.000000
SCF: Cycle: 25   F: -1905.805468354012874   dF: -4.020e-05   |Residual|: 1.780e-03   |deigs|: 2.883e-05  t[s]:   5452.17
	FillingsUpdate:  mu: +0.438996947  nElectrons: 416.000000
SCF: Cycle: 26   F: -1905.805454808554714   dF: +1.355e-05   |Residual|: 2.727e-03   |deigs|: 2.300e-05  t[s]:   5511.79
	FillingsUpdate:  mu: +0.438983730  nElectrons: 416.000000
SCF: Cycle: 27   F: -1905.805417165807057   dF: +3.764e-05   |Residual|: 4.240e-03   |deigs|: 3.440e-05  t[s]:   5570.67
	FillingsUpdate:  mu: +0.438984960  nElectrons: 416.000000
SCF: Cycle: 28   F: -1905.805468971081609   dF: -5.181e-05   |Residual|: 1.922e-03   |deigs|: 2.863e-05  t[s]:   5628.83
	FillingsUpdate:  mu: +0.438987628  nElectrons: 416.000000
SCF: Cycle: 29   F: -1905.805472793003446   dF: -3.822e-06   |Residual|: 1.546e-03   |deigs|: 1.454e-05  t[s]:   5688.22
	FillingsUpdate:  mu: +0.438987412  nElectrons: 416.000000
SCF: Cycle: 30   F: -1905.805474713547483   dF: -1.921e-06   |Residual|: 1.206e-03   |deigs|: 1.340e-05  t[s]:   5747.37
	FillingsUpdate:  mu: +0.438987296  nElectrons: 416.000000
SCF: Cycle: 31   F: -1905.805475298038118   dF: -5.845e-07   |Residual|: 1.348e-03   |deigs|: 1.133e-05  t[s]:   5807.38
	FillingsUpdate:  mu: +0.438986928  nElectrons: 416.000000
SCF: Cycle: 32   F: -1905.805480780651806   dF: -5.483e-06   |Residual|: 3.827e-04   |deigs|: 7.949e-06  t[s]:   5866.59
	FillingsUpdate:  mu: +0.438987142  nElectrons: 416.000000
SCF: Cycle: 33   F: -1905.805480113219119   dF: +6.674e-07   |Residual|: 5.837e-04   |deigs|: 4.849e-06  t[s]:   5924.96
	FillingsUpdate:  mu: +0.438987744  nElectrons: 416.000000
SCF: Cycle: 34   F: -1905.805479829918113   dF: +2.833e-07   |Residual|: 5.643e-04   |deigs|: 4.841e-06  t[s]:   5983.96
	FillingsUpdate:  mu: +0.438987225  nElectrons: 416.000000
SCF: Cycle: 35   F: -1905.805480465037590   dF: -6.351e-07   |Residual|: 4.608e-04   |deigs|: 5.010e-06  t[s]:   6044.33
	FillingsUpdate:  mu: +0.438987542  nElectrons: 416.000000
SCF: Cycle: 36   F: -1905.805480828573081   dF: -3.635e-07   |Residual|: 3.389e-04   |deigs|: 4.214e-06  t[s]:   6103.31
	FillingsUpdate:  mu: +0.438986709  nElectrons: 416.000000
SCF: Cycle: 37   F: -1905.805480743226326   dF: +8.535e-08   |Residual|: 3.478e-04   |deigs|: 3.432e-06  t[s]:   6163.70
	FillingsUpdate:  mu: +0.438986908  nElectrons: 416.000000
SCF: Cycle: 38   F: -1905.805480332639945   dF: +4.106e-07   |Residual|: 5.014e-04   |deigs|: 3.937e-06  t[s]:   6223.11
	FillingsUpdate:  mu: +0.438987089  nElectrons: 416.000000
SCF: Cycle: 39   F: -1905.805480970857388   dF: -6.382e-07   |Residual|: 2.667e-04   |deigs|: 3.599e-06  t[s]:   6281.83
	FillingsUpdate:  mu: +0.438987054  nElectrons: 416.000000
SCF: Cycle: 40   F: -1905.805481020164507   dF: -4.931e-08   |Residual|: 2.498e-04   |deigs|: 2.223e-06  t[s]:   6340.58
	FillingsUpdate:  mu: +0.438987191  nElectrons: 416.000000
SCF: Cycle: 41   F: -1905.805480777023604   dF: +2.431e-07   |Residual|: 3.181e-04   |deigs|: 2.753e-06  t[s]:   6399.33
	FillingsUpdate:  mu: +0.438987331  nElectrons: 416.000000
SCF: Cycle: 42   F: -1905.805481000253849   dF: -2.232e-07   |Residual|: 2.642e-04   |deigs|: 2.594e-06  t[s]:   6458.47
	FillingsUpdate:  mu: +0.438987418  nElectrons: 416.000000
SCF: Cycle: 43   F: -1905.805481191506487   dF: -1.913e-07   |Residual|: 1.010e-04   |deigs|: 1.580e-06  t[s]:   6517.77
	FillingsUpdate:  mu: +0.438987286  nElectrons: 416.000000
SCF: Cycle: 44   F: -1905.805481179344042   dF: +1.216e-08   |Residual|: 1.140e-04   |deigs|: 1.129e-06  t[s]:   6575.93
	FillingsUpdate:  mu: +0.438986957  nElectrons: 416.000000
SCF: Cycle: 45   F: -1905.805481161656871   dF: +1.769e-08   |Residual|: 1.376e-04   |deigs|: 1.120e-06  t[s]:   6634.57
	FillingsUpdate:  mu: +0.438987026  nElectrons: 416.000000
SCF: Cycle: 46   F: -1905.805481207493131   dF: -4.584e-08   |Residual|: 7.198e-05   |deigs|: 9.984e-07  t[s]:   6693.42
	FillingsUpdate:  mu: +0.438987003  nElectrons: 416.000000
SCF: Cycle: 47   F: -1905.805481208896936   dF: -1.404e-09   |Residual|: 6.382e-05   |deigs|: 7.145e-07  t[s]:   6752.09
	FillingsUpdate:  mu: +0.438987314  nElectrons: 416.000000
SCF: Cycle: 48   F: -1905.805481204750322   dF: +4.147e-09   |Residual|: 7.343e-05   |deigs|: 7.454e-07  t[s]:   6811.71
	FillingsUpdate:  mu: +0.438987281  nElectrons: 416.000000
SCF: Cycle: 49   F: -1905.805481210128391   dF: -5.378e-09   |Residual|: 6.633e-05   |deigs|: 6.650e-07  t[s]:   6870.38
Setting wave functions to eigenvectors of Hamiltonian

# Ionic positions in lattice coordinates:
ion Cr   0.249628380347458   0.257013541902097   0.240543637169111 1
ion Cr  -0.000437417382506   0.012950356312750  -0.008299294512454 1
ion Cr   0.263899862629688   0.241749817494274   0.752841882537877 1
ion Cr  -0.007853530806975   0.006252487877432   0.507616839122891 1
ion Cr   0.245398256917777   0.748344849761166   0.247952089658804 1
ion Cr  -0.008458078581260   0.502291569091626  -0.005225507292635 1
ion Cr   0.244568431553404   0.759411504303283   0.752160759764067 1
ion Cr   0.003110185289525   0.511628113669002   0.515335729331304 1
ion Cr   0.764318682940713   0.254173431574803   0.245179231118768 1
ion Cr   0.495003213858034  -0.007698573427306  -0.000710422701837 1
ion Cr   0.750501857600461   0.247281142977109   0.762598710994999 1
ion Cr   0.516246408793706   0.003053122393089   0.510484816750247 1
ion Cr   0.746412247806789   0.754439297099666   0.267793637388145 1
ion Cr   0.510678637678135   0.492615246712197  -0.010188803285170 1
ion Cr   0.752029133003516   0.752004035460752   0.754139253703720 1
ion Cr   0.499575078701658   0.498153135512198   0.497349763428992 1
ion O  -0.005587009316366   0.349698158042359   0.363719465848211 1
ion O   0.239180970687625   0.383994146617935   0.104558508048231 1
ion O   0.004640844318367   0.126581015432813   0.159638520281729 1
ion O   0.246533558589636   0.091311207501429   0.414318012274902 1
ion O   0.006771094162381   0.342761600675564   0.835411728525482 1
ion O   0.243139517082160   0.395304420926089   0.585415200666316 1
ion O  -0.004643427661755   0.150702830482567   0.644607758012278 1
ion O   0.247156534309378   0.097578786578320   0.891490088372901 1
ion O   0.005088468945520   0.851961450633154   0.350217643771491 1
ion O   0.259492417486764   0.905422369811228   0.089292091696707 1
ion O   0.015086405341700   0.652314461675153   0.145578688439059 1
ion O   0.237904354150811   0.584201662309595   0.393414086316234 1
ion O  -0.016818539848862   0.850268254616820   0.847956549320019 1
ion O   0.249247995601938   0.887257428706987   0.608841224947758 1
ion O  -0.000147141748293   0.666107368055576   0.648715901336152 1
ion O   0.258845394659236   0.579451678930301   0.908693059678512 1
ion O   0.505021370881461   0.340081327436192   0.336625272835658 1
ion O   0.756919940716195   0.397732497911184   0.096884037848550 1
ion O   0.498068423976695   0.159544380194406   0.132733907280575 1
ion O   0.745654296844557   0.095219770632070   0.401683151954350 1
ion O   0.499093363290276   0.351595324075631   0.861499558921370 1
ion O   0.750417551980195   0.393077186473328   0.593259808452509 1
ion O   0.505557719885419   0.155841571718500   0.641526778962948 1
ion O   0.745632772448005   0.103867700158741   0.901931456662073 1
ion O   0.499990174175066   0.848437642217705   0.339996591369857 1
ion O   0.752623399750530   0.899353986050980   0.104935398855295 1
ion O   0.491989014186212   0.655604318138685   0.152911170571134 1
ion O   0.747080526119801   0.597804027352595   0.410727411239614 1
ion O   0.501177939478650   0.835156450035047   0.855391282440879 1
ion O   0.731899878367737   0.892907552645606   0.608126285229217 1
ion O   0.488736640012559   0.659312194034530   0.647883547439805 1
ion O   0.749384200776280   0.592694151214776   0.907053489223356 1

# Forces in Lattice coordinates:
force Cr  -0.313362536152558  -0.550015891331515   0.313735754439586 1
force Cr  -0.095376191802086  -0.712956471637085   0.602418442233311 1
force Cr   0.083250685736722   0.223307841087177  -0.496496349041251 1
force Cr  -0.018783263422065  -0.214415556696235  -0.076343756259403 1
force Cr  -0.075233837163912  -0.256283052039372  -0.279175919741961 1
force Cr   0.248143103911900  -0.317653108110342   0.591095287205350 1
force Cr   0.099826212386671  -0.370779320353544  -0.137901806132000 1
force Cr  -0.117452746651409  -0.452736044784234  -0.149780317303074 1
force Cr   0.238283095473264  -0.250096246714182   0.113752322595778 1
force Cr   0.423402225049675   0.006718662855999   0.385871454091150 1
force Cr  -0.254817821798659  -0.005801961017634  -0.724467252810092 1
force Cr  -0.213456009400747  -0.031809428755165  -0.220493982181600 1
force Cr   0.304896829608452  -0.311852070307527  -0.808061717535619 1
force Cr  -0.064022957914114   0.047251358558085   1.020372792649956 1
force Cr  -0.244430237565309  -0.317140979973938  -0.324853029074193 1
force Cr  -0.087532383246943  -0.100295455089627   0.290605936892764 1
force O   0.008678411368005  -0.233990832833641  -0.526162459818064 1
force O  -0.050319356275762   0.639524064275217  -0.496735943359660 1
force O  -0.024927698942278   0.487509415331802  -0.114803908176009 1
force O   0.081929297210296   0.090538785287059  -0.258798651447939 1
force O   0.009389275912760   0.494937093329068   0.555919139912378 1
force O   0.188350531309438  -0.180648567349573   0.636266628378472 1
force O   0.044928868736140  -0.046418686851143   0.353381616258050 1
force O   0.071846681106142   0.120997693227516  -0.155997445126522 1
force O  -0.061102227680625   0.090333579976396   0.326818821409571 1
force O  -0.277438041483506  -0.510781252338656   0.508895690391482 1
force O  -0.234917517653993  -0.239767686547660  -0.125108649566614 1
force O   0.168894542400809   0.563439733659343  -0.187146057387401 1
force O   0.235407649237545   0.442621180133720   0.582285539022773 1
force O  -0.020612309977063   0.813213857973313  -0.392229112348399 1
force O  -0.036702716509008  -0.856096919806620  -0.250271377399206 1
force O  -0.219715958878123   0.695528334228454  -0.544078788952404 1
force O  -0.016066213340199   0.415501832500549   0.513366233171969 1
force O   0.047872008082898  -0.302549111621669   0.356863148717145 1
force O   0.074739388578105  -0.241328328270504   0.320815451183387 1
force O   0.055368648249888   0.287038595365079  -0.390259875229289 1
force O   0.021088265343143  -0.439428960591933  -0.471249158725808 1
force O  -0.109364990646134   0.219403764081860   0.311561904152705 1
force O   0.011647951223885  -0.298036885998217   0.157003234335390 1
force O  -0.013056883243276   0.090646252974849  -0.268902911765114 1
force O  -0.150564465049021   0.398361777594786   0.711565243610863 1
force O  -0.098113591637710   0.070818796031096  -0.222685632872180 1
force O   0.167849750500433  -0.260656369641656  -0.042187823826175 1
force O   0.033954562477338   0.485071396602284  -0.543869238218763 1
force O  -0.062920005917853   0.509694428829814   0.421468753541952 1
force O   0.216812101313540   0.085789843689354   0.028864802613064 1
force O   0.091287671253563  -0.626590582450308  -0.043355813010843 1
force O   0.003604764653820   0.807226761643080  -0.885650223312799 1

# Energy components:
   Eewald =    -1328.1135781522407342
       EH =      516.4826272334399846
     Eloc =    -1586.6435948211030791
      Enl =      223.1757395672539701
      Exc =     -292.4309033937419144
 Exc_core =       13.9081574591295123
       KE =      548.1571215963106170
-------------------------------------
     Etot =    -1905.4644305109516154
       TS =        0.3411131103639700
-------------------------------------
        F =    -1905.8055436213155645

IonicMinimize: Iter:   1  F: -1905.805543621315564  |grad|_K:  2.231e-02  alpha:  8.231e-01  linmin: -9.736e-01  t[s]:   6885.06

#--- Lowdin population analysis ---
# oxidation-state Cr +1.344 +1.326 +1.306 +1.331 +1.356 +1.318 +1.331 +1.363 +1.345 +1.336 +1.307 +1.325 +1.354 +1.316 +1.323 +1.359
# oxidation-state O -0.639 -0.593 -0.633 -0.636 -0.628 -0.623 -0.622 -0.611 -0.644 -0.578 -0.630 -0.626 -0.630 -0.622 -0.623 -0.612 -0.604 -0.627 -0.670 -0.587 -0.583 -0.657 -0.608 -0.623 -0.590 -0.654 -0.661 -0.631 -0.628 -0.608 -0.676 -0.563


-------- Electronic minimization -----------
Will mix electronic density at each iteration.
	FillingsUpdate:  mu: +0.438987281  nElectrons: 416.000000
	FillingsUpdate:  mu: +0.434008999  nElectrons: 416.000000
SCF: Cycle:  0   F: -1876.010874150175368   dF: +2.701e+01   |Residual|: 2.478e+00   |deigs|: 9.716e-03  t[s]:   7020.73
	FillingsUpdate:  mu: +0.379522256  nElectrons: 416.000000
SCF: Cycle:  1   F: -1767.140503166001508   dF: +1.089e+02   |Residual|: 5.644e+00   |deigs|: 1.271e-01  t[s]:   7117.19
	FillingsUpdate:  mu: +0.464611171  nElectrons: 416.000000
SCF: Cycle:  2   F: -1876.446245205653213   dF: -1.093e+02   |Residual|: 3.111e+00   |deigs|: 1.102e-01  t[s]:   7214.50
	FillingsUpdate:  mu: +0.451446389  nElectrons: 416.000000
SCF: Cycle:  3   F: -1893.848970206892773   dF: -1.740e+01   |Residual|: 2.007e+00   |deigs|: 3.554e-02  t[s]:   7311.80
	FillingsUpdate:  mu: +0.442110049  nElectrons: 416.000000
SCF: Cycle:  4   F: -1901.744606752667551   dF: -7.896e+00   |Residual|: 1.177e+00   |deigs|: 2.421e-02  t[s]:   7409.28
	FillingsUpdate:  mu: +0.426841711  nElectrons: 416.000000
SCF: Cycle:  5   F: -1897.640312517481334   dF: +4.104e+00   |Residual|: 1.616e+00   |deigs|: 1.413e-02  t[s]:   7506.44
	FillingsUpdate:  mu: +0.433713532  nElectrons: 416.000000
SCF: Cycle:  6   F: -1901.970746635300657   dF: -4.330e+00   |Residual|: 1.109e+00   |deigs|: 9.171e-03  t[s]:   7603.51
	FillingsUpdate:  mu: +0.436842855  nElectrons: 416.000000
SCF: Cycle:  7   F: -1904.905302915607308   dF: -2.935e+00   |Residual|: 5.318e-01   |deigs|: 6.064e-03  t[s]:   7702.01
	FillingsUpdate:  mu: +0.437036442  nElectrons: 416.000000
SCF: Cycle:  8   F: -1903.382441491527061   dF: +1.523e+00   |Residual|: 8.048e-01   |deigs|: 3.460e-03  t[s]:   7799.94
	FillingsUpdate:  mu: +0.436543486  nElectrons: 416.000000
SCF: Cycle:  9   F: -1905.690127571647281   dF: -2.308e+00   |Residual|: 2.425e-01   |deigs|: 4.480e-03  t[s]:   7897.79
	FillingsUpdate:  mu: +0.435750994  nElectrons: 416.000000
SCF: Cycle: 10   F: -1905.547849667390892   dF: +1.423e-01   |Residual|: 3.011e-01   |deigs|: 1.079e-03  t[s]:   7994.70
	FillingsUpdate:  mu: +0.436115197  nElectrons: 416.000000
SCF: Cycle: 11   F: -1905.705523599864136   dF: -1.577e-01   |Residual|: 2.112e-01   |deigs|: 1.008e-03  t[s]:   8091.24
	FillingsUpdate:  mu: +0.436032421  nElectrons: 416.000000
SCF: Cycle: 12   F: -1905.877933001056817   dF: -1.724e-01   |Residual|: 5.800e-02   |deigs|: 9.764e-04  t[s]:   8172.74
	FillingsUpdate:  mu: +0.436095477  nElectrons: 416.000000
SCF: Cycle: 13   F: -1905.822520638874039   dF: +5.541e-02   |Residual|: 1.272e-01   |deigs|: 6.011e-04  t[s]:   8253.73
	FillingsUpdate:  mu: +0.436006917  nElectrons: 416.000000
SCF: Cycle: 14   F: -1905.888384753809305   dF: -6.586e-02   |Residual|: 1.961e-02   |deigs|: 5.449e-04  t[s]:   8312.61
	FillingsUpdate:  mu: +0.436032179  nElectrons: 416.000000
SCF: Cycle: 15   F: -1905.885101841256301   dF: +3.283e-03   |Residual|: 3.864e-02   |deigs|: 1.869e-04  t[s]:   8372.71
	FillingsUpdate:  mu: +0.436019594  nElectrons: 416.000000
SCF: Cycle: 16   F: -1905.889664561676909   dF: -4.563e-03   |Residual|: 1.156e-02   |deigs|: 1.521e-04  t[s]:   8430.85
	FillingsUpdate:  mu: +0.436048634  nElectrons: 416.000000
SCF: Cycle: 17   F: -1905.887729803242792   dF: +1.935e-03   |Residual|: 2.584e-02   |deigs|: 1.470e-04  t[s]:   8489.93
	FillingsUpdate:  mu: +0.436048373  nElectrons: 416.000000
SCF: Cycle: 18   F: -1905.890007455606337   dF: -2.278e-03   |Residual|: 5.645e-03   |deigs|: 1.289e-04  t[s]:   8548.27
	FillingsUpdate:  mu: +0.436042665  nElectrons: 416.000000
SCF: Cycle: 19   F: -1905.889718558677032   dF: +2.889e-04   |Residual|: 1.079e-02   |deigs|: 7.170e-05  t[s]:   8607.04
	FillingsUpdate:  mu: +0.436029513  nElectrons: 416.000000
SCF: Cycle: 20   F: -1905.890006759032531   dF: -2.882e-04   |Residual|: 5.574e-03   |deigs|: 6.605e-05  t[s]:   8665.75
	FillingsUpdate:  mu: +0.436034722  nElectrons: 416.000000
SCF: Cycle: 21   F: -1905.889972544935290   dF: +3.421e-05   |Residual|: 6.314e-03   |deigs|: 4.761e-05  t[s]:   8724.10
	FillingsUpdate:  mu: +0.436036553  nElectrons: 416.000000
SCF: Cycle: 22   F: -1905.890049186072929   dF: -7.664e-05   |Residual|: 3.930e-03   |deigs|: 4.814e-05  t[s]:   8783.58
	FillingsUpdate:  mu: +0.436048637  nElectrons: 416.000000
SCF: Cycle: 23   F: -1905.890088281171757   dF: -3.910e-05   |Residual|: 2.175e-03   |deigs|: 2.735e-05  t[s]:   8842.91
	FillingsUpdate:  mu: +0.436044799  nElectrons: 416.000000
SCF: Cycle: 24   F: -1905.890092473807954   dF: -4.193e-06   |Residual|: 2.028e-03   |deigs|: 2.381e-05  t[s]:   8901.27
	FillingsUpdate:  mu: +0.436039601  nElectrons: 416.000000
SCF: Cycle: 25   F: -1905.890073309787340   dF: +1.916e-05   |Residual|: 2.888e-03   |deigs|: 2.487e-05  t[s]:   8960.63
	FillingsUpdate:  mu: +0.436034711  nElectrons: 416.000000
SCF: Cycle: 26   F: -1905.890106202926972   dF: -3.289e-05   |Residual|: 6.234e-04   |deigs|: 1.908e-05  t[s]:   9020.39
	FillingsUpdate:  mu: +0.436038470  nElectrons: 416.000000
SCF: Cycle: 27   F: -1905.890104315518784   dF: +1.887e-06   |Residual|: 8.854e-04   |deigs|: 8.854e-06  t[s]:   9078.17
	FillingsUpdate:  mu: +0.436042725  nElectrons: 416.000000
SCF: Cycle: 28   F: -1905.890107292283574   dF: -2.977e-06   |Residual|: 3.264e-04   |deigs|: 7.077e-06  t[s]:   9138.57
	FillingsUpdate:  mu: +0.436041505  nElectrons: 416.000000
SCF: Cycle: 29   F: -1905.890106929866079   dF: +3.624e-07   |Residual|: 4.522e-04   |deigs|: 3.995e-06  t[s]:   9197.74
	FillingsUpdate:  mu: +0.436039175  nElectrons: 416.000000
SCF: Cycle: 30   F: -1905.890107337725112   dF: -4.079e-07   |Residual|: 2.912e-04   |deigs|: 3.830e-06  t[s]:   9256.84
	FillingsUpdate:  mu: +0.436039459  nElectrons: 416.000000
SCF: Cycle: 31   F: -1905.890107510496136   dF: -1.728e-07   |Residual|: 1.955e-04   |deigs|: 2.286e-06  t[s]:   9314.58
	FillingsUpdate:  mu: +0.436039702  nElectrons: 416.000000
SCF: Cycle: 32   F: -1905.890107447595710   dF: +6.290e-08   |Residual|: 2.229e-04   |deigs|: 1.835e-06  t[s]:   9373.63
	FillingsUpdate:  mu: +0.436039844  nElectrons: 416.000000
SCF: Cycle: 33   F: -1905.890107465790834   dF: -1.820e-08   |Residual|: 2.092e-04   |deigs|: 2.084e-06  t[s]:   9432.07
	FillingsUpdate:  mu: +0.436039952  nElectrons: 416.000000
SCF: Cycle: 34   F: -1905.890107602483567   dF: -1.367e-07   |Residual|: 7.407e-05   |deigs|: 1.470e-06  t[s]:   9490.49
	FillingsUpdate:  mu: +0.436040167  nElectrons: 416.000000
SCF: Cycle: 35   F: -1905.890107564479422   dF: +3.800e-08   |Residual|: 1.273e-04   |deigs|: 9.947e-07  t[s]:   9549.11
	FillingsUpdate:  mu: +0.436040085  nElectrons: 416.000000
SCF: Cycle: 36   F: -1905.890107610018276   dF: -4.554e-08   |Residual|: 6.056e-05   |deigs|: 9.499e-07  t[s]:   9607.90
	FillingsUpdate:  mu: +0.436040138  nElectrons: 416.000000
SCF: Cycle: 37   F: -1905.890107615111219   dF: -5.093e-09   |Residual|: 4.759e-05   |deigs|: 5.804e-07  t[s]:   9666.34
	FillingsUpdate:  mu: +0.436039887  nElectrons: 416.000000
SCF: Cycle: 38   F: -1905.890107617392914   dF: -2.282e-09   |Residual|: 3.968e-05   |deigs|: 4.729e-07  t[s]:   9725.68
SCF: Converged (|Delta E|<1.000000e-08 for 2 iters).

Setting wave functions to eigenvectors of Hamiltonian

# Ionic positions in lattice coordinates:
ion Cr   0.245205878083702   0.254406194984018   0.242111230821490 1
ion Cr  -0.001536232416718   0.008668784205081  -0.005212998926322 1
ion Cr   0.264360931374351   0.243460964402810   0.750423850303759 1
ion Cr  -0.008471583017169   0.004869921159493   0.507111055512811 1
ion Cr   0.244932057028523   0.747449665382153   0.246870427012523 1
ion Cr  -0.007051578956124   0.500826365994574  -0.002480005265129 1
ion Cr   0.245575594140508   0.757601557091263   0.751355555335552 1
ion Cr   0.001225027846978   0.509003212270868   0.513854453669681 1
ion Cr   0.767413807718895   0.252720130156073   0.246247377952842 1
ion Cr   0.500728644090209  -0.007767470337743   0.001954946600541 1
ion Cr   0.747662145918929   0.247851760177098   0.758846080168016 1
ion Cr   0.513341077208206   0.002397475904109   0.508651658931964 1
ion Cr   0.749038637029224   0.753380959374038   0.263591150786930 1
ion Cr   0.510665789248987   0.492727888268308  -0.005366676997338 1
ion Cr   0.749743903192366   0.750591447004814   0.752975533125864 1
ion Cr   0.498559982239069   0.497873679697030   0.498611615985014 1
ion O  -0.005171837211950   0.348433251242196   0.360633410084535 1
ion O   0.238588241416416   0.387331356221519   0.102261041608851 1
ion O   0.004186190709859   0.129613881802279   0.158795384886972 1
ion O   0.247723957077407   0.092158580606375   0.412556468079131 1
ion O   0.006060259201255   0.345116419629709   0.838353961704671 1
ion O   0.246129787822453   0.394180560392115   0.589406541797560 1
ion O  -0.003968426381379   0.150367106563396   0.646657289027920 1
ion O   0.247949754366820   0.097870392008707   0.891061832201200 1
ion O   0.003936094834157   0.852537211853144   0.352234271196486 1
ion O   0.255809267362881   0.902780010761229   0.091957199181317 1
ion O   0.010650763297299   0.650679171044794   0.144757432106195 1
ion O   0.240409122798529   0.587496508639319   0.392586107919741 1
ion O  -0.013831555280592   0.851959990377211   0.850486413813698 1
ion O   0.248889492217537   0.891882182246929   0.606875609272813 1
ion O  -0.000673538028985   0.661077673529591   0.647476509738063 1
ion O   0.256036013110659   0.583891610988711   0.905203569023849 1
ion O   0.504519586214980   0.342290097981515   0.339329308680590 1
ion O   0.757509300976098   0.395891483156080   0.099050207567344 1
ion O   0.499105164752440   0.158143423091360   0.134976528310819 1
ion O   0.746465960794022   0.096898182077108   0.399505215285039 1
ion O   0.499574618832050   0.350226339459876   0.859623012373373 1
ion O   0.748547868886213   0.394394636145337   0.595268890921459 1
ion O   0.505866647002720   0.153755286888778   0.642210602294870 1
ion O   0.745637276457710   0.104400553898175   0.900220054311636 1
ion O   0.499549113366263   0.849669663455184   0.343515103221337 1
ion O   0.751063100457482   0.899672285094365   0.103758765208161 1
ion O   0.494900399243410   0.653840518875493   0.152506173293831 1
ion O   0.747463583313440   0.600501830808110   0.407554695899045 1
ion O   0.499958448665751   0.838384440357957   0.857834550926237 1
ion O   0.735317673867360   0.893713349453149   0.608111779518239 1
ion O   0.490129680936394   0.655390760816036   0.647525049994782 1
ion O   0.750033908191363   0.596198704800268   0.902771765532039 1

# Forces in Lattice coordinates:
force Cr  -0.121886692490110  -0.289109090883334   0.218399279573366 1
force Cr  -0.050227688513899  -0.400313259828336   0.243671137638610 1
force Cr   0.020289331174540   0.178769753407282  -0.189333275188367 1
force Cr  -0.036754373124330  -0.144745929730285  -0.089102969604028 1
force Cr  -0.049752647992961  -0.092079684486223  -0.087436518659416 1
force Cr   0.131859210649816  -0.122381941960133   0.238175951829058 1
force Cr   0.078462439907776  -0.247695249223024  -0.068646217985521 1
force Cr  -0.048924944926465  -0.321699461477045  -0.272308909299213 1
force Cr   0.065249248917810  -0.205015171541015   0.178997250762174 1
force Cr   0.203864989309875   0.132343032727635   0.178793597525462 1
force Cr  -0.120903189808639   0.046069335868059  -0.391241458581244 1
force Cr  -0.099809234180328  -0.069280426164553  -0.269909948493113 1
force Cr   0.187566171775568  -0.188027315261666  -0.478318534434959 1
force Cr  -0.060093561876042   0.142111928876984   0.527297964815152 1
force Cr  -0.130479693831021  -0.160565341804487  -0.118580482787390 1
force Cr  -0.039206496289694   0.011142025290507   0.075376744764280 1
force O   0.048211280642903  -0.055906080694466  -0.272542683182522 1
force O   0.005389147730694   0.377225789668451  -0.235051027119769 1
force O  -0.017383232611302   0.317849851460756  -0.196099351420253 1
force O   0.035794116082078   0.131866487449153  -0.247951466805781 1
force O  -0.030232685821188   0.266235801389296   0.347308456051580 1
force O   0.104834903240653  -0.095619624058469   0.467305752897502 1
force O   0.031018612180499  -0.047763751721945   0.205533695857814 1
force O   0.027648785382473   0.011165631799897   0.014979810604498 1
force O  -0.053350818731488   0.024573511969665   0.186368755140879 1
force O  -0.150512684845052  -0.318837785782608   0.358730825012823 1
force O  -0.181727729850800  -0.172620469468034  -0.066068823985238 1
force O   0.099355934416773   0.379963755704268  -0.050375631944726 1
force O   0.148920629825524   0.163766355357039   0.264978588031462 1
force O  -0.006761728141546   0.480931429166763  -0.176722710928909 1
force O  -0.015955432722762  -0.559176746235901  -0.098214088275068 1
force O  -0.105400855848093   0.478412254491877  -0.335354848722323 1
force O  -0.029961642617345   0.240153303331946   0.296119345244372 1
force O   0.008677591875459  -0.212474364307116   0.246148861177415 1
force O   0.030593535146459  -0.179478090795756   0.325058341632731 1
force O   0.034350294386515   0.195030848471532  -0.241410560609347 1
force O   0.021448542683297  -0.138158293864098  -0.223215105266576 1
force O  -0.069397554232607   0.145910009097718   0.250485687277774 1
force O   0.007018563136425  -0.279550910189160   0.061960646562228 1
force O   0.021375756357538   0.012883438454617  -0.161601818628329 1
force O  -0.063298253058835   0.167080476472558   0.424295790130708 1
force O  -0.037229266320919  -0.035529714633391  -0.040870261514928 1
force O   0.116658535902165  -0.226723014162315  -0.071180940260499 1
force O   0.021914108590418   0.253573649944333  -0.348680460632393 1
force O  -0.045349113112499   0.347876942875817   0.181651196721965 1
force O   0.152578352481691   0.071284734697489   0.006630517951679 1
force O   0.056466212156334  -0.424177422177931  -0.036547652442618 1
force O  -0.009788886366361   0.392701686317303  -0.501144125735829 1

# Energy components:
   Eewald =    -1332.1733573562858055
       EH =      512.3173785038121650
     Eloc =    -1577.9093283873642122
      Enl =      223.0276621637774497
      Exc =     -292.2363337070582929
 Exc_core =       13.9081302596971881
       KE =      547.5126406054765766
-------------------------------------
     Etot =    -1905.5532079179447464
       TS =        0.3368996994482444
-------------------------------------
        F =    -1905.8901076173929141

IonicMinimize: Iter:   2  F: -1905.890107617392914  |grad|_K:  1.308e-02  alpha:  5.290e-01  linmin: -9.778e-01  t[s]:   9738.90

#--- Lowdin population analysis ---
# oxidation-state Cr +1.349 +1.335 +1.325 +1.341 +1.359 +1.335 +1.342 +1.360 +1.346 +1.347 +1.322 +1.336 +1.355 +1.331 +1.332 +1.361
# oxidation-state O -0.625 -0.614 -0.620 -0.637 -0.641 -0.627 -0.628 -0.630 -0.643 -0.600 -0.627 -0.633 -0.636 -0.632 -0.618 -0.635 -0.627 -0.620 -0.670 -0.601 -0.591 -0.649 -0.602 -0.625 -0.615 -0.633 -0.656 -0.634 -0.627 -0.615 -0.660 -0.596


-------- Electronic minimization -----------
Will mix electronic density at each iteration.
	FillingsUpdate:  mu: +0.436039887  nElectrons: 416.000000
	FillingsUpdate:  mu: +0.430093033  nElectrons: 416.000000
SCF: Cycle:  0   F: -1873.157445660320263   dF: +3.026e+01   |Residual|: 2.466e+00   |deigs|: 8.493e-03  t[s]:   9873.60
	FillingsUpdate:  mu: +0.373780180  nElectrons: 416.000000
SCF: Cycle:  1   F: -1730.242256941619189   dF: +1.429e+02   |Residual|: 6.057e+00   |deigs|: 1.369e-01  t[s]:   9971.56
	FillingsUpdate:  mu: +0.468672982  nElectrons: 416.000000
SCF: Cycle:  2   F: -1877.185490895748217   dF: -1.469e+02   |Residual|: 3.035e+00   |deigs|: 1.206e-01  t[s]:  10069.89
	FillingsUpdate:  mu: +0.452854723  nElectrons: 416.000000
SCF: Cycle:  3   F: -1894.490831600961883   dF: -1.731e+01   |Residual|: 1.905e+00   |deigs|: 3.579e-02  t[s]:  10167.88
	FillingsUpdate:  mu: +0.442901339  nElectrons: 416.000000
SCF: Cycle:  4   F: -1902.183341136053059   dF: -7.693e+00   |Residual|: 1.111e+00   |deigs|: 2.526e-02  t[s]:  10267.56
	FillingsUpdate:  mu: +0.428265907  nElectrons: 416.000000
SCF: Cycle:  5   F: -1897.527512604933236   dF: +4.656e+00   |Residual|: 1.553e+00   |deigs|: 1.238e-02  t[s]:  10365.56
	FillingsUpdate:  mu: +0.428559706  nElectrons: 416.000000
SCF: Cycle:  6   F: -1900.377185577714954   dF: -2.850e+00   |Residual|: 1.274e+00   |deigs|: 8.819e-03  t[s]:  10464.76
	FillingsUpdate:  mu: +0.432837285  nElectrons: 416.000000
SCF: Cycle:  7   F: -1904.961028553527512   dF: -4.584e+00   |Residual|: 5.153e-01   |deigs|: 7.434e-03  t[s]:  10560.89
	FillingsUpdate:  mu: +0.435564133  nElectrons: 416.000000
SCF: Cycle:  8   F: -1904.038865054907319   dF: +9.222e-01   |Residual|: 7.117e-01   |deigs|: 3.752e-03  t[s]:  10656.34
	FillingsUpdate:  mu: +0.435542891  nElectrons: 416.000000
SCF: Cycle:  9   F: -1905.239690132713122   dF: -1.201e+00   |Residual|: 4.385e-01   |deigs|: 2.713e-03  t[s]:  10754.47
	FillingsUpdate:  mu: +0.434255942  nElectrons: 416.000000
SCF: Cycle: 10   F: -1905.773948518063207   dF: -5.343e-01   |Residual|: 2.189e-01   |deigs|: 2.112e-03  t[s]:  10851.28
	FillingsUpdate:  mu: +0.433868272  nElectrons: 416.000000
SCF: Cycle: 11   F: -1905.720090442202263   dF: +5.386e-02   |Residual|: 2.376e-01   |deigs|: 8.921e-04  t[s]:  10946.87
	FillingsUpdate:  mu: +0.433522359  nElectrons: 416.000000
SCF: Cycle: 12   F: -1905.926587748698921   dF: -2.065e-01   |Residual|: 5.950e-02   |deigs|: 1.135e-03  t[s]:  11041.94
	FillingsUpdate:  mu: +0.433420814  nElectrons: 416.000000
SCF: Cycle: 13   F: -1905.880074670156546   dF: +4.651e-02   |Residual|: 1.249e-01   |deigs|: 5.687e-04  t[s]:  11122.72
	FillingsUpdate:  mu: +0.433664431  nElectrons: 416.000000
SCF: Cycle: 14   F: -1905.934569286380793   dF: -5.449e-02   |Residual|: 2.931e-02   |deigs|: 6.151e-04  t[s]:  11195.42
	FillingsUpdate:  mu: +0.433757346  nElectrons: 416.000000
SCF: Cycle: 15   F: -1905.931706157805593   dF: +2.863e-03   |Residual|: 4.264e-02   |deigs|: 2.011e-04  t[s]:  11253.94
	FillingsUpdate:  mu: +0.433701284  nElectrons: 416.000000
SCF: Cycle: 16   F: -1905.935797265484325   dF: -4.091e-03   |Residual|: 2.277e-02   |deigs|: 1.781e-04  t[s]:  11312.47
	FillingsUpdate:  mu: +0.433622532  nElectrons: 416.000000
SCF: Cycle: 17   F: -1905.935734376330402   dF: +6.289e-05   |Residual|: 2.413e-02   |deigs|: 1.391e-04  t[s]:  11371.05
	FillingsUpdate:  mu: +0.433644845  nElectrons: 416.000000
SCF: Cycle: 18   F: -1905.937294637467630   dF: -1.560e-03   |Residual|: 1.049e-02   |deigs|: 1.005e-04  t[s]:  11429.28
	FillingsUpdate:  mu: +0.433712987  nElectrons: 416.000000
SCF: Cycle: 19   F: -1905.937358460826999   dF: -6.382e-05   |Residual|: 8.696e-03   |deigs|: 8.527e-05  t[s]:  11488.20
	FillingsUpdate:  mu: +0.433709935  nElectrons: 416.000000
SCF: Cycle: 20   F: -1905.937465212999314   dF: -1.068e-04   |Residual|: 6.977e-03   |deigs|: 4.978e-05  t[s]:  11547.91
	FillingsUpdate:  mu: +0.433691450  nElectrons: 416.000000
SCF: Cycle: 21   F: -1905.937556392345414   dF: -9.118e-05   |Residual|: 4.476e-03   |deigs|: 4.839e-05  t[s]:  11606.60
	FillingsUpdate:  mu: +0.433680324  nElectrons: 416.000000
SCF: Cycle: 22   F: -1905.937497070980498   dF: +5.932e-05   |Residual|: 5.920e-03   |deigs|: 3.949e-05  t[s]:  11665.50
	FillingsUpdate:  mu: +0.433677387  nElectrons: 416.000000
SCF: Cycle: 23   F: -1905.937620397441151   dF: -1.233e-04   |Residual|: 1.372e-03   |deigs|: 3.321e-05  t[s]:  11725.11
	FillingsUpdate:  mu: +0.433697339  nElectrons: 416.000000
SCF: Cycle: 24   F: -1905.937609449281126   dF: +1.095e-05   |Residual|: 2.146e-03   |deigs|: 2.286e-05  t[s]:  11784.35
	FillingsUpdate:  mu: +0.433696485  nElectrons: 416.000000
SCF: Cycle: 25   F: -1905.937620665021768   dF: -1.122e-05   |Residual|: 1.294e-03   |deigs|: 1.545e-05  t[s]:  11843.33
	FillingsUpdate:  mu: +0.433686958  nElectrons: 416.000000
SCF: Cycle: 26   F: -1905.937623821294665   dF: -3.156e-06   |Residual|: 7.448e-04   |deigs|: 1.198e-05  t[s]:  11902.84
	FillingsUpdate:  mu: +0.433684910  nElectrons: 416.000000
SCF: Cycle: 27   F: -1905.937623759437884   dF: +6.186e-08   |Residual|: 7.355e-04   |deigs|: 7.790e-06  t[s]:  11962.00
	FillingsUpdate:  mu: +0.433684988  nElectrons: 416.000000
SCF: Cycle: 28   F: -1905.937623453575043   dF: +3.059e-07   |Residual|: 8.370e-04   |deigs|: 5.934e-06  t[s]:  12021.70
	FillingsUpdate:  mu: +0.433687684  nElectrons: 416.000000
SCF: Cycle: 29   F: -1905.937625667168049   dF: -2.214e-06   |Residual|: 1.818e-04   |deigs|: 4.686e-06  t[s]:  12081.37
	FillingsUpdate:  mu: +0.433688713  nElectrons: 416.000000
SCF: Cycle: 30   F: -1905.937625221272583   dF: +4.459e-07   |Residual|: 4.062e-04   |deigs|: 3.015e-06  t[s]:  12139.58
	FillingsUpdate:  mu: +0.433687934  nElectrons: 416.000000
SCF: Cycle: 31   F: -1905.937625668867213   dF: -4.476e-07   |Residual|: 1.800e-04   |deigs|: 2.400e-06  t[s]:  12199.05
	FillingsUpdate:  mu: +0.433687917  nElectrons: 416.000000
SCF: Cycle: 32   F: -1905.937625708648284   dF: -3.978e-08   |Residual|: 1.378e-04   |deigs|: 1.416e-06  t[s]:  12257.47
	FillingsUpdate:  mu: +0.433687701  nElectrons: 416.000000
SCF: Cycle: 33   F: -1905.937625699941236   dF: +8.707e-09   |Residual|: 1.352e-04   |deigs|: 1.147e-06  t[s]:  12316.85
	FillingsUpdate:  mu: +0.433687533  nElectrons: 416.000000
SCF: Cycle: 34   F: -1905.937625749250401   dF: -4.931e-08   |Residual|: 8.306e-05   |deigs|: 1.002e-06  t[s]:  12376.01
	FillingsUpdate:  mu: +0.433687552  nElectrons: 416.000000
SCF: Cycle: 35   F: -1905.937625755199178   dF: -5.949e-09   |Residual|: 7.033e-05   |deigs|: 7.017e-07  t[s]:  12434.84
	FillingsUpdate:  mu: +0.433688027  nElectrons: 416.000000
SCF: Cycle: 36   F: -1905.937625749874087   dF: +5.325e-09   |Residual|: 8.083e-05   |deigs|: 7.730e-07  t[s]:  12493.45
	FillingsUpdate:  mu: +0.433688198  nElectrons: 416.000000
SCF: Cycle: 37   F: -1905.937625766393467   dF: -1.652e-08   |Residual|: 4.506e-05   |deigs|: 5.892e-07  t[s]:  12552.70
	FillingsUpdate:  mu: +0.433687832  nElectrons: 416.000000
SCF: Cycle: 38   F: -1905.937625756371062   dF: +1.002e-08   |Residual|: 6.928e-05   |deigs|: 6.211e-07  t[s]:  12611.24
	FillingsUpdate:  mu: +0.433687827  nElectrons: 416.000000
SCF: Cycle: 39   F: -1905.937625767505779   dF: -1.113e-08   |Residual|: 3.690e-05   |deigs|: 4.767e-07  t[s]:  12669.31
	FillingsUpdate:  mu: +0.433687718  nElectrons: 416.000000
SCF: Cycle: 40   F: -1905.937625768015778   dF: -5.100e-10   |Residual|: 3.624e-05   |deigs|: 3.153e-07  t[s]:  12726.05
	FillingsUpdate:  mu: +0.433687645  nElectrons: 416.000000
SCF: Cycle: 41   F: -1905.937625771596686   dF: -3.581e-09   |Residual|: 1.866e-05   |deigs|: 2.837e-07  t[s]:  12782.13
SCF: Converged (|Delta E|<1.000000e-08 for 2 iters).

Setting wave functions to eigenvectors of Hamiltonian

# Ionic positions in lattice coordinates:
ion Cr   0.243259989257599   0.252303777755607   0.244054292387541 1
ion Cr  -0.002507366531323   0.005115210600834  -0.003771006503320 1
ion Cr   0.263993566190125   0.245485610641287   0.749433699835584 1
ion Cr  -0.009902917241399   0.003425194917556   0.506076169442136 1
ion Cr   0.244000698441678   0.747211162482787   0.246712137376176 1
ion Cr  -0.005417544951230   0.500228436985645  -0.001230562139317 1
ion Cr   0.247382702642676   0.755452224394955   0.750785249461876 1
ion Cr   0.000227157537300   0.505897881612167   0.510272136411792 1
ion Cr   0.767664746743624   0.250638807582987   0.248544661997163 1
ion Cr   0.504567099332503  -0.006079461671702   0.003549130515183 1
ion Cr   0.745678805033612   0.248807748859827   0.755753242937074 1
ion Cr   0.511442177396086   0.001302234972677   0.505317422033440 1
ion Cr   0.752482676835018   0.752094825561753   0.259574905543247 1
ion Cr   0.509420771210598   0.494411270127698  -0.001607896009721 1
ion Cr   0.747542829502231   0.749510063076421   0.752620321665619 1
ion Cr   0.497915435979614   0.498447471513752   0.498615844675800 1
ion O  -0.003351413541226   0.348348833551871   0.358343375313744 1
ion O   0.239223470823918   0.390488306250652   0.100728096099857 1
ion O   0.003654202822662   0.132688662827564   0.156372854404080 1
ion O   0.248343060172020   0.093854109420426   0.409773751614105 1
ion O   0.004371487764291   0.347093649764516   0.841366625189620 1
ion O   0.248574846766090   0.393336338297085   0.594124297322800 1
ion O  -0.003216336142616   0.149815556346753   0.648461635695162 1
ion O   0.248214187831348   0.097481280189467   0.891914060848569 1
ion O   0.002276648328214   0.852656793677978   0.353918049654678 1
ion O   0.252638535424170   0.900036842701237   0.095242598870397 1
ion O   0.005248162066245   0.648871911293073   0.144139250927317 1
ion O   0.242698797628707   0.591104355501376   0.392529953377590 1
ion O  -0.010512071395232   0.852513515644275   0.852027137465249 1
ion O   0.248732134150731   0.896119447548908   0.605698883006637 1
ion O  -0.001004742407332   0.655824726200418   0.646923218203919 1
ion O   0.254082507110387   0.588671855582599   0.901961005728422 1
ion O   0.503358144882819   0.344297300908494   0.341775427057874 1
ion O   0.757345573123279   0.393802554180685   0.101439022338153 1
ion O   0.499563821547126   0.156380367733492   0.138665688007469 1
ion O   0.747248865546725   0.098755586905838   0.397340131542452 1
ion O   0.500248104741823   0.350170158058492   0.858329025460567 1
ion O   0.746675975802855   0.395790737072233   0.597890869752953 1
ion O   0.506065436466906   0.150613743517970   0.642491438624789 1
ion O   0.746592493205927   0.104339362624696   0.898673564966619 1
ion O   0.499328882415761   0.850273060780947   0.346970992808100 1
ion O   0.750364522182057   0.898963657375933   0.103845122857027 1
ion O   0.498063805481135   0.651362707898997   0.151568385936017 1
ion O   0.747896762107512   0.602552634668114   0.404304724481460 1
ion O   0.498586247941035   0.841837391399675   0.859142073946816 1
ion O   0.739300210120936   0.894606118119839   0.608013855534888 1
ion O   0.491471057083428   0.651217452465403   0.647080778664608 1
ion O   0.749925792569585   0.598688522076741   0.898854354667791 1

# Forces in Lattice coordinates:
force Cr  -0.042016003754167  -0.165331305456351   0.168470592067038 1
force Cr  -0.018841995254858  -0.251090364767142   0.086869286598941 1
force Cr   0.016339829988434   0.095939223434554  -0.056623605826374 1
force Cr  -0.021982151826205  -0.091364223166337  -0.057152140451270 1
force Cr  -0.023710256005855   0.018506985587767  -0.002910846693557 1
force Cr   0.030846794748050  -0.068603728056666   0.046386799505072 1
force Cr   0.064259076549694  -0.175857907273336  -0.044518752517370 1
force Cr  -0.002364602316415  -0.250034551902615  -0.186704656089648 1
force Cr   0.002914447671552  -0.124973737106549   0.107879890130811 1
force Cr   0.055500633316822   0.154390699534016   0.068596193233927 1
force Cr  -0.069914168383187   0.039108488013656  -0.243104519243528 1
force Cr  -0.043342881088994  -0.090075958781793  -0.235766207406215 1
force Cr   0.094308667718979  -0.098836946120545  -0.241778395201864 1
force Cr  -0.019372017916355   0.155646746978043   0.270707910351197 1
force Cr  -0.071248696452660  -0.081195076360264  -0.059077312924413 1
force Cr  -0.021428791145535   0.003714919537845   0.015483513023083 1
force O   0.050393219478480   0.064186452977429  -0.077488190655322 1
force O   0.038821521748709   0.207320964938655  -0.082397502250625 1
force O  -0.013084653240397   0.193200354215056  -0.214302974130366 1
force O   0.000459573424693   0.124952685341091  -0.208309733689192 1
force O  -0.029442567182582   0.120220514456349   0.206354447487157 1
force O   0.050298822372303  -0.000444279484982   0.267017133935327 1
force O   0.016479805306996  -0.025734803609977   0.099514991082521 1
force O   0.022992846139086  -0.000114214384087   0.080021724999592 1
force O  -0.033584269228219   0.006268156192335   0.103568695816718 1
force O  -0.057975295606252  -0.151430074606792   0.208503635902949 1
force O  -0.108898858265921  -0.104365386069298  -0.017006179802880 1
force O   0.054466935220927   0.252750729159753  -0.003405226324483 1
force O   0.088376746853730  -0.006789162672689   0.070425903323386 1
force O   0.001521644343636   0.225081589477709  -0.063020842511190 1
force O  -0.004973254884718  -0.291629601009276   0.006963085629644 1
force O  -0.055206592149216   0.309155497147879  -0.175570813429783 1
force O  -0.028639942396007   0.148178584100114   0.189104923918910 1
force O  -0.010888998623234  -0.054072598909944   0.078319876869783 1
force O   0.005125183662218  -0.147415337494291   0.264655665005756 1
force O   0.023510334290507   0.129809455330267  -0.138668446199650 1
force O   0.011545991596560  -0.005624815780051  -0.086808533037834 1
force O  -0.035045671353704   0.098227552903136   0.142287100569134 1
force O  -0.009025407752825  -0.175875061168595   0.061080511394168 1
force O   0.014365145646533  -0.027080132677904  -0.071646650684343 1
force O  -0.014188515260426   0.009835361295157   0.188977449031781 1
force O  -0.004883698718447  -0.075266057496165   0.043358857751060 1
force O   0.051664930265968  -0.149129924388627  -0.051280121763813 1
[...]
SCF: Cycle: 10   F: -1905.985983628119811   dF: +1.411e-07   |Residual|: 2.340e-04   |deigs|: 1.098e-06  t[s]:  50788.24
	FillingsUpdate:  mu: +0.429310545  nElectrons: 416.000000
SCF: Cycle: 11   F: -1905.985983799146197   dF: -1.710e-07   |Residual|: 8.773e-05   |deigs|: 1.138e-06  t[s]:  50847.58
	FillingsUpdate:  mu: +0.429310198  nElectrons: 416.000000
SCF: Cycle: 12   F: -1905.985983828935559   dF: -2.979e-08   |Residual|: 1.679e-05   |deigs|: 4.207e-07  t[s]:  50907.29
	FillingsUpdate:  mu: +0.429310287  nElectrons: 416.000000
SCF: Cycle: 13   F: -1905.985983813371377   dF: +1.556e-08   |Residual|: 6.672e-05   |deigs|: 2.316e-07  t[s]:  50966.26
	FillingsUpdate:  mu: +0.429310244  nElectrons: 416.000000
SCF: Cycle: 14   F: -1905.985983821203035   dF: -7.832e-09   |Residual|: 4.597e-05   |deigs|: 2.021e-07  t[s]:  51025.44
	FillingsUpdate:  mu: +0.429310273  nElectrons: 416.000000
SCF: Cycle: 15   F: -1905.985983828260032   dF: -7.057e-09   |Residual|: 2.027e-05   |deigs|: 1.079e-07  t[s]:  51083.08
SCF: Converged (|Delta E|<1.000000e-08 for 2 iters).

Setting wave functions to eigenvectors of Hamiltonian

# Ionic positions in lattice coordinates:
ion Cr   0.230763141171012   0.241192550728739   0.253811884753834 1
ion Cr  -0.019277569103677  -0.005903092644321  -0.006805179698059 1
ion Cr   0.268405442059897   0.240429417127352   0.754712226284533 1
ion Cr  -0.019070810905947   0.002423091131904   0.507678049704062 1
ion Cr   0.230753608027884   0.755352375356821   0.246745446543284 1
ion Cr   0.018166726830599   0.494770841803649  -0.007722061109143 1
ion Cr   0.268552585602430   0.756270682581696   0.746338076871473 1
ion Cr   0.018542834864333   0.502222631203233   0.508152692373185 1
ion Cr   0.768402365455039   0.256280641916558   0.246326311410047 1
ion Cr   0.518476492477558   0.002198756759127   0.008053726864032 1
ion Cr   0.730750667616712   0.255361034629687   0.746755281135016 1
ion Cr   0.518193537116588  -0.005275968926694   0.492253124814815 1
ion Cr   0.768510931561781   0.740395954755756   0.254660868212463 1
ion Cr   0.480984672666588   0.502417769888523   0.007749981626012 1
ion Cr   0.730738577905344   0.741129845229636   0.753760634894762 1
ion Cr   0.480799653824749   0.494109796583310   0.493165818854515 1
ion O   0.003634963660053   0.354123511982452   0.358040485255526 1
ion O   0.245354807555610   0.391404104763572   0.106051007442922 1
ion O  -0.004548607863368   0.143207422274135   0.142286950441423 1
ion O   0.245563616683593   0.095064858104799   0.401356850683163 1
ion O   0.003495910599194   0.346842572401711   0.847065603512408 1
ion O   0.253512614585566   0.390944210583027   0.606516795548390 1
ion O  -0.004410682868513   0.150011207168016   0.653619608662575 1
ion O   0.253567554471102   0.094851109292558   0.901886875003127 1
ion O  -0.004389791816845   0.853846353684369   0.358208082062668 1
ion O   0.245510741571787   0.901996717660657   0.099070023108766 1
ion O   0.003427268852444   0.643093264953255   0.142286095013114 1
ion O   0.245632836274763   0.605738050873131   0.394536729627016 1
ion O  -0.004343400463165   0.846910122914758   0.846997688294281 1
ion O   0.253495757209103   0.902299940428214   0.598891438524106 1
ion O   0.003666650997086   0.650379628679986   0.653438070428642 1
ion O   0.253802777643754   0.606171584309120   0.894295021271546 1
ion O   0.495563785176971   0.346959677192784   0.346985502637392 1
ion O   0.753447627675848   0.402346656602063   0.098941837227981 1
ion O   0.503458773084191   0.150337360305096   0.153395046574058 1
ion O   0.753651516797695   0.106128773864376   0.394244846152150 1
ion O   0.495678554906626   0.353775479504944   0.858328816339454 1
ion O   0.745664786392123   0.401985350972727   0.599126328527041 1
ion O   0.503392986277624   0.143032632390523   0.642359256066287 1
ion O   0.745725903204806   0.105759033473353   0.894574294015044 1
ion O   0.503478469584245   0.846847647745441   0.347008468575843 1
ion O   0.753468168898702   0.890935582843573   0.106552432360420 1
ion O   0.495822141904672   0.650039729786239   0.153698255303114 1
ion O   0.753704329399863   0.594775253786916   0.401833846377058 1
ion O   0.503769417333156   0.854211259880920   0.857974464861477 1
ion O   0.745307656576420   0.891211499075497   0.605849306986659 1
ion O   0.495455121299452   0.643157114953798   0.642273798755548 1
ion O   0.745504887224553   0.595045959423014   0.901279290825973 1

# Forces in Lattice coordinates:
force Cr  -0.001259055413166  -0.005345046817633   0.000783125345587 1
force Cr   0.001420686137992  -0.002040678841541  -0.003048305031792 1
force Cr   0.002097360904339  -0.001049157555126  -0.003211067766837 1
force Cr  -0.001372217699402  -0.000249087784430  -0.000270496245362 1
force Cr   0.000604421209849  -0.000678942640965   0.000874233162218 1
force Cr   0.003912809788956  -0.002395830871508  -0.000928233818124 1
force Cr   0.000687414276368  -0.004950231186852   0.000868540887969 1
force Cr  -0.000315894632888  -0.002386560438197   0.002346452100902 1
force Cr   0.002486418890432  -0.007058576166993   0.000431373099374 1
force Cr   0.000185601230343  -0.002137252642157   0.005883009074696 1
force Cr  -0.000584183715394  -0.003169794624299   0.000289076763908 1
force Cr   0.002850885697206  -0.003658564388451  -0.000308804137370 1
force Cr   0.000501227862583   0.001227250593395  -0.001540825350324 1
force Cr  -0.002502625386098   0.000958778869018  -0.001715040482468 1
force Cr   0.001017786919730  -0.001776105798454   0.002807707878534 1
force Cr   0.000999280816518  -0.000741775574387  -0.003273127111429 1
force O  -0.000383350416047  -0.000403540238414   0.001650899127381 1
force O   0.001027250559240  -0.005492053788497  -0.000389096651863 1
force O   0.000593568083836  -0.002750036532220   0.002587877095895 1
force O   0.000382966332962  -0.001711567091008   0.000404614584320 1
force O   0.000509910520222  -0.001905275735900  -0.000044920793257 1
force O   0.000939229999436  -0.005561240625632   0.000484666454142 1
force O   0.001065480040011  -0.002645431108811   0.002376614096694 1
force O  -0.000520922690930  -0.002226358840285  -0.002653930296321 1
force O   0.000697740480200  -0.001555097653448  -0.000883360445568 1
force O   0.001693468189541  -0.003675679145134   0.002124000398036 1
force O   0.000555646707826  -0.005770098225494   0.001485628897917 1
force O   0.000497794343152  -0.001251074091845   0.002796968896203 1
force O  -0.000099531144874   0.000148812273394  -0.001403070000796 1
force O  -0.000461097720320  -0.002539125768530  -0.000241796570737 1
force O  -0.001514776041741  -0.005069932325986   0.001366771387799 1
force O  -0.001601087298263  -0.003504528843862   0.003110125717478 1
force O   0.001058081056410  -0.000978179454107  -0.000085877671045 1
force O   0.000623669580202  -0.003341936994349  -0.000396843644404 1
force O   0.000445346778129  -0.002575029096087   0.002726482570419 1
force O  -0.000608074853209  -0.001592574713875   0.002337185656435 1
force O  -0.001116058128072  -0.000829430747318  -0.002869511743816 1
force O  -0.000278234781670  -0.002182804963973   0.001501433050456 1
force O   0.000513035803807  -0.003830671442792   0.002729006032794 1
force O  -0.000967696881961  -0.001520579485897   0.001929770429221 1
force O   0.000133472850194  -0.002890374563659   0.000096101588837 1
force O   0.000364754897231  -0.002911478257215  -0.003287809660590 1
force O  -0.001473298038088  -0.002966449439221  -0.000063658081276 1
force O  -0.001762389458985  -0.000220821140014  -0.000795265619233 1
force O  -0.000847141209366  -0.001482549506324   0.001597153965612 1
force O   0.002236542737519  -0.003144451117643   0.003176285596322 1
force O   0.001102458022911  -0.003595709125686   0.001037501035169 1
force O   0.001630024106109  -0.001738246941553   0.002186577388420 1

# Energy components:
   Eewald =    -1336.9917583562864820
       EH =      507.1857019336365511
     Eloc =    -1567.1259809634923386
      Enl =      222.6349158064095377
      Exc =     -291.9328922821385959
 Exc_core =       13.9082687960256735
       KE =      546.6255636526186663
-------------------------------------
     Etot =    -1905.6961814132271229
       TS =        0.2898024150330144
-------------------------------------
        F =    -1905.9859838282600322

IonicMinimize: Iter:  19  F: -1905.985983828260032  |grad|_K:  1.155e-04  alpha:  1.000e+00  linmin: -2.727e-01  t[s]:  51096.57

#--- Lowdin population analysis ---
# oxidation-state Cr +1.343 +1.343 +1.343 +1.343 +1.342 +1.343 +1.342 +1.343 +1.343 +1.343 +1.342 +1.343 +1.343 +1.343 +1.342 +1.342
# oxidation-state O -0.605 -0.605 -0.605 -0.649 -0.649 -0.605 -0.649 -0.648 -0.605 -0.649 -0.605 -0.605 -0.649 -0.649 -0.649 -0.606 -0.649 -0.649 -0.649 -0.605 -0.605 -0.649 -0.605 -0.605 -0.649 -0.605 -0.649 -0.648 -0.605 -0.605 -0.605 -0.649


-------- Electronic minimization -----------
Will mix electronic density at each iteration.
	FillingsUpdate:  mu: +0.429310273  nElectrons: 416.000000
	FillingsUpdate:  mu: +0.429305730  nElectrons: 416.000000
SCF: Cycle:  0   F: -1905.985899068574781   dF: +7.770e-05   |Residual|: 4.257e-03   |deigs|: 9.927e-08  t[s]:  51196.15
	FillingsUpdate:  mu: +0.429315699  nElectrons: 416.000000
SCF: Cycle:  1   F: -1905.982216583664695   dF: +3.682e-03   |Residual|: 3.007e-02   |deigs|: 1.922e-04  t[s]:  51255.19
	FillingsUpdate:  mu: +0.429314472  nElectrons: 416.000000
SCF: Cycle:  2   F: -1905.985980752328032   dF: -3.764e-03   |Residual|: 2.094e-03   |deigs|: 2.047e-04  t[s]:  51313.34
	FillingsUpdate:  mu: +0.429308064  nElectrons: 416.000000
SCF: Cycle:  3   F: -1905.985948509072841   dF: +3.224e-05   |Residual|: 3.647e-03   |deigs|: 8.427e-06  t[s]:  51372.42
	FillingsUpdate:  mu: +0.429307983  nElectrons: 416.000000
SCF: Cycle:  4   F: -1905.985988294781009   dF: -3.979e-05   |Residual|: 8.499e-04   |deigs|: 5.568e-06  t[s]:  51432.26
	FillingsUpdate:  mu: +0.429315376  nElectrons: 416.000000
SCF: Cycle:  5   F: -1905.985989565384671   dF: -1.271e-06   |Residual|: 4.989e-04   |deigs|: 7.443e-06  t[s]:  51492.35
	FillingsUpdate:  mu: +0.429312120  nElectrons: 416.000000
SCF: Cycle:  6   F: -1905.985989493040734   dF: +7.234e-08   |Residual|: 5.166e-04   |deigs|: 5.898e-06  t[s]:  51552.04
	FillingsUpdate:  mu: +0.429308136  nElectrons: 416.000000
SCF: Cycle:  7   F: -1905.985990270017055   dF: -7.770e-07   |Residual|: 1.505e-04   |deigs|: 4.564e-06  t[s]:  51611.08
	FillingsUpdate:  mu: +0.429309931  nElectrons: 416.000000
SCF: Cycle:  8   F: -1905.985989936542865   dF: +3.335e-07   |Residual|: 3.580e-04   |deigs|: 1.908e-06  t[s]:  51670.44
	FillingsUpdate:  mu: +0.429310775  nElectrons: 416.000000
SCF: Cycle:  9   F: -1905.985990316151629   dF: -3.796e-07   |Residual|: 5.421e-05   |deigs|: 1.361e-06  t[s]:  51729.44
	FillingsUpdate:  mu: +0.429310296  nElectrons: 416.000000
SCF: Cycle: 10   F: -1905.985990316745301   dF: -5.937e-10   |Residual|: 4.007e-05   |deigs|: 4.948e-07  t[s]:  51788.23
	FillingsUpdate:  mu: +0.429310259  nElectrons: 416.000000
SCF: Cycle: 11   F: -1905.985990295311922   dF: +2.143e-08   |Residual|: 7.949e-05   |deigs|: 3.833e-07  t[s]:  51846.79
	FillingsUpdate:  mu: +0.429310404  nElectrons: 416.000000
SCF: Cycle: 12   F: -1905.985990322970338   dF: -2.766e-08   |Residual|: 9.501e-06   |deigs|: 3.041e-07  t[s]:  51905.76
	FillingsUpdate:  mu: +0.429310378  nElectrons: 416.000000
SCF: Cycle: 13   F: -1905.985990320450355   dF: +2.520e-09   |Residual|: 2.707e-05   |deigs|: 9.562e-08  t[s]:  51959.32
	FillingsUpdate:  mu: +0.429310380  nElectrons: 416.000000
SCF: Cycle: 14   F: -1905.985990321133386   dF: -6.830e-10   |Residual|: 2.418e-05   |deigs|: 4.159e-08  t[s]:  52012.54
	FillingsUpdate:  mu: +0.429310373  nElectrons: 416.000000
SCF: Cycle: 15   F: -1905.985990323039459   dF: -1.906e-09   |Residual|: 4.096e-06   |deigs|: 5.477e-08  t[s]:  52059.50
SCF: Converged (|Delta E|<1.000000e-08 for 2 iters).

Setting wave functions to eigenvectors of Hamiltonian

# Ionic positions in lattice coordinates:
ion Cr   0.230709341641415   0.241125523515928   0.253854898740747 1
ion Cr  -0.019169627206038  -0.005903289635298  -0.006877191047993 1
ion Cr   0.268478175171140   0.240483711242259   0.754620040020188 1
ion Cr  -0.019156916983920   0.002475250123006   0.507671736884172 1
ion Cr   0.230740494255207   0.755351915351819   0.246789276353679 1
ion Cr   0.018307264669304   0.494736102837387  -0.007725307581067 1
ion Cr   0.268562806833874   0.756267225318344   0.746313965990996 1
ion Cr   0.018471156585243   0.502225549577493   0.508192198552502 1
ion Cr   0.768491290030236   0.256260066767473   0.246299429431671 1
ion Cr   0.518417035826104   0.002220898978493   0.008128419343309 1
ion Cr   0.730723070243094   0.255328019952078   0.746812050869857 1
ion Cr   0.518311796071563  -0.005341829897136   0.492259162981557 1
ion Cr   0.768521669904915   0.740464694012865   0.254582575211794 1
ion Cr   0.480901893787606   0.502485341213139   0.007721229699331 1
ion Cr   0.730743772569282   0.741113879416392   0.753821812755530 1
ion Cr   0.480873392958455   0.494129748902165   0.493088790295388 1
ion O   0.003619835089358   0.354168955602571   0.358029308191408 1
ion O   0.245435012612295   0.391358646194475   0.106043842864882 1
ion O  -0.004540949297971   0.143202056939051   0.142302655831482 1
ion O   0.245559665617936   0.095078799287587   0.401375416034569 1
ion O   0.003505289258732   0.346835778975668   0.847072709648357 1
ion O   0.253526186688613   0.390908577449165   0.606483993224504 1
ion O  -0.004385639040567   0.150012212197776   0.653632719354296 1
ion O   0.253524328841927   0.094868523391672   0.901821161968984 1
ion O  -0.004405663973556   0.853876879379648   0.358186481917188 1
ion O   0.245582729421400   0.901974954121571   0.099119390638618 1
ion O   0.003429002848389   0.643029337252394   0.142320789686248 1
ion O   0.245645194404517   0.605764763334076   0.394601304848909 1
ion O  -0.004346022925827   0.846928527386806   0.846988229418648 1
ion O   0.253485984683255   0.902303496741918   0.598863392554946 1
ion O   0.003576645099804   0.650336898556309   0.653451281091988 1
ion O   0.253684753625906   0.606171846660043   0.894315428127631 1
ion O   0.495597546934968   0.346979085146301   0.346977129997119 1
ion O   0.753461116022618   0.402315829668722   0.098903305084662 1
ion O   0.503444095063249   0.150316296911902   0.153435343819026 1
ion O   0.753584722282069   0.106146416383382   0.394267491731257 1
ion O   0.495605321328592   0.353828190659423   0.858261099446242 1
ion O   0.745650527886409   0.401982682444039   0.599163713789600 1
ion O   0.503421834618923   0.142985898423042   0.642395050827251 1
ion O   0.745681057862532   0.105765295401931   0.894616894327752 1
ion O   0.503482932874032   0.846829415946120   0.347024435100994 1
ion O   0.753476103635112   0.890932442042302   0.106468812130040 1
ion O   0.495745132919624   0.650037805249430   0.153677311859305 1
ion O   0.753610837828096   0.594803350056531   0.401793202910457 1
ion O   0.503726503685109   0.854246011917404   0.857968610245631 1
ion O   0.745430237525659   0.891204295227388   0.605894956008628 1
ion O   0.495474477902417   0.643149222446503   0.642286441515649 1
ion O   0.745544582318901   0.595044700928442   0.901315007302068 1

# Forces in Lattice coordinates:
force Cr   0.000144944420331  -0.001652580869616   0.002236564816745 1
force Cr   0.000935285859744  -0.000797750470974  -0.003277057465002 1
force Cr   0.000975870063114  -0.002507970817630  -0.002090496906449 1
force Cr   0.000622487490445  -0.002100339218903   0.001413108585671 1
force Cr   0.000081629105216  -0.002411777099640  -0.000189013022714 1
force Cr   0.001221943660411  -0.005550248060413   0.001958876433745 1
force Cr   0.000949787178312  -0.003483977327650  -0.000033570020122 1
force Cr  -0.000151968523091  -0.003406231858123   0.001965848852819 1
force Cr   0.000853748696894  -0.002885972797175   0.001095301043117 1
force Cr   0.000140020402659  -0.001961708594692   0.002988840162575 1
force Cr   0.000249152113024  -0.002001771399401  -0.001019290245267 1
force Cr   0.000717424770818  -0.003512851536448   0.001877947968138 1
force Cr   0.000782827966459  -0.001927086456584  -0.001235304880822 1
force Cr  -0.000226158721573  -0.003389051660848   0.001273291769845 1
force Cr   0.000078670939649  -0.002147687411330   0.002143372005699 1
force Cr   0.000468065219063  -0.002569113235550  -0.001840909019687 1
force O  -0.000247438678508  -0.002104333949561   0.001050617481134 1
force O   0.000624457754251  -0.004860001506671  -0.000725236643262 1
force O   0.000771592484967  -0.005006197605046   0.000869231522014 1
force O   0.000471108480744  -0.002108853231559   0.000683896582629 1
force O   0.000316491122051  -0.001747722966173  -0.000546781731658 1
force O   0.000530485443909  -0.002895912416228  -0.001532363724961 1
force O   0.000227428755539  -0.002438307676286   0.001686893873987 1
force O  -0.000196006222971  -0.002997374049946  -0.000004030723698 1
force O   0.000330399122226  -0.001095488888827  -0.000666330701864 1
force O   0.000649965831332  -0.002436013981970   0.000532682762531 1
force O   0.000731091765770  -0.003769602602169   0.002200196661813 1
force O  -0.000222803712652  -0.000960707000325   0.001563024954091 1
force O   0.000207750281495  -0.000432426360395  -0.001330271947420 1
force O  -0.000128781938478  -0.003400575272694   0.000039653334879 1
force O  -0.000343656685665  -0.004304848336868   0.001922095506845 1
force O  -0.000053302797976  -0.000357800334791  -0.000271315604405 1
force O   0.000643448099698  -0.001930477770243  -0.000815820986186 1
force O   0.000281113969804  -0.002941824002710  -0.000562021729000 1
force O   0.000486514566832  -0.002789029593152   0.002472142529309 1
force O   0.000152052284120  -0.000623757029276   0.000776897795407 1
force O  -0.000184888793367  -0.000223312588975  -0.000993952443239 1
force O   0.000140970157614  -0.002207303886857   0.000300771107811 1
force O   0.000848553897715  -0.004066987335848   0.001224590265948 1
force O  -0.000428893929053  -0.000959062638101   0.001647019841899 1
force O   0.000444271092608  -0.001779588561231  -0.000055628826736 1
force O   0.000646614236902  -0.003896931641233  -0.000799797351459 1
force O  -0.000844514618088  -0.002752575232581   0.000072821614668 1
force O  -0.000604853744302  -0.000645033819994   0.000226702722557 1
force O  -0.000907179867511  -0.003447597884422   0.000896373517582 1
force O   0.000861604888964  -0.003177447760720   0.002058351829996 1
force O   0.000793767837873  -0.002954368959541   0.002083154930132 1
force O   0.000824280632234  -0.001328227814147   0.001900828832577 1

# Energy components:
   Eewald =    -1336.9899375999930271
       EH =      507.1870300719554052
     Eloc =    -1567.1290357371412938
      Enl =      222.6345888104283972
      Exc =     -291.9328797948610941
 Exc_core =       13.9082665083301684
       KE =      546.6257142828833366
-------------------------------------
     Etot =    -1905.6962534583983597
       TS =        0.2897368646409909
-------------------------------------
        F =    -1905.9859903230394593

IonicMinimize: Iter:  20  F: -1905.985990323039459  |grad|_K:  6.919e-05  alpha:  1.000e+00  linmin: -3.755e-01  t[s]:  52072.82
IonicMinimize: Converged (|grad|_K<1.000000e-04).

#--- Lowdin population analysis ---
# oxidation-state Cr +1.343 +1.343 +1.343 +1.343 +1.342 +1.343 +1.342 +1.343 +1.342 +1.343 +1.342 +1.343 +1.343 +1.343 +1.342 +1.343
# oxidation-state O -0.605 -0.605 -0.605 -0.649 -0.649 -0.605 -0.649 -0.648 -0.605 -0.649 -0.605 -0.605 -0.649 -0.649 -0.649 -0.605 -0.649 -0.649 -0.649 -0.605 -0.605 -0.650 -0.605 -0.605 -0.649 -0.605 -0.649 -0.648 -0.605 -0.605 -0.605 -0.649


Dumping 'CrO2_ion.Ecomponents' ... done
End date and time: Sat Jun  8 02:07:50 2024  (Duration: 0-14:28:01.55)
Done!
