--------------------------------------------------------------------------
[[34428,1],1]: A high-performance Open MPI point-to-point messaging module
was unable to find any relevant network interfaces:

Module: OpenFabrics (openib)
  Host: node3217

Another transport will be used instead, although this may result in
lower performance.
--------------------------------------------------------------------------

*************** JDFTx 1.7.0 (git hash 3664913) ***************

Start date and time: Sat Jul 13 23:28:08 2024
Executable jdftx with command-line: -i CuO_ion.in
Running on hosts (process indices):  node3217.physics.cornell.edu (0-15)
Divided in process groups (process indices):  0 (0)  1 (1)  2 (2)  3 (3)  4 (4)  5 (5)  6 (6)  7 (7)  8 (8)  9 (9)  10 (10)  11 (11)  12 (12)  13 (13)  14 (14)  15 (15)
Resource initialization completed at t[s]:      0.00
Run totals: 16 processes, 32 threads, 0 GPUs


Input parsed successfully to the following command list (including defaults):

basis kpoint-dependent
coords-type Lattice
core-overlap-check vector
coulomb-interaction Periodic
davidson-band-ratio 1.1
dump End Ecomponents
dump-name /data/rc652/CuO/ion/CuO_ion.$VAR
elec-cutoff 20 100
elec-eigen-algo Davidson
elec-ex-corr gga-PBEsol
elec-smearing Fermi 0.01
electronic-minimize  \
	dirUpdateScheme      FletcherReeves \
	linminMethod         DirUpdateRecommended \
	nIterations          100 \
	history              15 \
	knormThreshold       0 \
	maxThreshold         no \
	energyDiffThreshold  1e-08 \
	nEnergyDiff          2 \
	alphaTstart          1 \
	alphaTmin            1e-10 \
	updateTestStepSize   yes \
	alphaTreduceFactor   0.1 \
	alphaTincreaseFactor 3 \
	nAlphaAdjustMax      3 \
	wolfeEnergy          0.0001 \
	wolfeGradient        0.9 \
	fdTest               no
electronic-scf  \
	nIterations	50 \
	energyDiffThreshold	1e-08 \
	residualThreshold	1e-07 \
	mixFraction	0.5 \
	qMetric	0.8 \
	history	10 \
	nEigSteps	2 \
	eigDiffThreshold	1e-08 \
	mixedVariable	Density \
	qKerker	0.8 \
	qKappa	-1 \
	verbose	no \
	mixFractionMag	1.5
exchange-regularization WignerSeitzTruncated
fluid None
fluid-ex-corr lda-TF lda-PZ
fluid-gummel-loop 10 1.000000e-05
fluid-minimize  \
	dirUpdateScheme      PolakRibiere \
	linminMethod         DirUpdateRecommended \
	nIterations          100 \
	history              15 \
	knormThreshold       0 \
	maxThreshold         no \
	energyDiffThreshold  0 \
	nEnergyDiff          2 \
	alphaTstart          1 \
	alphaTmin            1e-10 \
	updateTestStepSize   yes \
	alphaTreduceFactor   0.1 \
	alphaTincreaseFactor 3 \
	nAlphaAdjustMax      3 \
	wolfeEnergy          0.0001 \
	wolfeGradient        0.9 \
	fdTest               no
fluid-solvent H2O 55.338 ScalarEOS \
	epsBulk 78.4 \
	pMol 0.92466 \
	epsInf 1.77 \
	Pvap 1.06736e-10 \
	sigmaBulk 4.62e-05 \
	Rvdw 2.61727 \
	Res 1.42 \
	tauNuc 343133 \
	poleEl 15 7 1
forces-output-coords Positions
ion Cu  -0.011140000000000   0.174390000000000   0.003720000000000 1
ion Cu   0.167570000000000  -0.017460000000000   0.255770000000000 1
ion Cu   0.005380000000000   0.173760000000000   0.499740000000000 1
ion Cu   0.174640000000000   0.018370000000000   0.744950000000000 1
ion Cu  -0.003560000000000   0.493140000000000  -0.011110000000000 1
ion Cu   0.166870000000000   0.335820000000000   0.226290000000000 1
ion Cu   0.007840000000000   0.484010000000000   0.496160000000000 1
ion Cu   0.166370000000000   0.328750000000000   0.763340000000000 1
ion Cu   0.008510000000000   0.845300000000000  -0.004210000000000 1
ion Cu   0.159220000000000   0.659510000000000   0.244950000000000 1
ion Cu   0.014090000000000   0.830310000000000   0.501260000000000 1
ion Cu   0.171800000000000   0.672760000000000   0.754670000000000 1
ion Cu   0.326200000000000   0.165540000000000   0.012820000000000 1
ion Cu   0.510760000000000   0.011950000000000   0.251030000000000 1
ion Cu   0.337610000000000   0.163040000000000   0.489340000000000 1
ion Cu   0.501850000000000  -0.011670000000000   0.752460000000000 1
ion Cu   0.320200000000000   0.487010000000000   0.002340000000000 1
ion Cu   0.506450000000000   0.330660000000000   0.234680000000000 1
ion Cu   0.328980000000000   0.472710000000000   0.517730000000000 1
ion Cu   0.505820000000000   0.340940000000000   0.727790000000000 1
ion Cu   0.331680000000000   0.843830000000000  -0.003890000000000 1
ion Cu   0.493150000000000   0.672050000000000   0.247140000000000 1
ion Cu   0.345870000000000   0.816320000000000   0.504750000000000 1
ion Cu   0.498350000000000   0.660970000000000   0.757630000000000 1
ion Cu   0.668270000000000   0.167780000000000   0.009440000000000 1
ion Cu   0.834890000000000   0.004070000000000   0.239050000000000 1
ion Cu   0.663500000000000   0.171250000000000   0.494860000000000 1
ion Cu   0.840210000000000  -0.002670000000000   0.764020000000000 1
ion Cu   0.672280000000000   0.507350000000000  -0.006070000000000 1
ion Cu   0.824310000000000   0.335640000000000   0.243470000000000 1
ion Cu   0.671950000000000   0.511170000000000   0.486450000000000 1
ion Cu   0.847770000000000   0.334240000000000   0.753330000000000 1
ion Cu   0.660620000000000   0.830420000000000   0.002620000000000 1
ion Cu   0.846530000000000   0.665780000000000   0.260330000000000 1
ion Cu   0.659110000000000   0.829690000000000   0.506400000000000 1
ion Cu   0.833570000000000   0.662240000000000   0.743550000000000 1
ion O   0.018760000000000   0.329360000000000   0.116480000000000 1
ion O   0.326780000000000   0.006000000000000   0.390300000000000 1
ion O  -0.000270000000000   0.312950000000000   0.623490000000000 1
ion O   0.323130000000000  -0.000590000000000   0.874280000000000 1
ion O   0.003880000000000   0.658070000000000   0.122350000000000 1
ion O   0.324180000000000   0.327130000000000   0.359110000000000 1
ion O  -0.000780000000000   0.647700000000000   0.623780000000000 1
ion O   0.337850000000000   0.346380000000000   0.863920000000000 1
ion O   0.017070000000000   1.001560000000000   0.137970000000000 1
ion O   0.348600000000000   0.679540000000000   0.382930000000000 1
ion O  -0.008020000000000   0.991690000000000   0.620130000000000 1
ion O   0.341290000000000   0.676060000000000   0.879270000000000 1
ion O   0.343130000000000   0.321120000000000   0.118480000000000 1
ion O   0.645500000000000  -0.014810000000000   0.367490000000000 1
ion O   0.362980000000000   0.336410000000000   0.633870000000000 1
ion O   0.651380000000000  -0.006940000000000   0.897060000000000 1
ion O   0.332560000000000   0.649730000000000   0.138470000000000 1
ion O   0.653540000000000   0.339210000000000   0.366890000000000 1
ion O   0.331380000000000   0.665000000000000   0.618950000000000 1
ion O   0.658640000000000   0.338080000000000   0.870990000000000 1
ion O   0.332870000000000   0.996120000000000   0.124270000000000 1
ion O   0.661850000000000   0.689970000000000   0.376720000000000 1
ion O   0.324840000000000   0.992330000000000   0.620040000000000 1
ion O   0.662790000000000   0.678670000000000   0.874460000000000 1
ion O   0.678390000000000   0.324130000000000   0.127230000000000 1
ion O   0.981070000000000  -0.010670000000000   0.372450000000000 1
ion O   0.677740000000000   0.315510000000000   0.639930000000000 1
ion O   1.002120000000000   0.012740000000000   0.872860000000000 1
ion O   0.667280000000000   0.665480000000000   0.134520000000000 1
ion O   1.003620000000000   0.346140000000000   0.382070000000000 1
ion O   0.661700000000000   0.647100000000000   0.604140000000000 1
ion O   1.004430000000000   0.327640000000000   0.877990000000000 1
ion O   0.664250000000000   0.992380000000000   0.126170000000000 1
ion O   0.992360000000000   0.664000000000000   0.375680000000000 1
ion O   0.666800000000000   1.009110000000000   0.627540000000000 1
ion O   1.007300000000000   0.688060000000000   0.857670000000000 1
ion-species GBRV/$ID_pbesol.uspp
ion-width 0
ionic-minimize  \
	dirUpdateScheme      L-BFGS \
	linminMethod         DirUpdateRecommended \
	nIterations          30 \
	history              15 \
	knormThreshold       0.0001 \
	maxThreshold         no \
	energyDiffThreshold  1e-06 \
	nEnergyDiff          2 \
	alphaTstart          1 \
	alphaTmin            1e-10 \
	updateTestStepSize   yes \
	alphaTreduceFactor   0.1 \
	alphaTincreaseFactor 3 \
	nAlphaAdjustMax      3 \
	wolfeEnergy          0.0001 \
	wolfeGradient        0.9 \
	fdTest               no
kpoint   0.500000000000   0.500000000000   0.500000000000  1.00000000000000
kpoint-folding 2 2 2 
latt-move-scale 1 1 1
latt-scale 1 1 1 
lattice  \
	  11.607135737443389  -11.607135737443389   -0.000000000000000  \
	  11.603570420906998   11.603570420906998    0.416184340804498  \
	  -0.238198440530414   -0.238198440530414   19.350858905921452 
lattice-minimize  \
	dirUpdateScheme      L-BFGS \
	linminMethod         DirUpdateRecommended \
	nIterations          0 \
	history              15 \
	knormThreshold       0 \
	maxThreshold         no \
	energyDiffThreshold  1e-06 \
	nEnergyDiff          2 \
	alphaTstart          1 \
	alphaTmin            1e-10 \
	updateTestStepSize   yes \
	alphaTreduceFactor   0.1 \
	alphaTincreaseFactor 3 \
	nAlphaAdjustMax      3 \
	wolfeEnergy          0.0001 \
	wolfeGradient        0.9 \
	fdTest               no
lcao-params -1 1e-06 0.01
pcm-variant GLSSA13
perturb-minimize  \
	nIterations            0 \
	algorithm              MINRES \
	residualTol            0.0001 \
	residualDiffThreshold  0.0001 \
	CGBypass               no \
	recomputeResidual      no
spintype no-spin
subspace-rotation-factor 1 yes
symmetries automatic
symmetry-threshold 0.0001



---------- Setting up symmetries ----------

Found 4 point-group symmetries of the bravais lattice
Found 1 space-group symmetries with basis
Applied RMS atom displacement 0 bohrs to make symmetries exact.

---------- Initializing the Grid ----------
R = 
[      11.6071     -11.6071            0  ]
[      11.6036      11.6036     0.416184  ]
[    -0.238198    -0.238198      19.3509  ]
unit cell volume = 5214.81
G =
[    0.27066   0.270624 -0.00582039  ]
[   -0.27066   0.270624 -0.00582039  ]
[          0 0.00666247   0.324555  ]
Minimum fftbox size, Smin = [  76  76  88  ]
Chosen fftbox size, S = [  80  80  90  ]

---------- Initializing tighter grid for wavefunction operations ----------
R = 
[      11.6071     -11.6071            0  ]
[      11.6036      11.6036     0.416184  ]
[    -0.238198    -0.238198      19.3509  ]
unit cell volume = 5214.81
G =
[    0.27066   0.270624 -0.00582039  ]
[   -0.27066   0.270624 -0.00582039  ]
[          0 0.00666247   0.324555  ]
Minimum fftbox size, Smin = [  68  68  80  ]
Chosen fftbox size, S = [  70  70  80  ]

---------- Exchange Correlation functional ----------
Initalized PBEsol GGA exchange.
Initalized PBEsol GGA correlation.

---------- Setting up pseudopotentials ----------
Width of ionic core gaussian charges (only for fluid interactions / plotting) set to 0

Reading pseudopotential file '/home/rc652/build/pseudopotentials/GBRV/cu_pbesol.uspp':
  Title: Cu.  Created by USPP 7.3.6 on 3-2-2014
  Reference state energy: -200.900738.  19 valence electrons in orbitals:
    |300>  occupation: 2  eigenvalue: -5.009920
    |310>  occupation: 6  eigenvalue: -3.440538
    |320>  occupation: 8  eigenvalue: -0.926387
    |400>  occupation: 2  eigenvalue: -0.568765
    |410>  occupation: 0  eigenvalue: -0.325798
  lMax: 2  lLocal: 3  QijEcut: 6
  6 projectors sampled on a log grid with 613 points:
    l: 0  eig: -5.009920  rCut: 1.4
    l: 0  eig: -0.568765  rCut: 1.4
    l: 1  eig: -3.440538  rCut: 1.55
    l: 1  eig: -0.325798  rCut: 1.55
    l: 2  eig: -0.926387  rCut: 1.5
    l: 2  eig: 1.500000  rCut: 1.5
  Partial core density with radius 0.8
  Transforming core density to a uniform radial grid of dG=0.02 with 1312 points.
  Transforming local potential to a uniform radial grid of dG=0.02 with 1312 points.
  Transforming nonlocal projectors to a uniform radial grid of dG=0.02 with 432 points.
  Transforming density augmentations to a uniform radial grid of dG=0.02 with 1312 points.
  Transforming atomic orbitals to a uniform radial grid of dG=0.02 with 432 points.
  Core radius for overlap checks: 1.55 bohrs.

Reading pseudopotential file '/home/rc652/build/pseudopotentials/GBRV/o_pbesol.uspp':
  Title: O.  Created by USPP 7.3.6 on 3-2-2014
  Reference state energy: -15.849885.  6 valence electrons in orbitals:
    |200>  occupation: 2  eigenvalue: -0.873214
    |210>  occupation: 4  eigenvalue: -0.330058
  lMax: 2  lLocal: 2  QijEcut: 6
  5 projectors sampled on a log grid with 511 points:
    l: 0  eig: -0.873214  rCut: 1.25
    l: 0  eig: 0.000000  rCut: 1.25
    l: 1  eig: -0.330058  rCut: 1.25
    l: 1  eig: 0.000000  rCut: 1.25
    l: 2  eig: 1.000000  rCut: 1.25
  Partial core density with radius 0.7
  Transforming core density to a uniform radial grid of dG=0.02 with 1312 points.
  Transforming local potential to a uniform radial grid of dG=0.02 with 1312 points.
  Transforming nonlocal projectors to a uniform radial grid of dG=0.02 with 432 points.
  Transforming density augmentations to a uniform radial grid of dG=0.02 with 1312 points.
  Transforming atomic orbitals to a uniform radial grid of dG=0.02 with 432 points.
  Core radius for overlap checks: 1.25 bohrs.

Initialized 2 species with 72 total atoms.

Folded 1 k-points by 2x2x2 to 8 k-points.

---------- Setting up k-points, bands, fillings ----------
Adding inversion symmetry to k-mesh for non-inversion-symmetric unit cell.
Reduced to 4 k-points under symmetry. 
Computing the number of bands and number of electrons
Calculating initial fillings.
nElectrons: 900.000000   nBands: 612   nStates: 4

----- Setting up reduced wavefunction bases (one per k-point) -----
average nbasis = 22286.750 , ideal nbasis = 22278.074

---------- Setting up ewald sum ----------
Optimum gaussian width for ewald sums = 3.391831 bohr.
Real space sum over 343 unit cells with max indices [  3  3  3  ]
Reciprocal space sum over 7581 terms with max indices [  9  9  10  ]

---------- Allocating electronic variables ----------
Initializing wave functions:  linear combination of atomic orbitals
Cu pseudo-atom occupations:   s ( 2 1 )  p ( 6 0 )  d ( 10 )
O pseudo-atom occupations:   s ( 2 )  p ( 4 )
	FillingsUpdate:  mu: +0.471517931  nElectrons: 900.000000
LCAOMinimize: Iter:   0  F: -7339.4752198305523052  |grad|_K:  5.673e-02  alpha:  1.000e+00
	FillingsUpdate:  mu: +1.308542356  nElectrons: 900.000000
LCAOMinimize: Iter:   1  F: -7662.5107018426324430  |grad|_K:  2.236e-02  alpha:  5.137e-01  linmin:  8.315e-02  cgtest: -1.777e+00  t[s]:     87.03
	FillingsUpdate:  mu: +1.345105550  nElectrons: 900.000000
LCAOMinimize: Iter:   2  F: -7692.8624777719551275  |grad|_K:  2.072e-02  alpha:  1.524e-01  linmin: -5.602e-03  cgtest:  5.312e-01  t[s]:    115.54
	FillingsUpdate:  mu: +1.376573945  nElectrons: 900.000000
LCAOMinimize: Iter:   3  F: -7759.7980045815529593  |grad|_K:  1.973e-02  alpha:  3.774e-01  linmin:  7.027e-03  cgtest: -5.048e-01  t[s]:    144.03
	FillingsUpdate:  mu: +1.309817454  nElectrons: 900.000000
LCAOMinimize: Iter:   4  F: -7777.1249744264223409  |grad|_K:  3.852e-02  alpha:  3.859e-02  linmin:  3.586e-02  cgtest:  1.064e-01  t[s]:    172.49
LCAOMinimize: 	Bad step direction: g.d > 0.
LCAOMinimize: 	Undoing step.
LCAOMinimize: 	Step failed: resetting search direction.
	FillingsUpdate:  mu: +1.309817454  nElectrons: 900.000000
LCAOMinimize: Iter:   5  F: -7777.1249744264223409  |grad|_K:  3.852e-02  alpha:  0.000e+00
	FillingsUpdate:  mu: +1.090241929  nElectrons: 900.000000
LCAOMinimize: Iter:   6  F: -7797.1181563950976852  |grad|_K:  1.432e-02  alpha:  2.591e-02  linmin: -6.160e-02  cgtest: -2.998e-01  t[s]:    222.17
LCAOMinimize: 	Predicted alpha/alphaT>3.000000, increasing alphaT to 7.771751e-02.
	FillingsUpdate:  mu: +0.928024532  nElectrons: 900.000000
LCAOMinimize: Iter:   7  F: -7809.4902521336871359  |grad|_K:  1.029e-02  alpha:  4.273e-02  linmin: -2.919e-02  cgtest:  1.494e-01  t[s]:    257.97
	FillingsUpdate:  mu: +0.939571705  nElectrons: 900.000000
LCAOMinimize: Iter:   8  F: -7812.8735029902009046  |grad|_K:  1.229e-02  alpha:  3.448e-02  linmin:  9.861e-03  cgtest:  4.628e-01  t[s]:    286.87
	FillingsUpdate:  mu: +0.921926488  nElectrons: 900.000000
LCAOMinimize: Iter:   9  F: -7815.6918460412562126  |grad|_K:  1.173e-02  alpha:  2.456e-02  linmin:  7.413e-04  cgtest:  6.536e-01  t[s]:    315.34
	FillingsUpdate:  mu: +0.865764625  nElectrons: 900.000000
LCAOMinimize: Iter:  10  F: -7819.9899299997714479  |grad|_K:  7.485e-03  alpha:  4.073e-02  linmin: -1.549e-02  cgtest: -1.213e-02  t[s]:    343.92
	FillingsUpdate:  mu: +0.844169602  nElectrons: 900.000000
LCAOMinimize: Iter:  11  F: -7823.6034679692284044  |grad|_K:  8.518e-03  alpha:  8.148e-02  linmin: -2.756e-04  cgtest:  8.076e-02  t[s]:    372.42
	FillingsUpdate:  mu: +0.764741983  nElectrons: 900.000000
LCAOMinimize: Iter:  12  F: -7827.7334070762017291  |grad|_K:  9.098e-03  alpha:  7.473e-02  linmin:  5.143e-03  cgtest:  2.652e-02  t[s]:    400.88
	FillingsUpdate:  mu: +0.646052734  nElectrons: 900.000000
LCAOMinimize: Iter:  13  F: -7830.6006706705275064  |grad|_K:  5.840e-03  alpha:  3.900e-02  linmin: -2.023e-02  cgtest:  6.579e-01  t[s]:    429.42
LCAOMinimize: Encountered beta<0, resetting CG.
	FillingsUpdate:  mu: +0.560955804  nElectrons: 900.000000
LCAOMinimize: Iter:  14  F: -7831.4890998908176698  |grad|_K:  1.915e-03  alpha:  3.448e-02  linmin:  1.614e-02  cgtest: -7.776e-02  t[s]:    457.92
	FillingsUpdate:  mu: +0.545691513  nElectrons: 900.000000
LCAOMinimize: Iter:  15  F: -7831.6314474963264729  |grad|_K:  1.319e-03  alpha:  5.269e-02  linmin:  6.433e-04  cgtest:  7.459e-02  t[s]:    486.34
	FillingsUpdate:  mu: +0.537749422  nElectrons: 900.000000
LCAOMinimize: Iter:  16  F: -7831.7287235958347082  |grad|_K:  1.096e-03  alpha:  7.439e-02  linmin: -1.421e-03  cgtest:  5.346e-02  t[s]:    515.18
	FillingsUpdate:  mu: +0.524942294  nElectrons: 900.000000
LCAOMinimize: Iter:  17  F: -7831.7851845822842733  |grad|_K:  5.441e-04  alpha:  6.222e-02  linmin:  4.133e-04  cgtest: -4.875e-02  t[s]:    543.66
	FillingsUpdate:  mu: +0.521422844  nElectrons: 900.000000
LCAOMinimize: Iter:  18  F: -7831.7965130816528472  |grad|_K:  2.720e-04  alpha:  5.099e-02  linmin: -6.600e-05  cgtest:  1.279e-02  t[s]:    572.34
	FillingsUpdate:  mu: +0.520650246  nElectrons: 900.000000
LCAOMinimize: Iter:  19  F: -7831.8011754556600863  |grad|_K:  3.012e-04  alpha:  8.362e-02  linmin: -1.294e-03  cgtest: -2.419e-03  t[s]:    600.94
	FillingsUpdate:  mu: +0.518158920  nElectrons: 900.000000
LCAOMinimize: Iter:  20  F: -7831.8063416569266337  |grad|_K:  2.329e-04  alpha:  7.533e-02  linmin:  4.071e-04  cgtest: -1.462e-02  t[s]:    629.56
	FillingsUpdate:  mu: +0.516499602  nElectrons: 900.000000
LCAOMinimize: Iter:  21  F: -7831.8087544525878911  |grad|_K:  1.031e-04  alpha:  5.925e-02  linmin:  1.971e-04  cgtest:  3.132e-02  t[s]:    658.29
	FillingsUpdate:  mu: +0.516096737  nElectrons: 900.000000
LCAOMinimize: Iter:  22  F: -7831.8092318685612554  |grad|_K:  7.218e-05  alpha:  5.976e-02  linmin: -2.021e-05  cgtest: -4.706e-04  t[s]:    686.69
	FillingsUpdate:  mu: +0.515647284  nElectrons: 900.000000
LCAOMinimize: Iter:  23  F: -7831.8095741842344069  |grad|_K:  7.174e-05  alpha:  8.746e-02  linmin:  2.371e-04  cgtest: -6.222e-04  t[s]:    715.10
	FillingsUpdate:  mu: +0.515446972  nElectrons: 900.000000
LCAOMinimize: Iter:  24  F: -7831.8098848599056510  |grad|_K:  5.209e-05  alpha:  8.041e-02  linmin:  1.938e-04  cgtest:  5.146e-03  t[s]:    743.60
	FillingsUpdate:  mu: +0.515399098  nElectrons: 900.000000
LCAOMinimize: Iter:  25  F: -7831.8099867295750300  |grad|_K:  3.538e-05  alpha:  4.997e-02  linmin: -2.025e-05  cgtest:  3.643e-03  t[s]:    772.53
	FillingsUpdate:  mu: +0.515532905  nElectrons: 900.000000
LCAOMinimize: Iter:  26  F: -7831.8100885026033211  |grad|_K:  3.957e-05  alpha:  1.082e-01  linmin: -4.175e-06  cgtest: -8.590e-04  t[s]:    801.02
	FillingsUpdate:  mu: +0.515874645  nElectrons: 900.000000
LCAOMinimize: Iter:  27  F: -7831.8102153695299421  |grad|_K:  2.533e-05  alpha:  1.078e-01  linmin:  4.097e-05  cgtest: -4.919e-05  t[s]:    829.48
	FillingsUpdate:  mu: +0.515939635  nElectrons: 900.000000
LCAOMinimize: Iter:  28  F: -7831.8102370258584415  |grad|_K:  1.191e-05  alpha:  4.490e-02  linmin: -2.946e-05  cgtest:  1.642e-03  t[s]:    858.02
	FillingsUpdate:  mu: +0.515969718  nElectrons: 900.000000
LCAOMinimize: Iter:  29  F: -7831.8102420491040903  |grad|_K:  7.212e-06  alpha:  4.710e-02  linmin:  1.129e-05  cgtest: -3.495e-04  t[s]:    886.40
	FillingsUpdate:  mu: +0.515994417  nElectrons: 900.000000
LCAOMinimize: Iter:  30  F: -7831.8102455546568308  |grad|_K:  6.302e-06  alpha:  8.972e-02  linmin:  9.719e-05  cgtest: -2.767e-04  t[s]:    914.80
LCAOMinimize: None of the convergence criteria satisfied after 30 iterations.


---- Citations for features of the code used in this run ----

   Software package:
      R. Sundararaman, K. Letchworth-Weaver, K.A. Schwarz, D. Gunceler, Y. Ozhabes and T.A. Arias, 'JDFTx: software for joint density-functional theory', SoftwareX 6, 278 (2017)

   gga-PBEsol exchange-correlation functional:
      J.P. Perdew et al., Phys. Rev. Lett. 100, 136406 (2008)

   Pseudopotentials:
      KF Garrity, JW Bennett, KM Rabe and D Vanderbilt, Comput. Mater. Sci. 81, 446 (2014)

This list may not be complete. Please suggest additional citations or
report any other bugs at https://github.com/shankar1729/jdftx/issues

Initialization completed successfully at t[s]:    929.12


-------- Electronic minimization -----------
Will mix electronic density at each iteration.
	FillingsUpdate:  mu: +0.515994417  nElectrons: 900.000000
	FillingsUpdate:  mu: +0.503076182  nElectrons: 900.000000
SCF: Cycle:  0   F: -7826.103940820240496   dF: +5.706e+00   |Residual|: 4.355e+00   |deigs|: 3.740e-02  t[s]:   1057.59
	FillingsUpdate:  mu: +0.352862946  nElectrons: 900.000000
SCF: Cycle:  1   F: -7824.348374491036338   dF: +1.756e+00   |Residual|: 3.776e+00   |deigs|: 1.952e-01  t[s]:   1166.37
	FillingsUpdate:  mu: +0.397123626  nElectrons: 900.000000
SCF: Cycle:  2   F: -7837.511423996192207   dF: -1.316e+01   |Residual|: 6.985e-01   |deigs|: 1.018e-01  t[s]:   1275.39
	FillingsUpdate:  mu: +0.398866054  nElectrons: 900.000000
SCF: Cycle:  3   F: -7836.874456143852512   dF: +6.370e-01   |Residual|: 7.888e-01   |deigs|: 7.096e-03  t[s]:   1384.35
	FillingsUpdate:  mu: +0.399199006  nElectrons: 900.000000
SCF: Cycle:  4   F: -7838.056484863197511   dF: -1.182e+00   |Residual|: 2.956e-01   |deigs|: 2.640e-03  t[s]:   1493.48
	FillingsUpdate:  mu: +0.400095855  nElectrons: 900.000000
SCF: Cycle:  5   F: -7837.965748104908016   dF: +9.074e-02   |Residual|: 3.312e-01   |deigs|: 1.567e-03  t[s]:   1602.46
	FillingsUpdate:  mu: +0.400209292  nElectrons: 900.000000
SCF: Cycle:  6   F: -7838.088604013470103   dF: -1.229e-01   |Residual|: 1.797e-01   |deigs|: 1.550e-03  t[s]:   1712.04
	FillingsUpdate:  mu: +0.400498917  nElectrons: 900.000000
SCF: Cycle:  7   F: -7838.130589117289674   dF: -4.199e-02   |Residual|: 9.496e-02   |deigs|: 7.652e-04  t[s]:   1818.63
	FillingsUpdate:  mu: +0.400596578  nElectrons: 900.000000
SCF: Cycle:  8   F: -7838.143476260593161   dF: -1.289e-02   |Residual|: 3.129e-02   |deigs|: 7.336e-04  t[s]:   1882.82
	FillingsUpdate:  mu: +0.400720124  nElectrons: 900.000000
SCF: Cycle:  9   F: -7838.143956645341859   dF: -4.804e-04   |Residual|: 2.426e-02   |deigs|: 2.617e-04  t[s]:   1947.05
	FillingsUpdate:  mu: +0.400783438  nElectrons: 900.000000
SCF: Cycle: 10   F: -7838.144522519823113   dF: -5.659e-04   |Residual|: 1.524e-02   |deigs|: 2.404e-04  t[s]:   2011.03
	FillingsUpdate:  mu: +0.400906492  nElectrons: 900.000000
SCF: Cycle: 11   F: -7838.144730583464479   dF: -2.081e-04   |Residual|: 7.585e-03   |deigs|: 1.655e-04  t[s]:   2075.08
	FillingsUpdate:  mu: +0.400920877  nElectrons: 900.000000
SCF: Cycle: 12   F: -7838.144751907199861   dF: -2.132e-05   |Residual|: 6.831e-03   |deigs|: 9.871e-05  t[s]:   2139.15
	FillingsUpdate:  mu: +0.400909860  nElectrons: 900.000000
SCF: Cycle: 13   F: -7838.144817755653094   dF: -6.585e-05   |Residual|: 1.842e-03   |deigs|: 6.053e-05  t[s]:   2203.01
	FillingsUpdate:  mu: +0.400908616  nElectrons: 900.000000
SCF: Cycle: 14   F: -7838.144805027410257   dF: +1.273e-05   |Residual|: 3.173e-03   |deigs|: 4.228e-05  t[s]:   2267.32
	FillingsUpdate:  mu: +0.400915716  nElectrons: 900.000000
SCF: Cycle: 15   F: -7838.144822284874863   dF: -1.726e-05   |Residual|: 8.096e-04   |deigs|: 3.294e-05  t[s]:   2331.34
	FillingsUpdate:  mu: +0.400922936  nElectrons: 900.000000
SCF: Cycle: 16   F: -7838.144822149594802   dF: +1.353e-07   |Residual|: 7.926e-04   |deigs|: 1.387e-05  t[s]:   2395.37
	FillingsUpdate:  mu: +0.400923895  nElectrons: 900.000000
SCF: Cycle: 17   F: -7838.144822460822979   dF: -3.112e-07   |Residual|: 6.594e-04   |deigs|: 1.153e-05  t[s]:   2459.32
	FillingsUpdate:  mu: +0.400922705  nElectrons: 900.000000
SCF: Cycle: 18   F: -7838.144822974215458   dF: -5.134e-07   |Residual|: 3.082e-04   |deigs|: 7.145e-06  t[s]:   2523.44
	FillingsUpdate:  mu: +0.400922079  nElectrons: 900.000000
SCF: Cycle: 19   F: -7838.144823027870189   dF: -5.365e-08   |Residual|: 2.908e-04   |deigs|: 4.579e-06  t[s]:   2587.45
	FillingsUpdate:  mu: +0.400922733  nElectrons: 900.000000
SCF: Cycle: 20   F: -7838.144823151009405   dF: -1.231e-07   |Residual|: 8.937e-05   |deigs|: 3.282e-06  t[s]:   2651.64
	FillingsUpdate:  mu: +0.400922880  nElectrons: 900.000000
SCF: Cycle: 21   F: -7838.144823148182695   dF: +2.827e-09   |Residual|: 9.047e-05   |deigs|: 1.451e-06  t[s]:   2715.74
	FillingsUpdate:  mu: +0.400922706  nElectrons: 900.000000
SCF: Cycle: 22   F: -7838.144823156685561   dF: -8.503e-09   |Residual|: 5.308e-05   |deigs|: 1.305e-06  t[s]:   2779.02
	FillingsUpdate:  mu: +0.400922709  nElectrons: 900.000000
SCF: Cycle: 23   F: -7838.144823160101623   dF: -3.416e-09   |Residual|: 3.303e-05   |deigs|: 7.871e-07  t[s]:   2841.48
SCF: Converged (|Delta E|<1.000000e-08 for 2 iters).

Setting wave functions to eigenvectors of Hamiltonian

# Ionic positions in lattice coordinates:
ion Cu  -0.011140000000000   0.174390000000000   0.003720000000000 1
ion Cu   0.167570000000000  -0.017460000000000   0.255770000000000 1
ion Cu   0.005380000000000   0.173760000000000   0.499740000000000 1
ion Cu   0.174640000000000   0.018370000000000   0.744950000000000 1
ion Cu  -0.003560000000000   0.493140000000000  -0.011110000000000 1
ion Cu   0.166870000000000   0.335820000000000   0.226290000000000 1
ion Cu   0.007840000000000   0.484010000000000   0.496160000000000 1
ion Cu   0.166370000000000   0.328750000000000   0.763340000000000 1
ion Cu   0.008510000000000   0.845300000000000  -0.004210000000000 1
ion Cu   0.159220000000000   0.659510000000000   0.244950000000000 1
ion Cu   0.014090000000000   0.830310000000000   0.501260000000000 1
ion Cu   0.171800000000000   0.672760000000000   0.754670000000000 1
ion Cu   0.326200000000000   0.165540000000000   0.012820000000000 1
ion Cu   0.510760000000000   0.011950000000000   0.251030000000000 1
ion Cu   0.337610000000000   0.163040000000000   0.489340000000000 1
ion Cu   0.501850000000000  -0.011670000000000   0.752460000000000 1
ion Cu   0.320200000000000   0.487010000000000   0.002340000000000 1
ion Cu   0.506450000000000   0.330660000000000   0.234680000000000 1
ion Cu   0.328980000000000   0.472710000000000   0.517730000000000 1
ion Cu   0.505820000000000   0.340940000000000   0.727790000000000 1
ion Cu   0.331680000000000   0.843830000000000  -0.003890000000000 1
ion Cu   0.493150000000000   0.672050000000000   0.247140000000000 1
ion Cu   0.345870000000000   0.816320000000000   0.504750000000000 1
ion Cu   0.498350000000000   0.660970000000000   0.757630000000000 1
ion Cu   0.668270000000000   0.167780000000000   0.009440000000000 1
ion Cu   0.834890000000000   0.004070000000000   0.239050000000000 1
ion Cu   0.663500000000000   0.171250000000000   0.494860000000000 1
ion Cu   0.840210000000000  -0.002670000000000   0.764020000000000 1
ion Cu   0.672280000000000   0.507350000000000  -0.006070000000000 1
ion Cu   0.824310000000000   0.335640000000000   0.243470000000000 1
ion Cu   0.671950000000000   0.511170000000000   0.486450000000000 1
ion Cu   0.847770000000000   0.334240000000000   0.753330000000000 1
ion Cu   0.660620000000000   0.830420000000000   0.002620000000000 1
ion Cu   0.846530000000000   0.665780000000000   0.260330000000000 1
ion Cu   0.659110000000000   0.829690000000000   0.506400000000000 1
ion Cu   0.833570000000000   0.662240000000000   0.743550000000000 1
ion O   0.018760000000000   0.329360000000000   0.116480000000000 1
ion O   0.326780000000000   0.006000000000000   0.390300000000000 1
ion O  -0.000270000000000   0.312950000000000   0.623490000000000 1
ion O   0.323130000000000  -0.000590000000000   0.874280000000000 1
ion O   0.003880000000000   0.658070000000000   0.122350000000000 1
ion O   0.324180000000000   0.327130000000000   0.359110000000000 1
ion O  -0.000780000000000   0.647700000000000   0.623780000000000 1
ion O   0.337850000000000   0.346380000000000   0.863920000000000 1
ion O   0.017070000000000   1.001560000000000   0.137970000000000 1
ion O   0.348600000000000   0.679540000000000   0.382930000000000 1
ion O  -0.008020000000000   0.991690000000000   0.620130000000000 1
ion O   0.341290000000000   0.676060000000000   0.879270000000000 1
ion O   0.343130000000000   0.321120000000000   0.118480000000000 1
ion O   0.645500000000000  -0.014810000000000   0.367490000000000 1
ion O   0.362980000000000   0.336410000000000   0.633870000000000 1
ion O   0.651380000000000  -0.006940000000000   0.897060000000000 1
ion O   0.332560000000000   0.649730000000000   0.138470000000000 1
ion O   0.653540000000000   0.339210000000000   0.366890000000000 1
ion O   0.331380000000000   0.665000000000000   0.618950000000000 1
ion O   0.658640000000000   0.338080000000000   0.870990000000000 1
ion O   0.332870000000000   0.996120000000000   0.124270000000000 1
ion O   0.661850000000000   0.689970000000000   0.376720000000000 1
ion O   0.324840000000000   0.992330000000000   0.620040000000000 1
ion O   0.662790000000000   0.678670000000000   0.874460000000000 1
ion O   0.678390000000000   0.324130000000000   0.127230000000000 1
ion O   0.981070000000000  -0.010670000000000   0.372450000000000 1
ion O   0.677740000000000   0.315510000000000   0.639930000000000 1
ion O   1.002120000000000   0.012740000000000   0.872860000000000 1
ion O   0.667280000000000   0.665480000000000   0.134520000000000 1
ion O   1.003620000000000   0.346140000000000   0.382070000000000 1
ion O   0.661700000000000   0.647100000000000   0.604140000000000 1
ion O   1.004430000000000   0.327640000000000   0.877990000000000 1
ion O   0.664250000000000   0.992380000000000   0.126170000000000 1
ion O   0.992360000000000   0.664000000000000   0.375680000000000 1
ion O   0.666800000000000   1.009110000000000   0.627540000000000 1
ion O   1.007300000000000   0.688060000000000   0.857670000000000 1

# Forces in Lattice coordinates:
force Cu   0.169009913949206  -0.789376768084225  -0.110469171699552 1
force Cu   0.340540364577315   0.141886885875540   0.468945948012465 1
force Cu  -0.160094734336442  -0.999170417246820  -0.630590192720891 1
force Cu  -0.588344388581914  -0.184241663360966  -0.007220722968945 1
force Cu   0.072188907774397   0.700561690365483   0.238959722767369 1
force Cu   0.493562815262948  -0.027420059026150   1.369928349658018 1
force Cu  -0.071255264769164   1.184465948925716   1.120748358668685 1
force Cu   0.122420934444579  -0.024407119367432  -0.804369434233195 1
force Cu   0.008766013243733  -0.277600316677198   0.181939226340731 1
force Cu   0.302215190801151   0.044882435288704   0.594466936117847 1
force Cu  -0.289911401819003  -0.208979803401204  -0.019719103319098 1
force Cu   0.281834078998516  -0.064332270284163  -0.590541740042832 1
force Cu   0.059006847887891  -0.449956572752658  -1.230468240770389 1
force Cu  -1.377395079822757  -0.095461647524896  -0.647995402319108 1
force Cu  -0.003673415441506   0.800920388162243   0.914256869872787 1
force Cu  -0.138400338925802   0.126386397477880  -0.014925723880644 1
force Cu   0.231223858519194   0.612793392609120  -0.149470591063178 1
force Cu  -0.398541668795554   0.011014444617063   0.526577262520844 1
force Cu  -0.117795142030628   0.999101815179159  -1.363788485066308 1
force Cu   1.604390824316142   0.040043963955910   2.978034626956600 1
force Cu   0.026605434870898  -0.574065498932764   0.364503425220414 1
force Cu   0.535258707509262   0.038004599298835   0.475442612440504 1
force Cu  -0.191875742604950   1.271715454813879   0.089375166387660 1
force Cu   0.108029407050150   0.044079572295423  -0.620418466764598 1
force Cu  -0.083587844123287  -0.110325758977969  -0.573430446683569 1
force Cu  -0.205276035842195  -0.155143237011901   0.399929114534732 1
force Cu  -0.002561760454720  -0.169534997562214   0.015975891124673 1
force Cu  -0.626983116856511   0.017486472828525  -0.567451819682546 1
force Cu  -0.043991752541570  -0.190390837415859   0.221481940608705 1
force Cu   1.005844373633025   0.039896917971954   0.751083207618137 1
force Cu  -0.067075999721482  -1.163325465511420  -0.693770242916720 1
force Cu  -0.508502223367882  -0.116183040901672   0.085728099525039 1
force Cu   0.049244463144831  -0.321365549058193   0.560501257904555 1
force Cu  -0.980455038701677   0.079576460905164  -0.890554000389429 1
force Cu  -0.000220990062444   0.673242294936507   0.139986405358499 1
force Cu  -0.261070077441410   0.038827150186176  -0.023076223666552 1
force O  -0.884001401590913   0.282020559412373  -0.005202238544054 1
force O   0.047356468308903  -0.996787484175793  -1.178423407245518 1
force O   0.310507440094036   0.589214700963945   0.662678817272317 1
force O   0.243615093690669   0.390478948588335  -0.067415411489381 1
force O  -0.266160837475031   0.086533299267263  -0.529022764594479 1
force O   0.128376015192565   0.097063015180761   0.136412877120289 1
force O   0.247333524667398   0.042303711379336  -0.227060122589470 1
force O   0.210099539202687  -0.191636577807002   0.340946506818784 1
force O  -0.363398864880589   0.025137910314669  -0.890955921703806 1
force O  -0.308173543236645  -0.733067249894386  -0.709981525254634 1
force O   0.267332496224231   0.212374787712604   0.179995574815676 1
force O  -0.331439271607979  -0.160666412169180   0.255369208961181 1
force O   0.035119082333904   0.473166790707791   0.286836470910463 1
force O   1.015458548051015   0.252032988341386   1.121307653278250 1
force O  -2.057617321691100  -1.036136741018943  -1.458803048345839 1
force O   0.157512160337125   0.406473482015833  -0.852414376005073 1
force O  -0.226970757582073   0.026854975533292  -0.721722265954527 1
force O   0.200812855041179   0.037021772785214   0.484695698971709 1
force O   0.001033361940684  -0.494424457192242   0.871144336629539 1
force O   0.145431034433545  -0.010111108970986   0.125490550192447 1
force O   0.125361007659890  -0.089523090307749   0.581297739133441 1
force O   0.057728976482436  -0.332232194660200  -0.735603331830466 1
force O   0.395938246602809   0.047935278333147   0.076889290234565 1
force O   0.274274227945804  -0.159581326323320  -0.237629496251956 1
force O  -0.342953164283545   0.334772104427011  -0.843604125239402 1
force O   0.355535242670800   0.240685290980769   0.267091743418213 1
force O   0.490035125028968   0.163058775249475  -1.003711287780237 1
force O   0.262011246772037   0.092693062841312   0.354945904424598 1
force O   0.149172314139603  -0.040642628479413  -0.249404684381771 1
force O  -0.113818208350283  -0.965326386683367  -1.513740785299145 1
force O   0.048453201598253   0.703165560277591   1.676149594277137 1
force O  -0.255392584388365   0.103606126033905  -0.188619285701799 1
force O   0.181133565205500   0.100616933601908  -0.065860115388327 1
force O   0.784164990413645  -0.028383364622535   0.605726208287869 1
force O   0.094470350341117  -0.319315729534051   0.068314678768913 1
force O  -0.372753711880439  -0.093059894016320   0.824419773655138 1

# Energy components:
   Eewald =    -4309.5251877410773886
       EH =     3159.7926133599480636
     Eloc =    -8284.5236065824210527
      Enl =     1408.2125512487964443
      Exc =     -819.2197347732354729
 Exc_core =        3.8813712653225720
       KE =     1003.5652969788163773
-------------------------------------
     Etot =    -7837.8166962438508563
       TS =        0.3281269162507523
-------------------------------------
        F =    -7838.1448231601016232

IonicMinimize: Iter:   0  F: -7838.144823160101623  |grad|_K:  3.291e-02  t[s]:   2862.03

#--- Lowdin population analysis ---
# oxidation-state Cu +0.316 +0.331 +0.332 +0.320 +0.321 +0.320 +0.307 +0.318 +0.341 +0.324 +0.339 +0.336 +0.340 +0.317 +0.322 +0.349 +0.333 +0.324 +0.322 +0.294 +0.322 +0.323 +0.296 +0.328 +0.317 +0.324 +0.342 +0.342 +0.339 +0.331 +0.328 +0.321 +0.323 +0.324 +0.331 +0.333
# oxidation-state O -0.208 -0.223 -0.224 -0.233 -0.253 -0.272 -0.248 -0.251 -0.229 -0.248 -0.247 -0.235 -0.185 -0.225 -0.175 -0.231 -0.240 -0.248 -0.229 -0.267 -0.241 -0.209 -0.241 -0.229 -0.203 -0.248 -0.229 -0.227 -0.262 -0.236 -0.224 -0.197 -0.209 -0.218 -0.261 -0.233


-------- Electronic minimization -----------
Will mix electronic density at each iteration.
	FillingsUpdate:  mu: +0.400922709  nElectrons: 900.000000
	FillingsUpdate:  mu: +0.401114093  nElectrons: 900.000000
SCF: Cycle:  0   F: -7836.043599726137472   dF: +7.159e-01   |Residual|: 9.389e-01   |deigs|: 2.259e-03  t[s]:   3011.50
	FillingsUpdate:  mu: +0.411684095  nElectrons: 900.000000
SCF: Cycle:  1   F: -7826.765486054924622   dF: +9.278e+00   |Residual|: 2.550e+00   |deigs|: 2.201e-02  t[s]:   3120.43
	FillingsUpdate:  mu: +0.401127065  nElectrons: 900.000000
SCF: Cycle:  2   F: -7836.908936116105906   dF: -1.014e+01   |Residual|: 9.190e-01   |deigs|: 1.945e-02  t[s]:   3229.67
	FillingsUpdate:  mu: +0.400661009  nElectrons: 900.000000
SCF: Cycle:  3   F: -7837.511929095573578   dF: -6.030e-01   |Residual|: 6.635e-01   |deigs|: 4.104e-03  t[s]:   3338.76
	FillingsUpdate:  mu: +0.400851598  nElectrons: 900.000000
SCF: Cycle:  4   F: -7838.006221906213796   dF: -4.943e-01   |Residual|: 3.782e-01   |deigs|: 2.763e-03  t[s]:   3447.68
	FillingsUpdate:  mu: +0.401476761  nElectrons: 900.000000
SCF: Cycle:  5   F: -7837.971883380736472   dF: +3.434e-02   |Residual|: 4.189e-01   |deigs|: 1.938e-03  t[s]:   3556.82
	FillingsUpdate:  mu: +0.401268296  nElectrons: 900.000000
SCF: Cycle:  6   F: -7838.235028967279504   dF: -2.631e-01   |Residual|: 1.213e-01   |deigs|: 1.260e-03  t[s]:   3665.89
	FillingsUpdate:  mu: +0.400569686  nElectrons: 900.000000
SCF: Cycle:  7   F: -7838.239587342232880   dF: -4.558e-03   |Residual|: 9.938e-02   |deigs|: 1.156e-03  t[s]:   3773.28
	FillingsUpdate:  mu: +0.400448665  nElectrons: 900.000000
SCF: Cycle:  8   F: -7838.250101384202935   dF: -1.051e-02   |Residual|: 5.439e-02   |deigs|: 7.520e-04  t[s]:   3837.36
	FillingsUpdate:  mu: +0.400782845  nElectrons: 900.000000
SCF: Cycle:  9   F: -7838.253656336200038   dF: -3.555e-03   |Residual|: 2.322e-02   |deigs|: 5.453e-04  t[s]:   3901.35
	FillingsUpdate:  mu: +0.400813198  nElectrons: 900.000000
SCF: Cycle: 10   F: -7838.254075470393218   dF: -4.191e-04   |Residual|: 1.755e-02   |deigs|: 2.278e-04  t[s]:   3965.44
	FillingsUpdate:  mu: +0.400791548  nElectrons: 900.000000
SCF: Cycle: 11   F: -7838.254455954728655   dF: -3.805e-04   |Residual|: 8.589e-03   |deigs|: 1.458e-04  t[s]:   4029.53
	FillingsUpdate:  mu: +0.400818936  nElectrons: 900.000000
SCF: Cycle: 12   F: -7838.254320141991229   dF: +1.358e-04   |Residual|: 1.203e-02   |deigs|: 1.359e-04  t[s]:   4093.54
	FillingsUpdate:  mu: +0.400816319  nElectrons: 900.000000
SCF: Cycle: 13   F: -7838.254526873147370   dF: -2.067e-04   |Residual|: 4.170e-03   |deigs|: 1.161e-04  t[s]:   4157.85
	FillingsUpdate:  mu: +0.400808286  nElectrons: 900.000000
SCF: Cycle: 14   F: -7838.254558821780847   dF: -3.195e-05   |Residual|: 2.419e-03   |deigs|: 4.014e-05  t[s]:   4222.02
	FillingsUpdate:  mu: +0.400806917  nElectrons: 900.000000
SCF: Cycle: 15   F: -7838.254557251043479   dF: +1.571e-06   |Residual|: 2.485e-03   |deigs|: 3.568e-05  t[s]:   4286.01
	FillingsUpdate:  mu: +0.400806665  nElectrons: 900.000000
SCF: Cycle: 16   F: -7838.254563296987726   dF: -6.046e-06   |Residual|: 1.559e-03   |deigs|: 2.393e-05  t[s]:   4349.96
	FillingsUpdate:  mu: +0.400809217  nElectrons: 900.000000
SCF: Cycle: 17   F: -7838.254566738056383   dF: -3.441e-06   |Residual|: 6.195e-04   |deigs|: 1.570e-05  t[s]:   4414.02
	FillingsUpdate:  mu: +0.400806690  nElectrons: 900.000000
SCF: Cycle: 18   F: -7838.254566373535454   dF: +3.645e-07   |Residual|: 7.083e-04   |deigs|: 1.033e-05  t[s]:   4477.96
	FillingsUpdate:  mu: +0.400806112  nElectrons: 900.000000
SCF: Cycle: 19   F: -7838.254566819944557   dF: -4.464e-07   |Residual|: 5.035e-04   |deigs|: 8.131e-06  t[s]:   4542.09
	FillingsUpdate:  mu: +0.400806733  nElectrons: 900.000000
SCF: Cycle: 20   F: -7838.254567081657115   dF: -2.617e-07   |Residual|: 3.050e-04   |deigs|: 6.448e-06  t[s]:   4606.07
	FillingsUpdate:  mu: +0.400807190  nElectrons: 900.000000
SCF: Cycle: 21   F: -7838.254567093709738   dF: -1.205e-08   |Residual|: 2.784e-04   |deigs|: 4.070e-06  t[s]:   4670.06
	FillingsUpdate:  mu: +0.400806793  nElectrons: 900.000000
SCF: Cycle: 22   F: -7838.254567131465592   dF: -3.776e-08   |Residual|: 2.198e-04   |deigs|: 3.366e-06  t[s]:   4734.19
	FillingsUpdate:  mu: +0.400806653  nElectrons: 900.000000
SCF: Cycle: 23   F: -7838.254567180219965   dF: -4.875e-08   |Residual|: 1.469e-04   |deigs|: 2.593e-06  t[s]:   4798.44
	FillingsUpdate:  mu: +0.400806615  nElectrons: 900.000000
SCF: Cycle: 24   F: -7838.254567202301587   dF: -2.208e-08   |Residual|: 8.984e-05   |deigs|: 1.884e-06  t[s]:   4862.51
	FillingsUpdate:  mu: +0.400806357  nElectrons: 900.000000
SCF: Cycle: 25   F: -7838.254567213777591   dF: -1.148e-08   |Residual|: 4.908e-05   |deigs|: 1.031e-06  t[s]:   4925.33
	FillingsUpdate:  mu: +0.400806356  nElectrons: 900.000000
SCF: Cycle: 26   F: -7838.254567215272800   dF: -1.495e-09   |Residual|: 3.593e-05   |deigs|: 7.168e-07  t[s]:   4985.60
	FillingsUpdate:  mu: +0.400806478  nElectrons: 900.000000
SCF: Cycle: 27   F: -7838.254567216530631   dF: -1.258e-09   |Residual|: 2.278e-05   |deigs|: 4.986e-07  t[s]:   5045.77
SCF: Converged (|Delta E|<1.000000e-08 for 2 iters).

Setting wave functions to eigenvectors of Hamiltonian

# Ionic positions in lattice coordinates:
ion Cu  -0.010795775426016   0.172782492083412   0.003558933590043 1
ion Cu   0.168263061573168  -0.017171518676636   0.256456289370905 1
ion Cu   0.005054537493142   0.171725774875194   0.498817752245332 1
ion Cu   0.173441763311834   0.017994660823232   0.744940344425563 1
ion Cu  -0.003413088157046   0.494566522211280  -0.010760920439658 1
ion Cu   0.167873602525521   0.335762617310841   0.228295985253488 1
ion Cu   0.007693809302448   0.486420978064521   0.497800235695515 1
ion Cu   0.166620320354317   0.328701279551645   0.762161713300143 1
ion Cu   0.008527617146921   0.844734414804898  -0.003943193646416 1
ion Cu   0.159834837795812   0.659600760630241   0.245820302788972 1
ion Cu   0.013499573668927   0.829884352079050   0.501231710748667 1
ion Cu   0.172374723889619   0.672629742305162   0.753804765656808 1
ion Cu   0.326321594032677   0.164625085732477   0.011018187378990 1
ion Cu   0.507955535357963   0.011756083770379   0.250082633580930 1
ion Cu   0.337601620198504   0.164670094371038   0.490678163621648 1
ion Cu   0.501568207578820  -0.011412603774063   0.752438149601908 1
ion Cu   0.320671255663018   0.488258265648377   0.002120057252597 1
ion Cu   0.505637723407900   0.330681726425446   0.235451742445050 1
ion Cu   0.328741957934228   0.474746419216160   0.515731391158278 1
ion Cu   0.509084049220249   0.341018314261965   0.732149983270023 1
ion Cu   0.331733672770599   0.842660407482730  -0.003355457256330 1
ion Cu   0.494239604276958   0.672126941306783   0.247835696497097 1
ion Cu   0.345479399138563   0.818909882966631   0.504879614699613 1
ion Cu   0.498570803632371   0.661060539476242   0.756721083142246 1
ion Cu   0.668100461748910   0.167555977491571   0.008600320547201 1
ion Cu   0.834471454329550   0.003753512785372   0.239636207442811 1
ion Cu   0.663494766321274   0.170904701030874   0.494883602829303 1
ion Cu   0.838933779774454  -0.002633829650884   0.763189574310912 1
ion Cu   0.672190138578397   0.506961971345882  -0.005745316290204 1
ion Cu   0.826357688320713   0.335720558756789   0.244568864733156 1
ion Cu   0.671814026178219   0.508801544190492   0.485435296942168 1
ion Cu   0.846734275323691   0.334003176339349   0.753456310527032 1
ion Cu   0.660719595932126   0.829764836257552   0.003441293238024 1
ion Cu   0.844534283551172   0.665942941654083   0.259026672200152 1
ion Cu   0.659109551931171   0.831060986470841   0.506604231743275 1
ion Cu   0.833038366026338   0.662319055135635   0.743516462820550 1
ion O   0.016959706397711   0.329934207877127   0.116473096962262 1
ion O   0.326877696125918   0.003971323969002   0.388575085529663 1
ion O   0.000361752145289   0.314149289126434   0.624459552649789 1
ion O   0.323626350107148   0.000205395701994   0.874180495114261 1
ion O   0.003338612259555   0.658246819186797   0.121575347769753 1
ion O   0.324441348029356   0.327327546878637   0.359309532640061 1
ion O  -0.000275954748836   0.647786479968853   0.623447073967967 1
ion O   0.338277487787822   0.345989341621009   0.864419362182735 1
ion O   0.016330994034533   1.001612192398972   0.136665410907497 1
ion O   0.347973101893493   0.678047796649575   0.381891326005332 1
ion O  -0.007475677074337   0.992122370708785   0.620393064608465 1
ion O   0.340614677070455   0.675732411954894   0.879644626774958 1
ion O   0.343201311810040   0.322083336294588   0.118899521192319 1
ion O   0.647566868254860  -0.014297837311071   0.369130870460116 1
ion O   0.358790951505309   0.334301102916199   0.631736974622201 1
ion O   0.651701931109550  -0.006111107774978   0.895810784416906 1
ion O   0.332098646883823   0.649785514088723   0.137413123701095 1
ion O   0.653948447504134   0.339284862486003   0.367599650566391 1
ion O   0.331381001748629   0.663991996816116   0.620226559260975 1
ion O   0.658936074825966   0.338059288289423   0.871173642352112 1
ion O   0.333124638823645   0.995937005866844   0.125121385859778 1
ion O   0.661968423136917   0.689294255958784   0.375642880916795 1
ion O   0.325646337194871   0.992427615443249   0.620152086814519 1
ion O   0.663348886479401   0.678345330956895   0.874111802060020 1
ion O   0.677692639133450   0.324812752953715   0.125994372875303 1
ion O   0.981793861565920  -0.010180057701802   0.372840495802127 1
ion O   0.678739293163766   0.315843390891101   0.638459072045603 1
ion O   1.002653252659493   0.012928412022016   0.873379465248763 1
ion O   0.667584136606581   0.665397555518648   0.134154562212031 1
ion O   1.003389848550478   0.344175767882632   0.379854098447350 1
ion O   0.661796853164889   0.648530102539629   0.606594168777192 1
ion O   1.003910139735680   0.327851185558542   0.877713906292254 1
ion O   0.664619038635792   0.992585037166676   0.126073194387202 1
ion O   0.993956367686557   0.663941626420555   0.376566305767131 1
ion O   0.666992293546324   1.008459608334795   0.627640326946379 1
ion O   1.006539867539311   0.687869413586083   0.858878088436904 1

# Forces in Lattice coordinates:
force Cu   0.183609060082564  -0.645607711532435  -0.078576576270825 1
force Cu   0.214269551827687   0.139641470556864   0.341660747807047 1
force Cu  -0.157117871336958  -0.781300224517256  -0.461699802890962 1
force Cu  -0.518458653276618  -0.184826337648651  -0.009551943423006 1
force Cu   0.074491698759640   0.610207230868040   0.193721592868064 1
force Cu   0.296527152830996  -0.037376481111721   1.120064067297299 1
force Cu  -0.075036820854077   0.737360789488749   0.679398341975615 1
force Cu   0.148983424919733  -0.019927340165193  -0.741060526013115 1
force Cu   0.003962409563108  -0.260269125908319   0.172223571416591 1
force Cu   0.254393364646538   0.040002692503651   0.520696978420606 1
force Cu  -0.273149573031219  -0.171812527844617  -0.001115889817051 1
force Cu   0.168398538006569  -0.057064473751028  -0.470024809065551 1
force Cu   0.073432055244147  -0.314143615051197  -1.041213403620851 1
force Cu  -1.022212135033049  -0.147813174946315  -0.342427739570571 1
force Cu  -0.017829110942879   0.523486629580738   0.695939846838872 1
force Cu  -0.134762910177713   0.128199264923104  -0.018810657226391 1
force Cu   0.225622890460301   0.553648353773880  -0.147038719792565 1
force Cu  -0.302609648709478   0.009117822445575   0.492882003298905 1
force Cu  -0.055993883930324   0.918313669453852  -1.204587485407984 1
force Cu   0.580577556333288   0.002748587518226   1.886439569017483 1
force Cu   0.021571956838133  -0.490568965002222   0.341693706220290 1
force Cu   0.431211169868656   0.016478330742887   0.363775765211819 1
force Cu  -0.185672927071737   0.940888176429780   0.014467162306437 1
force Cu   0.088826960091345   0.043614099847585  -0.553329610165324 1
force Cu  -0.078412292295948  -0.106195005820356  -0.517756365474829 1
force Cu  -0.181132117337836  -0.150822643468344   0.391892545411491 1
force Cu  -0.001457971658848  -0.177689220482790   0.016946139563472 1
force Cu  -0.530905168981494   0.022727308585056  -0.480022240145701 1
force Cu  -0.042011162545214  -0.168509115209813   0.216245091061797 1
force Cu   0.807007011281285   0.020911553079904   0.567122092028590 1
force Cu  -0.079767934274400  -0.802027711194143  -0.333724958709416 1
force Cu  -0.443382835517363  -0.113883367173587   0.066965673875750 1
force Cu   0.043974232666982  -0.225320811353562   0.423229440079336 1
force Cu  -0.728663540866173   0.070690984469149  -0.673589309388333 1
force Cu   0.007891350643249   0.504808441651537   0.078585751731087 1
force Cu  -0.209050547728745   0.043926709161756  -0.024221720344181 1
force O  -0.711664257652747   0.245627321748432   0.093969275391775 1
force O   0.088584441269016  -0.698631493261066  -0.889001975062310 1
force O   0.294507154692320   0.464643329724868   0.448418383807501 1
force O   0.217041733260381   0.328157146939273  -0.049878023398174 1
force O  -0.220484266082149   0.100171579384453  -0.412486839786951 1
force O   0.144698707692294   0.098404213567825   0.169116341087429 1
force O   0.218996106034532   0.094075103451188  -0.126401953309160 1
force O   0.190081099360982  -0.185349048302861   0.302130352263839 1
force O  -0.302058439812182   0.009541469089965  -0.741543356733573 1
force O  -0.311351318211660  -0.596296683509943  -0.481155225171806 1
force O   0.248131983407005   0.185897151718259   0.172333538635132 1
force O  -0.280715967225936  -0.168953783875457   0.196946593800821 1
force O  -0.020101694559299   0.346961228883074   0.150741340976574 1
force O   0.744043009408524   0.313370795542424   0.770335003601517 1
force O  -1.113496240005786  -0.903422101983094  -0.639027483298300 1
force O   0.161815384317752   0.305392225888158  -0.752024125829327 1
force O  -0.158880052521783   0.054673161328108  -0.622477347653733 1
force O   0.189848482927843  -0.012210226553718   0.361688455220477 1
force O   0.029761183182294  -0.365639742625687   0.684166695937048 1
force O   0.182091752700916  -0.014214079181420   0.148676137669425 1
force O   0.098429532453321  -0.071714083964493   0.477612834797941 1
force O   0.061112718337649  -0.288039834800150  -0.556839161817003 1
force O   0.358208405784856   0.070644851050674   0.104816470324044 1
force O   0.240304546812067  -0.155091163183536  -0.193077645552478 1
force O  -0.230168627346900   0.334610407460851  -0.618353699590100 1
force O   0.337534003193283   0.219014344879163   0.223885241316242 1
force O   0.379012228582895   0.183568776849645  -0.900136411452351 1
force O   0.183858364056091   0.053093466157475   0.262129543110365 1
force O   0.119869148091139  -0.047920060800843  -0.241481333712239 1
force O  -0.087390090227372  -0.642535626099650  -1.069221163347986 1
force O   0.059341996177418   0.482055568608951   1.263645203981140 1
force O  -0.214764460131840   0.110285312596822  -0.144621625046431 1
force O   0.142590643820812   0.109367356695385  -0.025060681385872 1
force O   0.588110458299381  -0.028196248905563   0.377785356548961 1
force O   0.081618467132612  -0.287093126815246   0.079693924503283 1
force O  -0.297021057450602  -0.115655750520901   0.690082287750678 1

# Energy components:
   Eewald =    -4315.7444112838074943
       EH =     3154.1661351332104459
     Eloc =    -8272.4702966765744350
      Enl =     1408.1273797279109203
      Exc =     -819.1101935014896753
 Exc_core =        3.8813695985876628
       KE =     1003.2234978324702297
-------------------------------------
     Etot =    -7837.9265191696904367
       TS =        0.3280480468402587
-------------------------------------
        F =    -7838.2545672165306314

IonicMinimize: Iter:   1  F: -7838.254567216530631  |grad|_K:  2.420e-02  alpha:  5.487e-01  linmin: -9.811e-01  t[s]:   5066.50

#--- Lowdin population analysis ---
# oxidation-state Cu +0.316 +0.331 +0.334 +0.322 +0.321 +0.323 +0.311 +0.320 +0.340 +0.325 +0.339 +0.336 +0.341 +0.320 +0.325 +0.348 +0.333 +0.325 +0.324 +0.304 +0.322 +0.325 +0.300 +0.327 +0.318 +0.324 +0.341 +0.343 +0.339 +0.332 +0.331 +0.322 +0.324 +0.326 +0.330 +0.332
# oxidation-state O -0.213 -0.226 -0.227 -0.233 -0.252 -0.266 -0.243 -0.249 -0.231 -0.249 -0.246 -0.234 -0.190 -0.231 -0.198 -0.233 -0.240 -0.244 -0.229 -0.258 -0.239 -0.211 -0.239 -0.230 -0.209 -0.245 -0.229 -0.227 -0.256 -0.243 -0.231 -0.201 -0.211 -0.221 -0.257 -0.236


-------- Electronic minimization -----------
Will mix electronic density at each iteration.
	FillingsUpdate:  mu: +0.400806478  nElectrons: 900.000000
	FillingsUpdate:  mu: +0.398377331  nElectrons: 900.000000
SCF: Cycle:  0   F: -7832.419249940015106   dF: +3.127e+00   |Residual|: 1.373e+00   |deigs|: 4.200e-03  t[s]:   5215.86
	FillingsUpdate:  mu: +0.429125435  nElectrons: 900.000000
SCF: Cycle:  1   F: -7809.668439376278911   dF: +2.275e+01   |Residual|: 3.880e+00   |deigs|: 3.600e-02  t[s]:   5325.00
	FillingsUpdate:  mu: +0.404267931  nElectrons: 900.000000
SCF: Cycle:  2   F: -7834.230942171179777   dF: -2.456e+01   |Residual|: 1.642e+00   |deigs|: 2.716e-02  t[s]:   5434.06
	FillingsUpdate:  mu: +0.400616721  nElectrons: 900.000000
SCF: Cycle:  3   F: -7837.360140395763665   dF: -3.129e+00   |Residual|: 8.300e-01   |deigs|: 1.382e-02  t[s]:   5543.09
	FillingsUpdate:  mu: +0.400769799  nElectrons: 900.000000
SCF: Cycle:  4   F: -7837.184583041419501   dF: +1.756e-01   |Residual|: 8.154e-01   |deigs|: 4.945e-03  t[s]:   5652.34
	FillingsUpdate:  mu: +0.401268019  nElectrons: 900.000000
SCF: Cycle:  5   F: -7838.002532401704229   dF: -8.179e-01   |Residual|: 4.837e-01   |deigs|: 4.996e-03  t[s]:   5761.50
	FillingsUpdate:  mu: +0.401391405  nElectrons: 900.000000
SCF: Cycle:  6   F: -7838.157775411099465   dF: -1.552e-01   |Residual|: 3.668e-01   |deigs|: 3.764e-03  t[s]:   5870.89
	FillingsUpdate:  mu: +0.401196467  nElectrons: 900.000000
SCF: Cycle:  7   F: -7838.265202320395474   dF: -1.074e-01   |Residual|: 2.634e-01   |deigs|: 1.544e-03  t[s]:   5979.42
	FillingsUpdate:  mu: +0.400771652  nElectrons: 900.000000
SCF: Cycle:  8   F: -7838.335492477284788   dF: -7.029e-02   |Residual|: 1.153e-01   |deigs|: 9.859e-04  t[s]:   6088.54
	FillingsUpdate:  mu: +0.400498183  nElectrons: 900.000000
SCF: Cycle:  9   F: -7838.331575582044024   dF: +3.917e-03   |Residual|: 1.391e-01   |deigs|: 7.695e-04  t[s]:   6197.30
	FillingsUpdate:  mu: +0.400613528  nElectrons: 900.000000
SCF: Cycle: 10   F: -7838.358454596590491   dF: -2.688e-02   |Residual|: 4.325e-02   |deigs|: 4.403e-04  t[s]:   6261.41
	FillingsUpdate:  mu: +0.400891077  nElectrons: 900.000000
SCF: Cycle: 11   F: -7838.360277667057744   dF: -1.823e-03   |Residual|: 2.963e-02   |deigs|: 4.270e-04  t[s]:   6325.39
	FillingsUpdate:  mu: +0.400936503  nElectrons: 900.000000
SCF: Cycle: 12   F: -7838.361225541859312   dF: -9.479e-04   |Residual|: 1.421e-02   |deigs|: 2.203e-04  t[s]:   6389.45
	FillingsUpdate:  mu: +0.400819390  nElectrons: 900.000000
SCF: Cycle: 13   F: -7838.361354308920454   dF: -1.288e-04   |Residual|: 9.056e-03   |deigs|: 1.963e-04  t[s]:   6453.67
	FillingsUpdate:  mu: +0.400849853  nElectrons: 900.000000
SCF: Cycle: 14   F: -7838.361404030019003   dF: -4.972e-05   |Residual|: 7.640e-03   |deigs|: 1.173e-04  t[s]:   6517.72
	FillingsUpdate:  mu: +0.400874874  nElectrons: 900.000000
SCF: Cycle: 15   F: -7838.361486188109666   dF: -8.216e-05   |Residual|: 2.920e-03   |deigs|: 8.584e-05  t[s]:   6581.88
	FillingsUpdate:  mu: +0.400857953  nElectrons: 900.000000
SCF: Cycle: 16   F: -7838.361476257703544   dF: +9.930e-06   |Residual|: 3.564e-03   |deigs|: 4.624e-05  t[s]:   6646.07
	FillingsUpdate:  mu: +0.400855509  nElectrons: 900.000000
SCF: Cycle: 17   F: -7838.361490547696121   dF: -1.429e-05   |Residual|: 1.978e-03   |deigs|: 3.195e-05  t[s]:   6710.23
	FillingsUpdate:  mu: +0.400855826  nElectrons: 900.000000
SCF: Cycle: 18   F: -7838.361493770173183   dF: -3.222e-06   |Residual|: 1.401e-03   |deigs|: 2.166e-05  t[s]:   6774.37
	FillingsUpdate:  mu: +0.400859809  nElectrons: 900.000000
SCF: Cycle: 19   F: -7838.361492526493748   dF: +1.244e-06   |Residual|: 1.458e-03   |deigs|: 1.952e-05  t[s]:   6838.32
	FillingsUpdate:  mu: +0.400856377  nElectrons: 900.000000
SCF: Cycle: 20   F: -7838.361493733978023   dF: -1.207e-06   |Residual|: 1.339e-03   |deigs|: 2.026e-05  t[s]:   6902.57
	FillingsUpdate:  mu: +0.400856990  nElectrons: 900.000000
SCF: Cycle: 21   F: -7838.361496421915945   dF: -2.688e-06   |Residual|: 3.609e-04   |deigs|: 1.250e-05  t[s]:   6967.35
	FillingsUpdate:  mu: +0.400858926  nElectrons: 900.000000
SCF: Cycle: 22   F: -7838.361496139737028   dF: +2.822e-07   |Residual|: 5.746e-04   |deigs|: 7.667e-06  t[s]:   7031.45
	FillingsUpdate:  mu: +0.400857638  nElectrons: 900.000000
SCF: Cycle: 23   F: -7838.361496577470461   dF: -4.377e-07   |Residual|: 1.817e-04   |deigs|: 5.635e-06  t[s]:   7095.56
	FillingsUpdate:  mu: +0.400857074  nElectrons: 900.000000
SCF: Cycle: 24   F: -7838.361496618681485   dF: -4.121e-08   |Residual|: 7.985e-05   |deigs|: 1.854e-06  t[s]:   7159.46
	FillingsUpdate:  mu: +0.400857236  nElectrons: 900.000000
SCF: Cycle: 25   F: -7838.361496621141669   dF: -2.460e-09   |Residual|: 6.818e-05   |deigs|: 1.155e-06  t[s]:   7223.63
	FillingsUpdate:  mu: +0.400857515  nElectrons: 900.000000
SCF: Cycle: 26   F: -7838.361496626376720   dF: -5.235e-09   |Residual|: 3.595e-05   |deigs|: 8.820e-07  t[s]:   7287.23
SCF: Converged (|Delta E|<1.000000e-08 for 2 iters).

Setting wave functions to eigenvectors of Hamiltonian

# Ionic positions in lattice coordinates:
ion Cu  -0.009871798083467   0.170143236625929   0.003361198221463 1
ion Cu   0.168893138100705  -0.016511186983977   0.257345046109268 1
ion Cu   0.004312979880290   0.168669494497466   0.497610849684737 1
ion Cu   0.171179820138866   0.017108422367755   0.744904050270053 1
ion Cu  -0.003049640715822   0.497203039776135  -0.010197844318084 1
ion Cu   0.168674112999554   0.335550076182061   0.231587896744165 1
ion Cu   0.007322230255224   0.488550762033872   0.499145199584084 1
ion Cu   0.167418069545634   0.328621957168860   0.759753842803254 1
ion Cu   0.008531083613944   0.843542946325272  -0.003371826875691 1
ion Cu   0.160901253574780   0.659775639708356   0.247445278531477 1
ion Cu   0.012245195582034   0.829178325728646   0.501270770253277 1
ion Cu   0.172827184129023   0.672380567205492   0.752458207749067 1
ion Cu   0.326720514202442   0.163549046440755   0.007861379780059 1
ion Cu   0.504175171160694   0.010885441816508   0.249593615826141 1
ion Cu   0.337470812196261   0.166306258375421   0.492581201977852 1
ion Cu   0.500935087833593  -0.010793671404497   0.752364671151685 1
ion Cu   0.321733870501026   0.490722629674496   0.001617520978049 1
ion Cu   0.504488481012000   0.330717961674956   0.237072425082012 1
ion Cu   0.328670713003633   0.478890288792614   0.511942194359597 1
ion Cu   0.508660380771217   0.340911607582855   0.736188430076059 1
ion Cu   0.331820125471013   0.840573424082671  -0.002229964853254 1
ion Cu   0.495976777301068   0.672137860632080   0.248835356059990 1
ion Cu   0.344611055276307   0.822377673198182   0.504759550552929 1
ion Cu   0.498937314009121   0.661269172911726   0.754967677088556 1
ion Cu   0.667742908026973   0.167062140626076   0.006944499871403 1
ion Cu   0.833679285233803   0.003044293522255   0.240967302230300 1
ion Cu   0.663491200956256   0.170029101123523   0.494944560042149 1
ion Cu   0.836695359923966  -0.002507789439061   0.761735652837768 1
ion Cu   0.671994773056983   0.506223539675228  -0.005012581394922 1
ion Cu   0.829596131474591   0.335760330171804   0.246104840531406 1
ion Cu   0.671392888026575   0.506093425611978   0.485097704962680 1
ion Cu   0.844816451489551   0.333465182670581   0.753645958670036 1
ion Cu   0.660912588072454   0.828985969500431   0.004589355069844 1
ion Cu   0.841836498982921   0.666254574699451   0.257197926882517 1
ion Cu   0.659172814041568   0.832949723627372   0.506735490461927 1
ion Cu   0.832200953532970   0.662545089213336   0.743430871879640 1
ion O   0.014093201194317   0.330994848795374   0.117020193084978 1
ion O   0.327432083113421   0.001562404922777   0.386167664558130 1
ion O   0.001720086576631   0.315982251883205   0.625519115225136 1
ion O   0.324581999266583   0.001580790146689   0.874046875241273 1
ion O   0.002427592397270   0.658769463447085   0.120418153983840 1
ion O   0.325184169368813   0.327802007067351   0.359964086336954 1
ion O   0.000683522334676   0.648398476111226   0.623237339077228 1
ion O   0.339123530659713   0.345121561373109   0.865371618857598 1
ion O   0.015079467602506   1.001610783062847   0.134450457064549 1
ion O   0.346474482873354   0.675623116403119   0.380752198914037 1
ion O  -0.006348897772044   0.992928601125234   0.620967591105878 1
ion O   0.339429753916147   0.674897674782652   0.880192127432830 1
ion O   0.342932708231164   0.323348745370081   0.119111800681892 1
ion O   0.650277291478873  -0.012608383200891   0.370990173059888 1
ion O   0.356413047894393   0.330393759431971   0.631383565018169 1
ion O   0.652491622062272  -0.004963881904087   0.893447776898700 1
ion O   0.331552953423616   0.650135444775301   0.135494501424321 1
ion O   0.654821708817733   0.339071940818268   0.368567292418053 1
ion O   0.331611496465898   0.662643479176670   0.622161031654608 1
ion O   0.659921329424741   0.337978082895715   0.871736674583622 1
ion O   0.333510315628337   0.995648417409130   0.126531601871388 1
ion O   0.662272563484791   0.688055566360619   0.374129150539204 1
ion O   0.327241924246351   0.992836293244445   0.620574225267089 1
ion O   0.664392869420856   0.677617945271210   0.873547370001219 1
ion O   0.676945386675124   0.326414228143301   0.124372376929986 1
ion O   0.983352017809002  -0.009200420591609   0.373512185162471 1
ion O   0.680208206827822   0.316788090117310   0.635593357516314 1
ion O   1.003288250109089   0.013058187306053   0.874072332792065 1
ion O   0.668066789272527   0.665146261983602   0.133341365830679 1
ion O   1.003056411748058   0.342112290838153   0.377175358905868 1
ion O   0.662112213754813   0.650142796848876   0.610013935290372 1
ion O   1.003010097514298   0.328399858325035   0.877315334551631 1
ion O   0.665180938799331   0.993135600065847   0.126077929118585 1
ion O   0.996156910807825   0.663806866393536   0.377352784344787 1
ion O   0.667342336017526   1.007186583945687   0.627940576425786 1
ion O   1.005353833976421   0.687243712438501   0.860951569949381 1

# Forces in Lattice coordinates:
force Cu   0.193146822123004  -0.393055030358953  -0.028911383088618 1
force Cu   0.061895387325419   0.132982210575785   0.168813495362933 1
force Cu  -0.138064119069818  -0.504899319517569  -0.271145827386125 1
force Cu  -0.386601176335043  -0.179981144704268  -0.002377383445967 1
force Cu   0.073276309841745   0.444795210113772   0.124929028586278 1
force Cu   0.107549332314180  -0.043644626128678   0.791330313816495 1
force Cu  -0.065631195427017   0.385954156716897   0.352598772997888 1
force Cu   0.138339296096708  -0.014647421431686  -0.590675913991511 1
force Cu  -0.004945141515897  -0.220074836336853   0.147637376470049 1
force Cu   0.196401088783142   0.031244329703513   0.383583762390383 1
force Cu  -0.240543139133026  -0.119722305293971   0.023449797189393 1
force Cu   0.032459788726920  -0.050273013162544  -0.296839154932753 1
force Cu   0.090245224347379  -0.159335412509906  -0.762063197897223 1
force Cu  -0.643781599563201  -0.177295880802822  -0.108069060460078 1
force Cu  -0.023093584601764   0.266166235882856   0.462773363334573 1
force Cu  -0.122167683683041   0.125467370023784  -0.022444398089486 1
force Cu   0.212833598249979   0.427742927204189  -0.137318223988100 1
force Cu  -0.183703996140465   0.007156912096052   0.394046964505158 1
force Cu   0.026657030482272   0.593347598743236  -0.802194777748596 1
force Cu   0.462310531359729  -0.035504652536250   1.298533045379465 1
force Cu   0.014885148875562  -0.356839181623875   0.296684506869465 1
force Cu   0.269221518884949  -0.015099340863218   0.211068548263006 1
force Cu  -0.167482065481598   0.555193322790753  -0.038157518065078 1
force Cu   0.064484571314813   0.041002457852787  -0.416912467040323 1
force Cu  -0.066244725241859  -0.064253765381355  -0.403729480923534 1
force Cu  -0.130184966331803  -0.134570100841594   0.356676433234309 1
force Cu   0.008058077095441  -0.174183447604894   0.022359425191930 1
force Cu  -0.382680479531814   0.028295122377937  -0.353011024377182 1
force Cu  -0.037549794164802  -0.136773024725469   0.187101453528484 1
force Cu   0.540285886165473   0.003070080375731   0.341091530690704 1
force Cu  -0.078581546979947  -0.471137122027407  -0.027535307529511 1
force Cu  -0.347715905433238  -0.108086100018454   0.024594932650788 1
force Cu   0.038197623058262  -0.106285866818535   0.230634256066711 1
force Cu  -0.438890445107738   0.057362504072240  -0.448113089073885 1
force Cu   0.020046258957420   0.289308144061746   0.016647998614658 1
force Cu  -0.123513699610625   0.047906790455569  -0.012470630024502 1
force O  -0.517994887967427   0.178314220726561   0.141542454246803 1
force O   0.124410928946306  -0.409160917922171  -0.584038948945752 1
force O   0.244654597810605   0.319554546860764   0.230297133783591 1
force O   0.164533627352107   0.217999359191049  -0.032755270986536 1
force O  -0.150480730093129   0.121752800971865  -0.235175597138896 1
force O   0.154903313775087   0.095866134176381   0.235506687461540 1
force O   0.171096871487446   0.140833966874092  -0.024902098180476 1
force O   0.107500837926355  -0.166704638087523   0.285861007676025 1
force O  -0.236847133182987  -0.014892288630052  -0.522760686674822 1
force O  -0.291274690375190  -0.437723574495613  -0.260446366468525 1
force O   0.202121438831532   0.136613035944405   0.157492722743738 1
force O  -0.207107593580921  -0.168312134702786   0.097377789822614 1
force O  -0.082106767516465   0.215635837899192   0.023164824175977 1
force O   0.496376659471049   0.342691213971069   0.457472019249970 1
force O  -0.869006768350913  -0.534955250658906  -0.663802678961710 1
force O   0.160442032423288   0.173466768238482  -0.603281421292963 1
force O  -0.080199084986146   0.101320374986012  -0.456152086514185 1
force O   0.178541374192694  -0.068295719670521   0.210405454963169 1
force O   0.060184154694591  -0.219437756705115   0.442853114369393 1
force O   0.176195154274301  -0.018441621508541   0.115844875302522 1
force O   0.050931824202757  -0.039804357525163   0.308528667078916 1
force O   0.068687558967197  -0.230213823455375  -0.317777318486095 1
force O   0.288196062436170   0.095765444980913   0.139276147453625 1
force O   0.178119612076919  -0.146519465595927  -0.126942492308887 1
force O  -0.128490256919364   0.290644321805444  -0.363076025891650 1
force O   0.296719142530458   0.173251961017152   0.155926021944842 1
force O   0.148688230072447   0.221748048853081  -0.663689706133301 1
force O   0.078887567816666  -0.016346390598018   0.134694298729919 1
force O   0.076167621592625  -0.055471267648630  -0.224620898983203 1
force O  -0.048807299595836  -0.417344975681268  -0.682472224417562 1
force O   0.057972359744952   0.317601601651171   0.848944940035403 1
force O  -0.145931957137441   0.113058288017641  -0.083628693421661 1
force O   0.081466496581409   0.120177643123611   0.013765060175450 1
force O   0.372166820815543  -0.027075985600267   0.152919604957781 1
force O   0.054501722193004  -0.232026960198898   0.081370430254934 1
force O  -0.204731964819259  -0.142834927410099   0.499286275687046 1

# Energy components:
   Eewald =    -4322.8527139436901052
       EH =     3147.6755171245908969
     Eloc =    -8258.6608018030256062
      Enl =     1408.0435286958831966
      Exc =     -818.9980379289977463
 Exc_core =        3.8813683127797276
       KE =     1002.8776016666740816
-------------------------------------
     Etot =    -7838.0335378757845319
       TS =        0.3279587505923888
-------------------------------------
        F =    -7838.3614966263767201

IonicMinimize: Iter:   2  F: -7838.361496626376720  |grad|_K:  1.669e-02  alpha:  3.802e-01  linmin: -9.698e-01  t[s]:   7307.90

#--- Lowdin population analysis ---
# oxidation-state Cu +0.317 +0.331 +0.335 +0.323 +0.321 +0.327 +0.314 +0.322 +0.339 +0.325 +0.339 +0.337 +0.341 +0.322 +0.326 +0.347 +0.332 +0.326 +0.330 +0.310 +0.324 +0.327 +0.306 +0.327 +0.319 +0.326 +0.339 +0.343 +0.340 +0.333 +0.333 +0.323 +0.326 +0.328 +0.330 +0.331
# oxidation-state O -0.220 -0.227 -0.231 -0.234 -0.251 -0.258 -0.239 -0.245 -0.234 -0.248 -0.244 -0.234 -0.198 -0.235 -0.211 -0.234 -0.241 -0.240 -0.229 -0.251 -0.237 -0.215 -0.237 -0.232 -0.218 -0.242 -0.234 -0.228 -0.248 -0.245 -0.237 -0.208 -0.214 -0.225 -0.252 -0.238


-------- Electronic minimization -----------
Will mix electronic density at each iteration.
	FillingsUpdate:  mu: +0.400857515  nElectrons: 900.000000
	FillingsUpdate:  mu: +0.397747853  nElectrons: 900.000000
SCF: Cycle:  0   F: -7828.757255259226440   dF: +6.319e+00   |Residual|: 1.651e+00   |deigs|: 5.130e-03  t[s]:   7456.99
	FillingsUpdate:  mu: +0.437225107  nElectrons: 900.000000
SCF: Cycle:  1   F: -7806.390286083665160   dF: +2.237e+01   |Residual|: 4.235e+00   |deigs|: 4.869e-02  t[s]:   7565.85
	FillingsUpdate:  mu: +0.407202291  nElectrons: 900.000000
SCF: Cycle:  2   F: -7832.373208188395438   dF: -2.598e+01   |Residual|: 2.024e+00   |deigs|: 3.325e-02  t[s]:   7674.91
	FillingsUpdate:  mu: +0.400262823  nElectrons: 900.000000
SCF: Cycle:  3   F: -7837.130592192987024   dF: -4.757e+00   |Residual|: 9.630e-01   |deigs|: 2.030e-02  t[s]:   7783.84
	FillingsUpdate:  mu: +0.401360495  nElectrons: 900.000000
SCF: Cycle:  4   F: -7837.391161412256224   dF: -2.606e-01   |Residual|: 8.155e-01   |deigs|: 6.969e-03  t[s]:   7893.03
	FillingsUpdate:  mu: +0.403449883  nElectrons: 900.000000
SCF: Cycle:  5   F: -7837.872532393496840   dF: -4.814e-01   |Residual|: 5.734e-01   |deigs|: 4.940e-03  t[s]:   8001.96
	FillingsUpdate:  mu: +0.402197041  nElectrons: 900.000000
SCF: Cycle:  6   F: -7837.882640484931471   dF: -1.011e-02   |Residual|: 5.839e-01   |deigs|: 2.591e-03  t[s]:   8111.00
	FillingsUpdate:  mu: +0.400270986  nElectrons: 900.000000
SCF: Cycle:  7   F: -7838.345398587150157   dF: -4.628e-01   |Residual|: 2.599e-01   |deigs|: 3.580e-03  t[s]:   8219.44
	FillingsUpdate:  mu: +0.400909597  nElectrons: 900.000000
SCF: Cycle:  8   F: -7838.340762410901334   dF: +4.636e-03   |Residual|: 2.452e-01   |deigs|: 1.278e-03  t[s]:   8328.80
	FillingsUpdate:  mu: +0.401197286  nElectrons: 900.000000
SCF: Cycle:  9   F: -7838.402182560199435   dF: -6.142e-02   |Residual|: 1.524e-01   |deigs|: 1.053e-03  t[s]:   8437.02
	FillingsUpdate:  mu: +0.401240639  nElectrons: 900.000000
SCF: Cycle: 10   F: -7838.439741861494440   dF: -3.756e-02   |Residual|: 3.763e-02   |deigs|: 5.110e-04  t[s]:   8544.44
	FillingsUpdate:  mu: +0.401070558  nElectrons: 900.000000
SCF: Cycle: 11   F: -7838.438881754126669   dF: +8.601e-04   |Residual|: 4.082e-02   |deigs|: 3.916e-04  t[s]:   8608.90
	FillingsUpdate:  mu: +0.401046306  nElectrons: 900.000000
SCF: Cycle: 12   F: -7838.440475828506351   dF: -1.594e-03   |Residual|: 3.008e-02   |deigs|: 3.278e-04  t[s]:   8672.92
	FillingsUpdate:  mu: +0.401159964  nElectrons: 900.000000
SCF: Cycle: 13   F: -7838.440832334011247   dF: -3.565e-04   |Residual|: 2.214e-02   |deigs|: 2.999e-04  t[s]:   8737.11
	FillingsUpdate:  mu: +0.401173419  nElectrons: 900.000000
SCF: Cycle: 14   F: -7838.441756884821189   dF: -9.246e-04   |Residual|: 9.424e-03   |deigs|: 1.369e-04  t[s]:   8801.15
	FillingsUpdate:  mu: +0.401168354  nElectrons: 900.000000
SCF: Cycle: 15   F: -7838.441829288220106   dF: -7.240e-05   |Residual|: 6.011e-03   |deigs|: 9.089e-05  t[s]:   8865.32
	FillingsUpdate:  mu: +0.401169597  nElectrons: 900.000000
SCF: Cycle: 16   F: -7838.441804696346480   dF: +2.459e-05   |Residual|: 6.923e-03   |deigs|: 6.764e-05  t[s]:   8929.56
	FillingsUpdate:  mu: +0.401182029  nElectrons: 900.000000
SCF: Cycle: 17   F: -7838.441873322043648   dF: -6.863e-05   |Residual|: 2.305e-03   |deigs|: 5.604e-05  t[s]:   8993.74
	FillingsUpdate:  mu: +0.401167857  nElectrons: 900.000000
SCF: Cycle: 18   F: -7838.441874574910798   dF: -1.253e-06   |Residual|: 2.295e-03   |deigs|: 3.699e-05  t[s]:   9057.96
	FillingsUpdate:  mu: +0.401168521  nElectrons: 900.000000
SCF: Cycle: 19   F: -7838.441877749908599   dF: -3.175e-06   |Residual|: 1.540e-03   |deigs|: 2.457e-05  t[s]:   9121.86
	FillingsUpdate:  mu: +0.401170343  nElectrons: 900.000000
SCF: Cycle: 20   F: -7838.441877195421512   dF: +5.545e-07   |Residual|: 1.716e-03   |deigs|: 2.477e-05  t[s]:   9186.22
	FillingsUpdate:  mu: +0.401175735  nElectrons: 900.000000
SCF: Cycle: 21   F: -7838.441880788567687   dF: -3.593e-06   |Residual|: 8.290e-04   |deigs|: 1.795e-05  t[s]:   9250.20
	FillingsUpdate:  mu: +0.401174680  nElectrons: 900.000000
SCF: Cycle: 22   F: -7838.441881310497592   dF: -5.219e-07   |Residual|: 6.061e-04   |deigs|: 9.978e-06  t[s]:   9314.33
	FillingsUpdate:  mu: +0.401172027  nElectrons: 900.000000
SCF: Cycle: 23   F: -7838.441881737351650   dF: -4.269e-07   |Residual|: 2.865e-04   |deigs|: 6.457e-06  t[s]:   9378.27
	FillingsUpdate:  mu: +0.401172358  nElectrons: 900.000000
SCF: Cycle: 24   F: -7838.441881311048746   dF: +4.263e-07   |Residual|: 5.410e-04   |deigs|: 6.023e-06  t[s]:   9442.15
	FillingsUpdate:  mu: +0.401172823  nElectrons: 900.000000
SCF: Cycle: 25   F: -7838.441881799408293   dF: -4.884e-07   |Residual|: 2.005e-04   |deigs|: 5.544e-06  t[s]:   9506.62
	FillingsUpdate:  mu: +0.401172528  nElectrons: 900.000000
SCF: Cycle: 26   F: -7838.441881850458230   dF: -5.105e-08   |Residual|: 1.010e-04   |deigs|: 2.305e-06  t[s]:   9570.37
	FillingsUpdate:  mu: +0.401172636  nElectrons: 900.000000
SCF: Cycle: 27   F: -7838.441881847177683   dF: +3.281e-09   |Residual|: 9.843e-05   |deigs|: 1.218e-06  t[s]:   9634.45
	FillingsUpdate:  mu: +0.401172693  nElectrons: 900.000000
SCF: Cycle: 28   F: -7838.441881857499538   dF: -1.032e-08   |Residual|: 5.923e-05   |deigs|: 1.178e-06  t[s]:   9698.17
	FillingsUpdate:  mu: +0.401172515  nElectrons: 900.000000
SCF: Cycle: 29   F: -7838.441881859014757   dF: -1.515e-09   |Residual|: 4.618e-05   |deigs|: 7.562e-07  t[s]:   9759.36
	FillingsUpdate:  mu: +0.401172403  nElectrons: 900.000000
SCF: Cycle: 30   F: -7838.441881862322589   dF: -3.308e-09   |Residual|: 1.910e-05   |deigs|: 5.217e-07  t[s]:   9818.96
SCF: Converged (|Delta E|<1.000000e-08 for 2 iters).

Setting wave functions to eigenvectors of Hamiltonian

# Ionic positions in lattice coordinates:
ion Cu  -0.008044987802018   0.167999740767980   0.003380542934744 1
ion Cu   0.168488746784583  -0.015341464344156   0.257688916768411 1
ion Cu   0.003148559886829   0.165818720765988   0.496738342453093 1
ion Cu   0.168404751240475   0.015496854034495   0.744907067975027 1
ion Cu  -0.002385020649197   0.500312189846924  -0.009676212131816 1
ion Cu   0.168334138666304   0.335098607851102   0.235287698316588 1
ion Cu   0.006754935197324   0.489378279851293   0.499606039176244 1
ion Cu   0.168705098718997   0.328525557009351   0.756469277676574 1
ion Cu   0.008436392352117   0.841759725077252  -0.002500150308357 1
ion Cu   0.162310547916626   0.660007814903731   0.249397459927887 1
ion Cu   0.010245725902621   0.828406936488160   0.501533312496655 1
ion Cu   0.172259337277276   0.671973812416665   0.751268669311371 1
ion Cu   0.327647988114053   0.163111040334011   0.004087032615367 1
ion Cu   0.500861503947518   0.009014552548185   0.250186216948396 1
ion Cu   0.337199422683167   0.166903036259709   0.494480442678954 1
ion Cu   0.499890417145845  -0.009664471431484   0.752200312076575 1
ion Cu   0.323593962844444   0.493924433093528   0.000753819033320 1
ion Cu   0.503569595835628   0.330767276922376   0.239285354996370 1
ion Cu   0.329419574648865   0.482737649218352   0.508196834292005 1
ion Cu   0.509477831854240   0.340328438652461   0.740735783055085 1
ion Cu   0.331912295562444   0.838111881725288  -0.000473230273615 1
ion Cu   0.497472364383546   0.671813681167038   0.249543461399287 1
ion Cu   0.343186365054162   0.824928817964515   0.504207570598867 1
ion Cu   0.499371353397150   0.661629912523922   0.752781739729758 1
ion Cu   0.667208408236259   0.166661058993733   0.004757955729969 1
ion Cu   0.832770802228022   0.001901375591190   0.243172347577286 1
ion Cu   0.663604942353456   0.168443429226721   0.495108495747435 1
ion Cu   0.834096622611524  -0.002213941180979   0.759981696522213 1
ion Cu   0.671677399882801   0.505172971865895  -0.003888367137658 1
ion Cu   0.832858730795240   0.335662303660448   0.247300777541725 1
ion Cu   0.670649406893649   0.504168602310217   0.486529603829669 1
ion Cu   0.842235481005048   0.332516133626614   0.753648495435179 1
ion Cu   0.661219773137027   0.828769329735277   0.005258997816342 1
ion Cu   0.839733474594856   0.666696292095898   0.255370193107412 1
ion Cu   0.659425916091478   0.834232216067865   0.506540631367455 1
ion Cu   0.831571514736474   0.663008464811700   0.743381266356590 1
ion O   0.010664249290948   0.332235363180249   0.118280488072015 1
ion O   0.328818934887434  -0.000141820655843   0.383829739236056 1
ion O   0.003689725960600   0.317942804170602   0.625954764816525 1
ion O   0.325786605766409   0.002937869912872   0.873917006739034 1
ion O   0.001474937177339   0.659995942088593   0.119632921634053 1
ion O   0.326671296646488   0.328661445884333   0.361752240729369 1
ion O   0.001960570853447   0.650005012602283   0.623569225347928 1
ion O   0.339708812845015   0.343703488677715   0.867106971450829 1
ion O   0.013371638990197   1.001336000609924   0.131980774232663 1
ion O   0.343910169848992   0.672680839134384   0.380158398508532 1
ion O  -0.004758366167996   0.993892412649894   0.621932930223632 1
ion O   0.337992228137102   0.673353124580190   0.880423365774793 1
ion O   0.341787037793716   0.324419712421657   0.118620325974068 1
ion O   0.653013885006503  -0.009218553593085   0.372353528238853 1
ion O   0.352192295257405   0.327399100089110   0.628661396446535 1
ion O   0.653952888341622  -0.004203415468939   0.890151150948581 1
ion O   0.331335376399532   0.651318360722478   0.133204198802063 1
ion O   0.656360603125957   0.338090440249660   0.369252504268137 1
[...]
force Cu  -0.001468567803985  -0.000786663786414   0.000342129059358 1
force Cu   0.012798611583919   0.000805128321717  -0.000120092134445 1
force Cu   0.001332657080328  -0.002880302804635  -0.001949572391418 1
force Cu   0.014539923834803   0.000017426985206   0.000107190635169 1
force Cu  -0.001107566187560   0.007660167780810   0.002280540543997 1
force Cu   0.009043918941206  -0.000953832216631   0.002217635375157 1
force Cu   0.000510512415267  -0.008604679132027  -0.001057592720775 1
force Cu   0.003583647446095   0.000928015956057   0.001021319956948 1
force Cu  -0.000768812484824  -0.010656390037173   0.001031518966030 1
force Cu  -0.002892851686469   0.000073781375929   0.000094841099977 1
force Cu  -0.000705438083189  -0.002759359020487   0.002386354446620 1
force Cu  -0.009489775258432   0.000245701954357  -0.002427648405811 1
force Cu  -0.000831551939642   0.005081377654786   0.002620168351155 1
force Cu  -0.007017480899314  -0.000022486360855   0.000291509214032 1
force Cu   0.001033764585652   0.008732439286985   0.000490101027034 1
force Cu  -0.011542861147237  -0.001148360782180  -0.000557851548148 1
force Cu   0.002187557763673  -0.004291901268790   0.003028723890262 1
force Cu  -0.006239233417312  -0.001558781768061   0.000047572745745 1
force Cu   0.000074858695774  -0.000281819743936   0.002127838257109 1
force Cu   0.003111753420249   0.000446984605892   0.001390212867615 1
force Cu   0.000707253687725   0.008976860168618  -0.000507708836726 1
force Cu  -0.000386922491028  -0.001109349567743  -0.001412639024249 1
force Cu   0.000511004723025   0.004370818815884   0.008254551894762 1
force Cu   0.002244258720536   0.000608991201670   0.000156431744039 1
force Cu   0.000692093232937  -0.004018225260287   0.000162406654044 1
force Cu  -0.002417786454963  -0.000256313465228   0.000098143188263 1
force Cu   0.000882957956039  -0.007170821987637   0.000434875326807 1
force Cu  -0.002049539022545   0.001658756135773  -0.000664916733562 1
force O   0.000498420799543  -0.002300610300160   0.003792809176056 1
force O   0.000926870154193   0.000285815194081   0.009603634507310 1
force O  -0.002964499845339   0.000576169867045   0.001042541034950 1
force O   0.001120542961605  -0.002062254012937   0.002993320753266 1
force O  -0.002031459236198  -0.000870473782421  -0.005012074747316 1
force O   0.001022228318242   0.003725762124527  -0.003101233678682 1
force O  -0.004301589275106   0.001550189926622  -0.008590441855928 1
force O  -0.001418803141858  -0.000597026146923  -0.001941408334579 1
force O   0.002262352452429  -0.001103179472993   0.000413522273597 1
force O   0.000071141899953   0.000134415318640  -0.006993066746620 1
force O   0.001239647850150   0.002499066174872   0.000903077229398 1
force O   0.000124425551539  -0.000181018776499  -0.011380058966207 1
force O  -0.000024421924728   0.000368543145678  -0.004298259053111 1
force O  -0.000553142982120  -0.001997305020261  -0.005095921843106 1
force O   0.000525383835182   0.005362992633798   0.002441752115884 1
force O   0.000218052005798   0.000782557919143   0.001149228269838 1
force O  -0.002590790603757   0.000755722599603   0.010921774759782 1
force O  -0.000083492502331  -0.001652368370457  -0.000962818703378 1
force O  -0.001472119493825   0.000913643078419   0.013040415659550 1
force O  -0.004439081508707  -0.003243264129848  -0.006295421362968 1
force O  -0.000081190548239  -0.000480078373402  -0.002922821406536 1
force O   0.002619029048076   0.000332981047347   0.003259278214661 1
force O   0.000766079464667   0.002420905819939  -0.008851319664989 1
force O   0.003251334459463  -0.000773299159461   0.008168386123818 1
force O   0.002349938243936  -0.001885855249511   0.002353278966787 1
force O   0.002064387169734   0.001449200299820   0.002992495184187 1
force O  -0.000935402495204   0.002027112283379  -0.005221487474494 1
force O   0.002763113635818  -0.000904593793217  -0.000549599617704 1
force O   0.002153995472803  -0.001721069563676  -0.007417563026942 1
force O  -0.000850098047874   0.005397446863346  -0.000474757254888 1
force O   0.002653708997660  -0.002768300646169  -0.008958619851045 1
force O  -0.003450468713440  -0.003221876674739   0.001409115955097 1
force O   0.001114880818356   0.000824591413802   0.003263487811880 1
force O  -0.003359910628458   0.001895744255636   0.007134438704739 1
force O   0.002217070962507   0.002354115309769   0.002682811581291 1
force O  -0.001982625797585  -0.002410183041200   0.005816624650693 1

# Energy components:
   Eewald =    -4333.3579446792518866
       EH =     3138.1894197617407372
     Eloc =    -8238.4596301403398684
      Enl =     1407.9501016661815811
      Exc =     -818.8863729048994173
 Exc_core =        3.8813488927231137
       KE =     1002.4717656044070964
-------------------------------------
     Etot =    -7838.2113117994394997
       TS =        0.3285124813594106
-------------------------------------
        F =    -7838.5398242807987117

IonicMinimize: Iter:  17  F: -7838.539824280798712  |grad|_K:  2.219e-04  alpha:  1.000e+00  linmin:  3.927e-02  t[s]:  31538.99

#--- Lowdin population analysis ---
# oxidation-state Cu +0.330 +0.330 +0.330 +0.330 +0.330 +0.330 +0.330 +0.330 +0.330 +0.330 +0.330 +0.330 +0.330 +0.330 +0.330 +0.330 +0.330 +0.330 +0.330 +0.330 +0.330 +0.330 +0.330 +0.330 +0.330 +0.330 +0.330 +0.330 +0.330 +0.330 +0.330 +0.330 +0.330 +0.330 +0.330 +0.330
# oxidation-state O -0.235 -0.235 -0.235 -0.235 -0.235 -0.235 -0.235 -0.235 -0.235 -0.235 -0.235 -0.235 -0.235 -0.235 -0.236 -0.235 -0.235 -0.235 -0.235 -0.235 -0.235 -0.235 -0.235 -0.235 -0.235 -0.235 -0.235 -0.235 -0.235 -0.235 -0.235 -0.235 -0.235 -0.235 -0.235 -0.235


-------- Electronic minimization -----------
Will mix electronic density at each iteration.
	FillingsUpdate:  mu: +0.402522218  nElectrons: 900.000000
	FillingsUpdate:  mu: +0.402530119  nElectrons: 900.000000
SCF: Cycle:  0   F: -7838.539699384418782   dF: +1.633e-05   |Residual|: 7.340e-03   |deigs|: 1.033e-06  t[s]:  31646.97
	FillingsUpdate:  mu: +0.402517820  nElectrons: 900.000000
SCF: Cycle:  1   F: -7838.537653821650565   dF: +2.046e-03   |Residual|: 3.293e-02   |deigs|: 1.807e-04  t[s]:  31710.75
	FillingsUpdate:  mu: +0.402519777  nElectrons: 900.000000
SCF: Cycle:  2   F: -7838.539845544269156   dF: -2.192e-03   |Residual|: 1.809e-03   |deigs|: 2.059e-04  t[s]:  31774.61
	FillingsUpdate:  mu: +0.402526530  nElectrons: 900.000000
SCF: Cycle:  3   F: -7838.539844655002526   dF: +8.893e-07   |Residual|: 1.916e-03   |deigs|: 1.125e-05  t[s]:  31838.59
	FillingsUpdate:  mu: +0.402524199  nElectrons: 900.000000
SCF: Cycle:  4   F: -7838.539839689486143   dF: +4.966e-06   |Residual|: 2.442e-03   |deigs|: 1.126e-05  t[s]:  31902.54
	FillingsUpdate:  mu: +0.402521681  nElectrons: 900.000000
SCF: Cycle:  5   F: -7838.539848957570939   dF: -9.268e-06   |Residual|: 3.836e-04   |deigs|: 1.010e-05  t[s]:  31966.53
	FillingsUpdate:  mu: +0.402524605  nElectrons: 900.000000
SCF: Cycle:  6   F: -7838.539848544397501   dF: +4.132e-07   |Residual|: 6.351e-04   |deigs|: 5.315e-06  t[s]:  32030.55
	FillingsUpdate:  mu: +0.402525929  nElectrons: 900.000000
SCF: Cycle:  7   F: -7838.539849073395999   dF: -5.290e-07   |Residual|: 2.111e-04   |deigs|: 3.237e-06  t[s]:  32094.92
	FillingsUpdate:  mu: +0.402523725  nElectrons: 900.000000
SCF: Cycle:  8   F: -7838.539849117216363   dF: -4.382e-08   |Residual|: 9.571e-05   |deigs|: 3.383e-06  t[s]:  32158.82
	FillingsUpdate:  mu: +0.402523882  nElectrons: 900.000000
SCF: Cycle:  9   F: -7838.539849106327893   dF: +1.089e-08   |Residual|: 1.258e-04   |deigs|: 9.926e-07  t[s]:  32222.76
	FillingsUpdate:  mu: +0.402524122  nElectrons: 900.000000
SCF: Cycle: 10   F: -7838.539849130563198   dF: -2.424e-08   |Residual|: 1.945e-05   |deigs|: 6.944e-07  t[s]:  32286.75
	FillingsUpdate:  mu: +0.402524042  nElectrons: 900.000000
SCF: Cycle: 11   F: -7838.539849129585491   dF: +9.777e-10   |Residual|: 3.288e-05   |deigs|: 2.413e-07  t[s]:  32349.26
	FillingsUpdate:  mu: +0.402523999  nElectrons: 900.000000
SCF: Cycle: 12   F: -7838.539849130536822   dF: -9.513e-10   |Residual|: 2.146e-05   |deigs|: 2.530e-07  t[s]:  32410.02
	FillingsUpdate:  mu: +0.402524021  nElectrons: 900.000000
SCF: Cycle: 13   F: -7838.539849130730545   dF: -1.937e-10   |Residual|: 1.736e-05   |deigs|: 1.386e-07  t[s]:  32464.90
SCF: Converged (|Delta E|<1.000000e-08 for 2 iters).

Setting wave functions to eigenvectors of Hamiltonian

# Ionic positions in lattice coordinates:
ion Cu   0.000885062104386   0.166985906898112  -0.000441934276803 1
ion Cu   0.165773201497779  -0.001688720648234   0.249447006845939 1
ion Cu   0.000748598035971   0.163833895412551   0.499563023764244 1
ion Cu   0.166408535007527  -0.001544467439927   0.749322628912954 1
ion Cu   0.001603682731330   0.500497336367540  -0.000337485465279 1
ion Cu   0.168321368783501   0.331704524527578   0.249761174313149 1
ion Cu   0.001784370812485   0.497019284982581   0.499889597196378 1
ion Cu   0.169375232344633   0.331723907596594   0.749964277795828 1
ion Cu   0.000273428795297   0.833673372009994  -0.000706578762231 1
ion Cu   0.167139087716715   0.664893725661319   0.249447247353087 1
ion Cu  -0.000028027171695   0.830474285002910   0.499370953611501 1
ion Cu   0.167906154004945   0.665152903431079   0.749425045064725 1
ion Cu   0.334191964372942   0.165963515246764  -0.000373193515562 1
ion Cu   0.499083338989174  -0.001009587389095   0.249279034006529 1
ion Cu   0.334084191880760   0.163599808146380   0.499724595813707 1
ion Cu   0.499723174653447  -0.001443842431403   0.749297215676642 1
ion Cu   0.335017229158035   0.499472314634991  -0.000283928133078 1
ion Cu   0.501588994707750   0.332067245097265   0.249839118965614 1
ion Cu   0.334867840233424   0.496779888288515   0.499687926639753 1
ion Cu   0.502830505752830   0.332171632712797   0.749983055457096 1
ion Cu   0.333412434692038   0.832734523013690  -0.000787486143915 1
ion Cu   0.500449683119213   0.665558710525447   0.249472726496115 1
ion Cu   0.333318545171601   0.830235809560568   0.499187542197386 1
ion Cu   0.501199849018777   0.665442968180466   0.749431753924561 1
ion Cu   0.667287623314262   0.167186214384116  -0.000499429873758 1
ion Cu   0.832527204033821  -0.000692569498748   0.249231550533073 1
ion Cu   0.667416653183880   0.165029565028962   0.499549511333124 1
ion Cu   0.832988377226004  -0.000998920660293   0.749276126833098 1
ion Cu   0.668210223235547   0.500574912929908  -0.000093242180690 1
ion Cu   0.834970737248529   0.332577790925741   0.249665554087194 1
ion Cu   0.668114973801518   0.498274093865954   0.499671224917509 1
ion Cu   0.836043416141761   0.332347460710364   0.749791401742681 1
ion Cu   0.666678416017642   0.833822756265672  -0.000724586742304 1
ion Cu   0.833905690035578   0.665867799808812   0.249618192603498 1
ion Cu   0.666604229601997   0.831723381221533   0.499180167185385 1
ion Cu   0.834470343383310   0.665661105904348   0.749540931720200 1
ion O   0.001756144493735   0.333667530448133   0.124684955163776 1
ion O   0.332380489886414  -0.002814337020939   0.374329695915904 1
ion O   0.002839058618770   0.330218172826771   0.624906379668513 1
ion O   0.333039306822715  -0.000411753242316   0.874287838064906 1
ion O   0.000577298000438   0.667106280518120   0.124523636646787 1
ion O   0.334852755318138   0.330228609530633   0.374823886708545 1
ion O   0.001278343780015   0.663872028130231   0.624617915041293 1
ion O   0.336071529570290   0.332932495388685   0.874929290775553 1
ion O  -0.000644151345516   1.000190028257131   0.124338722174971 1
ion O   0.333684118218722   0.663446657857183   0.374344273721463 1
ion O  -0.000227355288172   0.997041064870412   0.624369868119993 1
ion O   0.334439403889324   0.666038317562735   0.874342897074061 1
ion O   0.335049480534185   0.332640016501029   0.124819836031569 1
ion O   0.665783707514050  -0.001300628974513   0.374180804330264 1
ion O   0.336018771971057   0.330049874034869   0.624974736950961 1
ion O   0.666316880396563   0.000618081051510   0.874225296965308 1
ion O   0.333961620650156   0.666145679390008   0.124440299468047 1
ion O   0.668222831779255   0.331800542398785   0.374716538972694 1
ion O   0.334654163774794   0.663593362648541   0.624393599297378 1
ion O   0.669558313654567   0.334097980634512   0.874907918507318 1
ion O   0.332455371366832   0.999098169811997   0.124369118873016 1
ion O   0.666988243604104   0.664973274839765   0.374472938037937 1
ion O   0.333110724581921   0.996565962350417   0.624353782423723 1
ion O   0.667708122710374   0.666999883114767   0.874529678567273 1
ion O   0.668118039645013   0.333702589358196   0.124827948449207 1
ion O   0.998972198140772  -0.002675300937583   0.374338989714829 1
ion O   0.669332898862814   0.331372884361389   0.624904679102610 1
ion O   0.999679247518413   0.000518253009910   0.874267078676717 1
ion O   0.667295543560499   0.667426315200705   0.124617740045884 1
ion O   1.001583437580449   0.330495000563121   0.374687724617633 1
ion O   0.667932991083909   0.665074716634549   0.624461689041931 1
ion O   1.002644189255089   0.333869121044800   0.874793833230612 1
ion O   0.665852669133951   1.000410481333306   0.124284665731294 1
ion O   1.000525411010297   0.663584095761360   0.374617647878264 1
ion O   0.666355345033643   0.998039533871543   0.624255245664190 1
ion O   1.001166521035706   0.667042486595386   0.874438130448221 1

# Forces in Lattice coordinates:
force Cu  -0.000199430320452   0.000762931788579  -0.000591302345306 1
force Cu   0.001891695684911   0.001170465496180  -0.001216518063610 1
force Cu   0.000449950101435   0.000368051194476   0.000242921455542 1
force Cu   0.000276853426628  -0.000435304831475   0.001583698671601 1
force Cu   0.000064789805580  -0.004414864521041   0.000255448640185 1
force Cu  -0.001424218224454   0.000209186029494  -0.002277050986770 1
force Cu  -0.001738282536502   0.001276430531439  -0.005044316148667 1
force Cu   0.001151794634580   0.000052987685056  -0.003316711993784 1
force Cu  -0.001721667141859   0.000560426191340   0.001051314461200 1
force Cu   0.000587878419470   0.001466553172475   0.000685669261160 1
force Cu   0.001040857089991   0.000610854819586  -0.000324677377276 1
force Cu  -0.000086990896274  -0.000592453137184   0.000448806060894 1
force Cu  -0.000517905293964   0.003266079932403   0.000529201178227 1
force Cu   0.002307576031201  -0.001757831348114   0.002542547043742 1
force Cu   0.000028754755860  -0.001724226002179  -0.000989618867229 1
force Cu   0.000096525570909   0.001511096166178   0.000848268346146 1
force Cu  -0.000690323213655  -0.001023436446530  -0.000218563354688 1
force Cu  -0.002311285009265   0.000258399177929  -0.001063691296331 1
force Cu   0.000155282373367   0.003254289700574   0.001231845749260 1
force Cu  -0.005866090193662  -0.000497687319002  -0.004223610801392 1
force Cu  -0.000140973511099  -0.001658838871353   0.002265740895981 1
force Cu   0.001683705714506  -0.000317567241484   0.000186623719788 1
force Cu   0.000851957920227  -0.001186525466426   0.001405820829011 1
force Cu   0.000506461663828  -0.000330759525566  -0.000171014886810 1
force Cu   0.002099390990058  -0.001468026642274   0.001515283603353 1
force Cu  -0.000729914061197  -0.001385330391618   0.001563776555047 1
force Cu  -0.000040585065628  -0.000899851452231   0.000586958896098 1
force Cu   0.002501171200830   0.000932462304278   0.001577332311289 1
force Cu   0.000386698146714  -0.000280186353510  -0.002162474420765 1
force Cu  -0.000826543509437  -0.001326166792034  -0.000122310896763 1
force Cu   0.000705176058979   0.000451287765671   0.003927442191773 1
force Cu  -0.000264435501781   0.000852688245564  -0.001267461702165 1
force Cu   0.000706709403200   0.000651078541698   0.001258916287591 1
force Cu  -0.000723030420269  -0.000719907981874  -0.000272227045575 1
force Cu   0.001055508964606  -0.000890848074574   0.001247131140837 1
force Cu  -0.000527061405693   0.001328074752423  -0.000575101517113 1
force O  -0.000905075917352  -0.002004057847001   0.000913127508642 1
force O   0.001508277867047   0.000698953605434   0.001969494059508 1
force O  -0.001698424529585   0.001369941564300  -0.003080682177609 1
force O   0.000475460036255  -0.000113491282082   0.000653299495669 1
force O   0.000268277431304  -0.000935479634788   0.001501380329300 1
force O  -0.000552453478448   0.001879367297164  -0.002034763625628 1
force O  -0.000628619519340   0.000369860235015  -0.001565578758903 1
force O  -0.002179609499876  -0.001801470162897  -0.003859869936039 1
force O   0.000444005491890  -0.001360377383150   0.001281505171661 1
force O   0.000456808832829   0.000890250462883   0.003521170471932 1
force O   0.001038863448338  -0.000172405609318   0.000423094727982 1
force O   0.000455215482794   0.000031963063562   0.002410916224301 1
force O  -0.000550902722934  -0.001042493667894  -0.000397509164043 1
force O  -0.000462332372959  -0.002153484549046   0.002253720557682 1
force O   0.001615981140688   0.002322283485834  -0.000378075047462 1
force O   0.000378329264532  -0.000758728107734   0.002485842093423 1
force O  -0.001098657128565   0.000261332951404  -0.000269808713746 1
force O  -0.000355187317795  -0.000023458250360   0.000282829181790 1
force O  -0.001133685314242   0.001036092640896  -0.000283273856715 1
force O  -0.005183619767563  -0.001615596300144  -0.003090251563167 1
force O   0.001662448022197   0.001201104549335   0.001240868974291 1
force O   0.000582638005985  -0.000081457227013  -0.000116125645220 1
force O   0.001215350913428   0.002631467247959   0.000755762216075 1
force O   0.000146083558685   0.000538370843388  -0.000738298771636 1
force O   0.002976043575405  -0.000615312694611  -0.001406847933703 1
force O   0.001265405091592  -0.000049555716373   0.001155769683371 1
force O   0.000242657030199   0.002472132268345  -0.005275995611765 1
force O   0.000533986075519  -0.001102768280357   0.001519313394070 1
force O  -0.000180803317753  -0.002500699628083  -0.000642855364905 1
force O  -0.001618046497824   0.004095722678524   0.001459115018354 1
force O  -0.000025697686118  -0.001685169746843   0.000197258543312 1
force O  -0.002063123165968  -0.001618820640528  -0.000716575790623 1
force O   0.001301959250742  -0.000842750337489   0.000046223748484 1
force O  -0.001035871001414   0.002820507816331  -0.001658391125253 1
force O   0.002539934535001   0.000985612148454   0.000934966251654 1
force O  -0.000101331766418  -0.001265661715292   0.000308866322686 1

# Energy components:
   Eewald =    -4333.3520129633307079
       EH =     3138.1950135551878702
     Eloc =    -8238.4712869370196131
      Enl =     1407.9500749896174057
      Exc =     -818.8864744604474026
 Exc_core =        3.8813486658908678
       KE =     1002.4719974209773454
-------------------------------------
     Etot =    -7838.2113397291241199
       TS =        0.3285094016067631
-------------------------------------
        F =    -7838.5398491307305449

IonicMinimize: Iter:  18  F: -7838.539849130730545  |grad|_K:  9.193e-05  alpha:  1.000e+00  linmin: -9.248e-02  t[s]:  32485.67
IonicMinimize: Converged (|grad|_K<1.000000e-04).

#--- Lowdin population analysis ---
# oxidation-state Cu +0.330 +0.330 +0.330 +0.330 +0.330 +0.330 +0.330 +0.330 +0.330 +0.330 +0.330 +0.330 +0.330 +0.330 +0.330 +0.330 +0.330 +0.330 +0.330 +0.330 +0.330 +0.330 +0.330 +0.330 +0.330 +0.330 +0.330 +0.330 +0.330 +0.330 +0.330 +0.330 +0.330 +0.330 +0.330 +0.330
# oxidation-state O -0.236 -0.235 -0.235 -0.235 -0.235 -0.235 -0.235 -0.235 -0.235 -0.235 -0.235 -0.235 -0.235 -0.235 -0.236 -0.235 -0.235 -0.235 -0.235 -0.235 -0.235 -0.235 -0.235 -0.235 -0.235 -0.235 -0.236 -0.235 -0.235 -0.235 -0.235 -0.235 -0.235 -0.235 -0.235 -0.235


Dumping '/data/rc652/CuO/ion/CuO_ion.Ecomponents' ... done
End date and time: Sun Jul 14 08:29:44 2024  (Duration: 0-9:01:36.73)
Done!
