--------------------------------------------------------------------------
[[37479,1],3]: A high-performance Open MPI point-to-point messaging module
was unable to find any relevant network interfaces:

Module: OpenFabrics (openib)
  Host: node3220

Another transport will be used instead, although this may result in
lower performance.
--------------------------------------------------------------------------

*************** JDFTx 1.7.0 (git hash 3664913) ***************

Start date and time: Sat Jul 13 23:29:27 2024
Executable jdftx with command-line: -i CuO_vac.in
Running on hosts (process indices):  node3220.physics.cornell.edu (0-15)
Divided in process groups (process indices):  0 (0)  1 (1)  2 (2)  3 (3)  4 (4)  5 (5)  6 (6)  7 (7)  8 (8)  9 (9)  10 (10)  11 (11)  12 (12)  13 (13)  14 (14)  15 (15)
Resource initialization completed at t[s]:      0.00
Run totals: 16 processes, 32 threads, 0 GPUs


Input parsed successfully to the following command list (including defaults):

basis kpoint-dependent
coords-type Lattice
core-overlap-check vector
coulomb-interaction Periodic
davidson-band-ratio 1.1
dump End Ecomponents
dump-name /data/rc652/CuO/vac/CuO_vac.$VAR
elec-cutoff 20 100
elec-eigen-algo Davidson
elec-ex-corr gga-PBEsol
elec-smearing Fermi 0.01
electronic-minimize  \
	dirUpdateScheme      FletcherReeves \
	linminMethod         DirUpdateRecommended \
	nIterations          100 \
	history              15 \
	knormThreshold       0 \
	maxThreshold         no \
	energyDiffThreshold  1e-08 \
	nEnergyDiff          2 \
	alphaTstart          1 \
	alphaTmin            1e-10 \
	updateTestStepSize   yes \
	alphaTreduceFactor   0.1 \
	alphaTincreaseFactor 3 \
	nAlphaAdjustMax      3 \
	wolfeEnergy          0.0001 \
	wolfeGradient        0.9 \
	fdTest               no
electronic-scf  \
	nIterations	50 \
	energyDiffThreshold	1e-08 \
	residualThreshold	1e-07 \
	mixFraction	0.5 \
	qMetric	0.8 \
	history	10 \
	nEigSteps	2 \
	eigDiffThreshold	1e-08 \
	mixedVariable	Density \
	qKerker	0.8 \
	qKappa	-1 \
	verbose	no \
	mixFractionMag	1.5
exchange-regularization WignerSeitzTruncated
fluid None
fluid-ex-corr lda-TF lda-PZ
fluid-gummel-loop 10 1.000000e-05
fluid-minimize  \
	dirUpdateScheme      PolakRibiere \
	linminMethod         DirUpdateRecommended \
	nIterations          100 \
	history              15 \
	knormThreshold       0 \
	maxThreshold         no \
	energyDiffThreshold  0 \
	nEnergyDiff          2 \
	alphaTstart          1 \
	alphaTmin            1e-10 \
	updateTestStepSize   yes \
	alphaTreduceFactor   0.1 \
	alphaTincreaseFactor 3 \
	nAlphaAdjustMax      3 \
	wolfeEnergy          0.0001 \
	wolfeGradient        0.9 \
	fdTest               no
fluid-solvent H2O 55.338 ScalarEOS \
	epsBulk 78.4 \
	pMol 0.92466 \
	epsInf 1.77 \
	Pvap 1.06736e-10 \
	sigmaBulk 4.62e-05 \
	Rvdw 2.61727 \
	Res 1.42 \
	tauNuc 343133 \
	poleEl 15 7 1
forces-output-coords Positions
ion Cu  -0.011140000000000   0.174390000000000   0.003720000000000 1
ion Cu   0.167570000000000  -0.017460000000000   0.255770000000000 1
ion Cu   0.005380000000000   0.173760000000000   0.499740000000000 1
ion Cu   0.174640000000000   0.018370000000000   0.744950000000000 1
ion Cu  -0.003560000000000   0.493140000000000  -0.011110000000000 1
ion Cu   0.166870000000000   0.335820000000000   0.226290000000000 1
ion Cu   0.007840000000000   0.484010000000000   0.496160000000000 1
ion Cu   0.166370000000000   0.328750000000000   0.763340000000000 1
ion Cu   0.008510000000000   0.845300000000000  -0.004210000000000 1
ion Cu   0.159220000000000   0.659510000000000   0.244950000000000 1
ion Cu   0.014090000000000   0.830310000000000   0.501260000000000 1
ion Cu   0.171800000000000   0.672760000000000   0.754670000000000 1
ion Cu   0.326200000000000   0.165540000000000   0.012820000000000 1
ion Cu   0.510760000000000   0.011950000000000   0.251030000000000 1
ion Cu   0.337610000000000   0.163040000000000   0.489340000000000 1
ion Cu   0.501850000000000  -0.011670000000000   0.752460000000000 1
ion Cu   0.320200000000000   0.487010000000000   0.002340000000000 1
ion Cu   0.506450000000000   0.330660000000000   0.234680000000000 1
ion Cu   0.328980000000000   0.472710000000000   0.517730000000000 1
ion Cu   0.505820000000000   0.340940000000000   0.727790000000000 1
ion Cu   0.331680000000000   0.843830000000000  -0.003890000000000 1
ion Cu   0.493150000000000   0.672050000000000   0.247140000000000 1
ion Cu   0.345870000000000   0.816320000000000   0.504750000000000 1
ion Cu   0.498350000000000   0.660970000000000   0.757630000000000 1
ion Cu   0.668270000000000   0.167780000000000   0.009440000000000 1
ion Cu   0.834890000000000   0.004070000000000   0.239050000000000 1
ion Cu   0.663500000000000   0.171250000000000   0.494860000000000 1
ion Cu   0.840210000000000  -0.002670000000000   0.764020000000000 1
ion Cu   0.672280000000000   0.507350000000000  -0.006070000000000 1
ion Cu   0.824310000000000   0.335640000000000   0.243470000000000 1
ion Cu   0.671950000000000   0.511170000000000   0.486450000000000 1
ion Cu   0.847770000000000   0.334240000000000   0.753330000000000 1
ion Cu   0.660620000000000   0.830420000000000   0.002620000000000 1
ion Cu   0.846530000000000   0.665780000000000   0.260330000000000 1
ion Cu   0.659110000000000   0.829690000000000   0.506400000000000 1
ion Cu   0.833570000000000   0.662240000000000   0.743550000000000 1
ion O   0.018760000000000   0.329360000000000   0.116480000000000 1
ion O   0.326780000000000   0.006000000000000   0.390300000000000 1
ion O  -0.000270000000000   0.312950000000000   0.623490000000000 1
ion O   0.323130000000000  -0.000590000000000   0.874280000000000 1
ion O   0.003880000000000   0.658070000000000   0.122350000000000 1
ion O   0.324180000000000   0.327130000000000   0.359110000000000 1
ion O  -0.000780000000000   0.647700000000000   0.623780000000000 1
ion O   0.337850000000000   0.346380000000000   0.863920000000000 1
ion O   0.017070000000000   1.001560000000000   0.137970000000000 1
ion O   0.348600000000000   0.679540000000000   0.382930000000000 1
ion O  -0.008020000000000   0.991690000000000   0.620130000000000 1
ion O   0.341290000000000   0.676060000000000   0.879270000000000 1
ion O   0.343130000000000   0.321120000000000   0.118480000000000 1
ion O   0.645500000000000  -0.014810000000000   0.367490000000000 1
ion O   0.362980000000000   0.336410000000000   0.633870000000000 1
ion O   0.651380000000000  -0.006940000000000   0.897060000000000 1
ion O   0.332560000000000   0.649730000000000   0.138470000000000 1
ion O   0.653540000000000   0.339210000000000   0.366890000000000 1
ion O   0.331380000000000   0.665000000000000   0.618950000000000 1
ion O   0.658640000000000   0.338080000000000   0.870990000000000 1
ion O   0.332870000000000   0.996120000000000   0.124270000000000 1
ion O   0.661850000000000   0.689970000000000   0.376720000000000 1
ion O   0.324840000000000   0.992330000000000   0.620040000000000 1
ion O   0.662790000000000   0.678670000000000   0.874460000000000 1
ion O   0.678390000000000   0.324130000000000   0.127230000000000 1
ion O   0.981070000000000  -0.010670000000000   0.372450000000000 1
ion O   0.677740000000000   0.315510000000000   0.639930000000000 1
ion O   1.002120000000000   0.012740000000000   0.872860000000000 1
ion O   0.667280000000000   0.665480000000000   0.134520000000000 1
ion O   1.003620000000000   0.346140000000000   0.382070000000000 1
ion O   0.661700000000000   0.647100000000000   0.604140000000000 1
ion O   1.004430000000000   0.327640000000000   0.877990000000000 1
ion O   0.664250000000000   0.992380000000000   0.126170000000000 1
ion O   0.992360000000000   0.664000000000000   0.375680000000000 1
ion O   0.666800000000000   1.009110000000000   0.627540000000000 1
ion-species GBRV/$ID_pbesol.uspp
ion-width 0
ionic-minimize  \
	dirUpdateScheme      L-BFGS \
	linminMethod         DirUpdateRecommended \
	nIterations          50 \
	history              15 \
	knormThreshold       0.0001 \
	maxThreshold         no \
	energyDiffThreshold  1e-06 \
	nEnergyDiff          2 \
	alphaTstart          1 \
	alphaTmin            1e-10 \
	updateTestStepSize   yes \
	alphaTreduceFactor   0.1 \
	alphaTincreaseFactor 3 \
	nAlphaAdjustMax      3 \
	wolfeEnergy          0.0001 \
	wolfeGradient        0.9 \
	fdTest               no
kpoint   0.500000000000   0.500000000000   0.500000000000  1.00000000000000
kpoint-folding 2 2 2 
latt-move-scale 1 1 1
latt-scale 1 1 1 
lattice  \
	  11.607135737443389  -11.607135737443389   -0.000000000000000  \
	  11.603570420906998   11.603570420906998    0.416184340804498  \
	  -0.238198440530414   -0.238198440530414   19.350858905921452 
lattice-minimize  \
	dirUpdateScheme      L-BFGS \
	linminMethod         DirUpdateRecommended \
	nIterations          0 \
	history              15 \
	knormThreshold       0 \
	maxThreshold         no \
	energyDiffThreshold  1e-06 \
	nEnergyDiff          2 \
	alphaTstart          1 \
	alphaTmin            1e-10 \
	updateTestStepSize   yes \
	alphaTreduceFactor   0.1 \
	alphaTincreaseFactor 3 \
	nAlphaAdjustMax      3 \
	wolfeEnergy          0.0001 \
	wolfeGradient        0.9 \
	fdTest               no
lcao-params -1 1e-06 0.01
pcm-variant GLSSA13
perturb-minimize  \
	nIterations            0 \
	algorithm              MINRES \
	residualTol            0.0001 \
	residualDiffThreshold  0.0001 \
	CGBypass               no \
	recomputeResidual      no
spintype no-spin
subspace-rotation-factor 1 yes
symmetries automatic
symmetry-threshold 0.0001



---------- Setting up symmetries ----------

Found 4 point-group symmetries of the bravais lattice
Found 1 space-group symmetries with basis
Applied RMS atom displacement 0 bohrs to make symmetries exact.

---------- Initializing the Grid ----------
R = 
[      11.6071     -11.6071            0  ]
[      11.6036      11.6036     0.416184  ]
[    -0.238198    -0.238198      19.3509  ]
unit cell volume = 5214.81
G =
[    0.27066   0.270624 -0.00582039  ]
[   -0.27066   0.270624 -0.00582039  ]
[          0 0.00666247   0.324555  ]
Minimum fftbox size, Smin = [  76  76  88  ]
Chosen fftbox size, S = [  80  80  90  ]

---------- Initializing tighter grid for wavefunction operations ----------
R = 
[      11.6071     -11.6071            0  ]
[      11.6036      11.6036     0.416184  ]
[    -0.238198    -0.238198      19.3509  ]
unit cell volume = 5214.81
G =
[    0.27066   0.270624 -0.00582039  ]
[   -0.27066   0.270624 -0.00582039  ]
[          0 0.00666247   0.324555  ]
Minimum fftbox size, Smin = [  68  68  80  ]
Chosen fftbox size, S = [  70  70  80  ]

---------- Exchange Correlation functional ----------
Initalized PBEsol GGA exchange.
Initalized PBEsol GGA correlation.

---------- Setting up pseudopotentials ----------
Width of ionic core gaussian charges (only for fluid interactions / plotting) set to 0

Reading pseudopotential file '/home/rc652/build/pseudopotentials/GBRV/cu_pbesol.uspp':
  Title: Cu.  Created by USPP 7.3.6 on 3-2-2014
  Reference state energy: -200.900738.  19 valence electrons in orbitals:
    |300>  occupation: 2  eigenvalue: -5.009920
    |310>  occupation: 6  eigenvalue: -3.440538
    |320>  occupation: 8  eigenvalue: -0.926387
    |400>  occupation: 2  eigenvalue: -0.568765
    |410>  occupation: 0  eigenvalue: -0.325798
  lMax: 2  lLocal: 3  QijEcut: 6
  6 projectors sampled on a log grid with 613 points:
    l: 0  eig: -5.009920  rCut: 1.4
    l: 0  eig: -0.568765  rCut: 1.4
    l: 1  eig: -3.440538  rCut: 1.55
    l: 1  eig: -0.325798  rCut: 1.55
    l: 2  eig: -0.926387  rCut: 1.5
    l: 2  eig: 1.500000  rCut: 1.5
  Partial core density with radius 0.8
  Transforming core density to a uniform radial grid of dG=0.02 with 1312 points.
  Transforming local potential to a uniform radial grid of dG=0.02 with 1312 points.
  Transforming nonlocal projectors to a uniform radial grid of dG=0.02 with 432 points.
  Transforming density augmentations to a uniform radial grid of dG=0.02 with 1312 points.
  Transforming atomic orbitals to a uniform radial grid of dG=0.02 with 432 points.
  Core radius for overlap checks: 1.55 bohrs.

Reading pseudopotential file '/home/rc652/build/pseudopotentials/GBRV/o_pbesol.uspp':
  Title: O.  Created by USPP 7.3.6 on 3-2-2014
  Reference state energy: -15.849885.  6 valence electrons in orbitals:
    |200>  occupation: 2  eigenvalue: -0.873214
    |210>  occupation: 4  eigenvalue: -0.330058
  lMax: 2  lLocal: 2  QijEcut: 6
  5 projectors sampled on a log grid with 511 points:
    l: 0  eig: -0.873214  rCut: 1.25
    l: 0  eig: 0.000000  rCut: 1.25
    l: 1  eig: -0.330058  rCut: 1.25
    l: 1  eig: 0.000000  rCut: 1.25
    l: 2  eig: 1.000000  rCut: 1.25
  Partial core density with radius 0.7
  Transforming core density to a uniform radial grid of dG=0.02 with 1312 points.
  Transforming local potential to a uniform radial grid of dG=0.02 with 1312 points.
  Transforming nonlocal projectors to a uniform radial grid of dG=0.02 with 432 points.
  Transforming density augmentations to a uniform radial grid of dG=0.02 with 1312 points.
  Transforming atomic orbitals to a uniform radial grid of dG=0.02 with 432 points.
  Core radius for overlap checks: 1.25 bohrs.

Initialized 2 species with 71 total atoms.

Folded 1 k-points by 2x2x2 to 8 k-points.

---------- Setting up k-points, bands, fillings ----------
Adding inversion symmetry to k-mesh for non-inversion-symmetric unit cell.
Reduced to 4 k-points under symmetry. 
Computing the number of bands and number of electrons
Calculating initial fillings.
nElectrons: 894.000000   nBands: 608   nStates: 4

----- Setting up reduced wavefunction bases (one per k-point) -----
average nbasis = 22286.750 , ideal nbasis = 22278.074

---------- Setting up ewald sum ----------
Optimum gaussian width for ewald sums = 3.399747 bohr.
Real space sum over 343 unit cells with max indices [  3  3  3  ]
Reciprocal space sum over 7581 terms with max indices [  9  9  10  ]

---------- Allocating electronic variables ----------
Initializing wave functions:  linear combination of atomic orbitals
Cu pseudo-atom occupations:   s ( 2 1 )  p ( 6 0 )  d ( 10 )
O pseudo-atom occupations:   s ( 2 )  p ( 4 )
	FillingsUpdate:  mu: +0.500843401  nElectrons: 894.000000
LCAOMinimize: Iter:   0  F: -7330.2733579759760687  |grad|_K:  5.669e-02  alpha:  1.000e+00
	FillingsUpdate:  mu: +1.281277740  nElectrons: 894.000000
LCAOMinimize: Iter:   1  F: -7633.1698011575854252  |grad|_K:  2.578e-02  alpha:  5.118e-01  linmin:  7.228e-02  cgtest: -1.701e+00  t[s]:     85.77
	FillingsUpdate:  mu: +1.294986488  nElectrons: 894.000000
LCAOMinimize: Iter:   2  F: -7668.7436890506005511  |grad|_K:  2.090e-02  alpha:  1.330e-01  linmin:  3.010e-03  cgtest:  4.241e-01  t[s]:    113.81
LCAOMinimize: 	Predicted alpha/alphaT>3.000000, increasing alphaT to 3.989724e-01.
	FillingsUpdate:  mu: +1.218431487  nElectrons: 894.000000
LCAOMinimize: Iter:   3  F: -7759.9900503585877232  |grad|_K:  1.695e-02  alpha:  3.007e-01  linmin:  7.201e-03  cgtest: -1.649e-01  t[s]:    148.75
	FillingsUpdate:  mu: +1.111566453  nElectrons: 894.000000
LCAOMinimize: Iter:   4  F: -7773.2084907774578824  |grad|_K:  1.245e-02  alpha:  3.805e-02  linmin: -2.512e-02  cgtest:  2.377e-01  t[s]:    176.82
	FillingsUpdate:  mu: +1.129597226  nElectrons: 894.000000
LCAOMinimize: Iter:   5  F: -7776.4565989482944133  |grad|_K:  2.065e-02  alpha:  6.564e-02  linmin:  2.342e-02  cgtest: -3.943e-01  t[s]:    204.88
LCAOMinimize: 	Bad step direction: g.d > 0.
LCAOMinimize: 	Undoing step.
LCAOMinimize: 	Step failed: resetting search direction.
	FillingsUpdate:  mu: +1.129597226  nElectrons: 894.000000
LCAOMinimize: Iter:   6  F: -7776.4565989482944133  |grad|_K:  2.065e-02  alpha:  0.000e+00
	FillingsUpdate:  mu: +1.101266921  nElectrons: 894.000000
LCAOMinimize: Iter:   7  F: -7788.7209725914217415  |grad|_K:  1.149e-02  alpha:  3.895e-02  linmin:  5.454e-02  cgtest: -3.102e-01  t[s]:    253.83
	FillingsUpdate:  mu: +0.988364001  nElectrons: 894.000000
LCAOMinimize: Iter:   8  F: -7796.3242942335491534  |grad|_K:  1.242e-02  alpha:  9.803e-02  linmin: -1.186e-02  cgtest:  1.844e-01  t[s]:    281.82
	FillingsUpdate:  mu: +0.827600770  nElectrons: 894.000000
LCAOMinimize: Iter:   9  F: -7807.6899056355878201  |grad|_K:  1.017e-02  alpha:  7.774e-02  linmin:  1.373e-02  cgtest:  1.467e-02  t[s]:    309.78
	FillingsUpdate:  mu: +0.754846008  nElectrons: 894.000000
LCAOMinimize: Iter:  10  F: -7810.1986123623664753  |grad|_K:  7.917e-03  alpha:  2.762e-02  linmin: -2.780e-02  cgtest:  6.569e-01  t[s]:    337.84
	FillingsUpdate:  mu: +0.704992900  nElectrons: 894.000000
LCAOMinimize: Iter:  11  F: -7812.0600489569096680  |grad|_K:  5.977e-03  alpha:  4.413e-02  linmin:  9.536e-02  cgtest: -3.625e-01  t[s]:    365.83
	FillingsUpdate:  mu: +0.701661009  nElectrons: 894.000000
LCAOMinimize: Iter:  12  F: -7812.4512799961557903  |grad|_K:  6.663e-03  alpha:  2.161e-02  linmin: -1.150e-02  cgtest:  8.677e-01  t[s]:    393.89
	FillingsUpdate:  mu: +0.631806669  nElectrons: 894.000000
LCAOMinimize: Iter:  13  F: -7813.6842794691247036  |grad|_K:  3.581e-03  alpha:  3.635e-02  linmin: -2.062e-02  cgtest: -9.197e-02  t[s]:    421.82
	FillingsUpdate:  mu: +0.633253485  nElectrons: 894.000000
LCAOMinimize: Iter:  14  F: -7814.4770479941207668  |grad|_K:  3.525e-03  alpha:  7.260e-02  linmin: -4.637e-02  cgtest:  2.915e-02  t[s]:    449.90
	FillingsUpdate:  mu: +0.592492306  nElectrons: 894.000000
LCAOMinimize: Iter:  15  F: -7815.3292655953773647  |grad|_K:  2.780e-03  alpha:  7.753e-02  linmin: -6.070e-03  cgtest: -3.237e-01  t[s]:    477.88
	FillingsUpdate:  mu: +0.544812873  nElectrons: 894.000000
LCAOMinimize: Iter:  16  F: -7815.6161724438397869  |grad|_K:  1.507e-03  alpha:  4.537e-02  linmin: -5.589e-03  cgtest:  4.156e-01  t[s]:    505.81
	FillingsUpdate:  mu: +0.524245978  nElectrons: 894.000000
LCAOMinimize: Iter:  17  F: -7815.6717112198621180  |grad|_K:  5.762e-04  alpha:  3.311e-02  linmin: -3.490e-03  cgtest: -3.053e-02  t[s]:    533.86
LCAOMinimize: 	Predicted alpha/alphaT>3.000000, increasing alphaT to 9.932556e-02.
	FillingsUpdate:  mu: +0.522384955  nElectrons: 894.000000
LCAOMinimize: Iter:  18  F: -7815.6968071076580600  |grad|_K:  6.605e-04  alpha:  1.016e-01  linmin:  1.691e-03  cgtest: -7.059e-03  t[s]:    568.82
	FillingsUpdate:  mu: +0.512448269  nElectrons: 894.000000
LCAOMinimize: Iter:  19  F: -7815.7184817370061864  |grad|_K:  2.818e-04  alpha:  6.713e-02  linmin: -9.922e-05  cgtest:  7.039e-02  t[s]:    596.71
	FillingsUpdate:  mu: +0.511388538  nElectrons: 894.000000
LCAOMinimize: Iter:  20  F: -7815.7208638430065548  |grad|_K:  1.394e-04  alpha:  4.056e-02  linmin:  5.054e-04  cgtest:  2.501e-04  t[s]:    624.67
LCAOMinimize: 	Predicted alpha/alphaT>3.000000, increasing alphaT to 1.216949e-01.
	FillingsUpdate:  mu: +0.511405974  nElectrons: 894.000000
LCAOMinimize: Iter:  21  F: -7815.7228928962622376  |grad|_K:  1.865e-04  alpha:  1.410e-01  linmin:  2.238e-04  cgtest: -4.685e-03  t[s]:    659.92
	FillingsUpdate:  mu: +0.511088527  nElectrons: 894.000000
LCAOMinimize: Iter:  22  F: -7815.7246392387633023  |grad|_K:  9.207e-05  alpha:  6.751e-02  linmin: -5.890e-04  cgtest:  1.815e-02  t[s]:    688.25
	FillingsUpdate:  mu: +0.510913308  nElectrons: 894.000000
LCAOMinimize: Iter:  23  F: -7815.7248706872424009  |grad|_K:  3.883e-05  alpha:  3.673e-02  linmin: -9.151e-05  cgtest: -3.988e-03  t[s]:    716.29
LCAOMinimize: 	Predicted alpha/alphaT>3.000000, increasing alphaT to 1.101904e-01.
	FillingsUpdate:  mu: +0.510500391  nElectrons: 894.000000
LCAOMinimize: Iter:  24  F: -7815.7250484302630866  |grad|_K:  5.399e-05  alpha:  1.590e-01  linmin:  3.368e-04  cgtest:  1.046e-03  t[s]:    751.37
	FillingsUpdate:  mu: +0.510148612  nElectrons: 894.000000
LCAOMinimize: Iter:  25  F: -7815.7251982445768590  |grad|_K:  3.299e-05  alpha:  6.915e-02  linmin: -5.725e-04  cgtest:  1.508e-02  t[s]:    779.40
	FillingsUpdate:  mu: +0.510171479  nElectrons: 894.000000
LCAOMinimize: Iter:  26  F: -7815.7252450620999298  |grad|_K:  2.096e-05  alpha:  5.784e-02  linmin:  9.535e-05  cgtest: -5.365e-03  t[s]:    807.51
	FillingsUpdate:  mu: +0.510438637  nElectrons: 894.000000
LCAOMinimize: Iter:  27  F: -7815.7252962377569929  |grad|_K:  2.728e-05  alpha:  1.572e-01  linmin:  5.958e-05  cgtest:  2.701e-03  t[s]:    835.48
	FillingsUpdate:  mu: +0.510644877  nElectrons: 894.000000
LCAOMinimize: Iter:  28  F: -7815.7253283742884378  |grad|_K:  1.348e-05  alpha:  5.819e-02  linmin: -1.387e-04  cgtest:  5.742e-03  t[s]:    863.48
	FillingsUpdate:  mu: +0.510644102  nElectrons: 894.000000
LCAOMinimize: Iter:  29  F: -7815.7253335473405969  |grad|_K:  4.453e-06  alpha:  3.836e-02  linmin: -4.114e-06  cgtest: -3.087e-03  t[s]:    891.48
	FillingsUpdate:  mu: +0.510609923  nElectrons: 894.000000
LCAOMinimize: Iter:  30  F: -7815.7253351613644554  |grad|_K:  5.355e-06  alpha:  1.098e-01  linmin:  1.718e-04  cgtest: -4.108e-04  t[s]:    919.66
LCAOMinimize: None of the convergence criteria satisfied after 30 iterations.


---- Citations for features of the code used in this run ----

   Software package:
      R. Sundararaman, K. Letchworth-Weaver, K.A. Schwarz, D. Gunceler, Y. Ozhabes and T.A. Arias, 'JDFTx: software for joint density-functional theory', SoftwareX 6, 278 (2017)

   gga-PBEsol exchange-correlation functional:
      J.P. Perdew et al., Phys. Rev. Lett. 100, 136406 (2008)

   Pseudopotentials:
      KF Garrity, JW Bennett, KM Rabe and D Vanderbilt, Comput. Mater. Sci. 81, 446 (2014)

This list may not be complete. Please suggest additional citations or
report any other bugs at https://github.com/shankar1729/jdftx/issues

Initialization completed successfully at t[s]:    933.79


-------- Electronic minimization -----------
Will mix electronic density at each iteration.
	FillingsUpdate:  mu: +0.510609923  nElectrons: 894.000000
	FillingsUpdate:  mu: +0.497489441  nElectrons: 894.000000
SCF: Cycle:  0   F: -7809.926245172089693   dF: +5.799e+00   |Residual|: 4.363e+00   |deigs|: 3.722e-02  t[s]:   1060.42
	FillingsUpdate:  mu: +0.347182537  nElectrons: 894.000000
SCF: Cycle:  1   F: -7808.196600161374590   dF: +1.730e+00   |Residual|: 3.804e+00   |deigs|: 1.967e-01  t[s]:   1167.67
	FillingsUpdate:  mu: +0.391807386  nElectrons: 894.000000
SCF: Cycle:  2   F: -7821.421927363386203   dF: -1.323e+01   |Residual|: 6.814e-01   |deigs|: 1.030e-01  t[s]:   1275.07
	FillingsUpdate:  mu: +0.394466222  nElectrons: 894.000000
SCF: Cycle:  3   F: -7820.797135255762441   dF: +6.248e-01   |Residual|: 8.081e-01   |deigs|: 6.827e-03  t[s]:   1382.62
	FillingsUpdate:  mu: +0.394780929  nElectrons: 894.000000
SCF: Cycle:  4   F: -7821.984922744444702   dF: -1.188e+00   |Residual|: 3.091e-01   |deigs|: 2.700e-03  t[s]:   1490.01
	FillingsUpdate:  mu: +0.395759976  nElectrons: 894.000000
SCF: Cycle:  5   F: -7821.884196270966640   dF: +1.007e-01   |Residual|: 3.568e-01   |deigs|: 1.557e-03  t[s]:   1597.62
	FillingsUpdate:  mu: +0.395832424  nElectrons: 894.000000
SCF: Cycle:  6   F: -7822.032270596337185   dF: -1.481e-01   |Residual|: 1.768e-01   |deigs|: 1.610e-03  t[s]:   1705.36
	FillingsUpdate:  mu: +0.396048239  nElectrons: 894.000000
SCF: Cycle:  7   F: -7822.065124119670145   dF: -3.285e-02   |Residual|: 1.134e-01   |deigs|: 8.016e-04  t[s]:   1812.70
	FillingsUpdate:  mu: +0.396145570  nElectrons: 894.000000
SCF: Cycle:  8   F: -7822.083759842425934   dF: -1.864e-02   |Residual|: 3.039e-02   |deigs|: 8.030e-04  t[s]:   1875.74
	FillingsUpdate:  mu: +0.396241932  nElectrons: 894.000000
SCF: Cycle:  9   F: -7822.083918387882477   dF: -1.585e-04   |Residual|: 2.681e-02   |deigs|: 2.793e-04  t[s]:   1938.92
	FillingsUpdate:  mu: +0.396308650  nElectrons: 894.000000
SCF: Cycle: 10   F: -7822.084665441198922   dF: -7.471e-04   |Residual|: 1.521e-02   |deigs|: 2.526e-04  t[s]:   2002.06
	FillingsUpdate:  mu: +0.396436784  nElectrons: 894.000000
SCF: Cycle: 11   F: -7822.084861890015418   dF: -1.964e-04   |Residual|: 8.068e-03   |deigs|: 1.758e-04  t[s]:   2065.12
	FillingsUpdate:  mu: +0.396456556  nElectrons: 894.000000
SCF: Cycle: 12   F: -7822.084877361637155   dF: -1.547e-05   |Residual|: 7.551e-03   |deigs|: 1.122e-04  t[s]:   2128.35
	FillingsUpdate:  mu: +0.396440573  nElectrons: 894.000000
SCF: Cycle: 13   F: -7822.084959810489636   dF: -8.245e-05   |Residual|: 1.898e-03   |deigs|: 6.992e-05  t[s]:   2191.41
	FillingsUpdate:  mu: +0.396438727  nElectrons: 894.000000
SCF: Cycle: 14   F: -7822.084948050971434   dF: +1.176e-05   |Residual|: 3.330e-03   |deigs|: 4.346e-05  t[s]:   2254.50
	FillingsUpdate:  mu: +0.396445838  nElectrons: 894.000000
SCF: Cycle: 15   F: -7822.084963515237177   dF: -1.546e-05   |Residual|: 9.280e-04   |deigs|: 3.504e-05  t[s]:   2317.48
	FillingsUpdate:  mu: +0.396453488  nElectrons: 894.000000
SCF: Cycle: 16   F: -7822.084963853262707   dF: -3.380e-07   |Residual|: 7.518e-04   |deigs|: 1.460e-05  t[s]:   2380.54
	FillingsUpdate:  mu: +0.396454515  nElectrons: 894.000000
SCF: Cycle: 17   F: -7822.084963610029263   dF: +2.432e-07   |Residual|: 8.047e-04   |deigs|: 1.248e-05  t[s]:   2443.52
	FillingsUpdate:  mu: +0.396454926  nElectrons: 894.000000
SCF: Cycle: 18   F: -7822.084964498718364   dF: -8.887e-07   |Residual|: 3.770e-04   |deigs|: 8.988e-06  t[s]:   2506.52
	FillingsUpdate:  mu: +0.396453353  nElectrons: 894.000000
SCF: Cycle: 19   F: -7822.084964628820671   dF: -1.301e-07   |Residual|: 2.524e-04   |deigs|: 5.022e-06  t[s]:   2569.59
	FillingsUpdate:  mu: +0.396453896  nElectrons: 894.000000
SCF: Cycle: 20   F: -7822.084964715842034   dF: -8.702e-08   |Residual|: 9.218e-05   |deigs|: 2.988e-06  t[s]:   2632.90
	FillingsUpdate:  mu: +0.396453959  nElectrons: 894.000000
SCF: Cycle: 21   F: -7822.084964718161245   dF: -2.319e-09   |Residual|: 7.155e-05   |deigs|: 1.146e-06  t[s]:   2696.21
	FillingsUpdate:  mu: +0.396453909  nElectrons: 894.000000
SCF: Cycle: 22   F: -7822.084964721037977   dF: -2.877e-09   |Residual|: 6.265e-05   |deigs|: 1.112e-06  t[s]:   2759.13
SCF: Converged (|Delta E|<1.000000e-08 for 2 iters).

Setting wave functions to eigenvectors of Hamiltonian

# Ionic positions in lattice coordinates:
ion Cu  -0.011140000000000   0.174390000000000   0.003720000000000 1
ion Cu   0.167570000000000  -0.017460000000000   0.255770000000000 1
ion Cu   0.005380000000000   0.173760000000000   0.499740000000000 1
ion Cu   0.174640000000000   0.018370000000000   0.744950000000000 1
ion Cu  -0.003560000000000   0.493140000000000  -0.011110000000000 1
ion Cu   0.166870000000000   0.335820000000000   0.226290000000000 1
ion Cu   0.007840000000000   0.484010000000000   0.496160000000000 1
ion Cu   0.166370000000000   0.328750000000000   0.763340000000000 1
ion Cu   0.008510000000000   0.845300000000000  -0.004210000000000 1
ion Cu   0.159220000000000   0.659510000000000   0.244950000000000 1
ion Cu   0.014090000000000   0.830310000000000   0.501260000000000 1
ion Cu   0.171800000000000   0.672760000000000   0.754670000000000 1
ion Cu   0.326200000000000   0.165540000000000   0.012820000000000 1
ion Cu   0.510760000000000   0.011950000000000   0.251030000000000 1
ion Cu   0.337610000000000   0.163040000000000   0.489340000000000 1
ion Cu   0.501850000000000  -0.011670000000000   0.752460000000000 1
ion Cu   0.320200000000000   0.487010000000000   0.002340000000000 1
ion Cu   0.506450000000000   0.330660000000000   0.234680000000000 1
ion Cu   0.328980000000000   0.472710000000000   0.517730000000000 1
ion Cu   0.505820000000000   0.340940000000000   0.727790000000000 1
ion Cu   0.331680000000000   0.843830000000000  -0.003890000000000 1
ion Cu   0.493150000000000   0.672050000000000   0.247140000000000 1
ion Cu   0.345870000000000   0.816320000000000   0.504750000000000 1
ion Cu   0.498350000000000   0.660970000000000   0.757630000000000 1
ion Cu   0.668270000000000   0.167780000000000   0.009440000000000 1
ion Cu   0.834890000000000   0.004070000000000   0.239050000000000 1
ion Cu   0.663500000000000   0.171250000000000   0.494860000000000 1
ion Cu   0.840210000000000  -0.002670000000000   0.764020000000000 1
ion Cu   0.672280000000000   0.507350000000000  -0.006070000000000 1
ion Cu   0.824310000000000   0.335640000000000   0.243470000000000 1
ion Cu   0.671950000000000   0.511170000000000   0.486450000000000 1
ion Cu   0.847770000000000   0.334240000000000   0.753330000000000 1
ion Cu   0.660620000000000   0.830420000000000   0.002620000000000 1
ion Cu   0.846530000000000   0.665780000000000   0.260330000000000 1
ion Cu   0.659110000000000   0.829690000000000   0.506400000000000 1
ion Cu   0.833570000000000   0.662240000000000   0.743550000000000 1
ion O   0.018760000000000   0.329360000000000   0.116480000000000 1
ion O   0.326780000000000   0.006000000000000   0.390300000000000 1
ion O  -0.000270000000000   0.312950000000000   0.623490000000000 1
ion O   0.323130000000000  -0.000590000000000   0.874280000000000 1
ion O   0.003880000000000   0.658070000000000   0.122350000000000 1
ion O   0.324180000000000   0.327130000000000   0.359110000000000 1
ion O  -0.000780000000000   0.647700000000000   0.623780000000000 1
ion O   0.337850000000000   0.346380000000000   0.863920000000000 1
ion O   0.017070000000000   1.001560000000000   0.137970000000000 1
ion O   0.348600000000000   0.679540000000000   0.382930000000000 1
ion O  -0.008020000000000   0.991690000000000   0.620130000000000 1
ion O   0.341290000000000   0.676060000000000   0.879270000000000 1
ion O   0.343130000000000   0.321120000000000   0.118480000000000 1
ion O   0.645500000000000  -0.014810000000000   0.367490000000000 1
ion O   0.362980000000000   0.336410000000000   0.633870000000000 1
ion O   0.651380000000000  -0.006940000000000   0.897060000000000 1
ion O   0.332560000000000   0.649730000000000   0.138470000000000 1
ion O   0.653540000000000   0.339210000000000   0.366890000000000 1
ion O   0.331380000000000   0.665000000000000   0.618950000000000 1
ion O   0.658640000000000   0.338080000000000   0.870990000000000 1
ion O   0.332870000000000   0.996120000000000   0.124270000000000 1
ion O   0.661850000000000   0.689970000000000   0.376720000000000 1
ion O   0.324840000000000   0.992330000000000   0.620040000000000 1
ion O   0.662790000000000   0.678670000000000   0.874460000000000 1
ion O   0.678390000000000   0.324130000000000   0.127230000000000 1
ion O   0.981070000000000  -0.010670000000000   0.372450000000000 1
ion O   0.677740000000000   0.315510000000000   0.639930000000000 1
ion O   1.002120000000000   0.012740000000000   0.872860000000000 1
ion O   0.667280000000000   0.665480000000000   0.134520000000000 1
ion O   1.003620000000000   0.346140000000000   0.382070000000000 1
ion O   0.661700000000000   0.647100000000000   0.604140000000000 1
ion O   1.004430000000000   0.327640000000000   0.877990000000000 1
ion O   0.664250000000000   0.992380000000000   0.126170000000000 1
ion O   0.992360000000000   0.664000000000000   0.375680000000000 1
ion O   0.666800000000000   1.009110000000000   0.627540000000000 1

# Forces in Lattice coordinates:
force Cu   0.170220607785830  -0.778590774371079  -0.061076924564341 1
force Cu   0.317600622088159   0.158425317028673   0.450772282429753 1
force Cu  -0.158708076205125  -0.996414864587592  -0.630085194598109 1
force Cu  -0.580038578370955  -0.216895158415610  -0.007552340356028 1
force Cu   0.028341508584546   0.694518612781698   0.210849114251417 1
force Cu   0.477837545588994  -0.044009845177033   1.355122515331090 1
force Cu  -0.066618157414805   1.126269858503299   1.132031753285858 1
force Cu   0.123369198446460   0.009033090904573  -0.806402325377363 1
force Cu   0.000555050049977  -0.355737277690054   0.094325478950946 1
force Cu   0.336162313270434   0.046569323238060   0.592894556037315 1
force Cu  -0.288149961359070  -0.189558678350258  -0.014466897947958 1
force Cu  -0.291054563574654  -0.090748378501576   0.002995984802311 1
force Cu   0.057075215640589  -0.449923196713467  -1.230613842043748 1
force Cu  -1.380646619599962  -0.095954154487927  -0.649462669568215 1
force Cu  -0.002955723016037   0.796550561903874   0.916045420959989 1
force Cu  -0.138286029351268   0.124659217426856  -0.013773553864144 1
force Cu   0.198055893701747   0.620043098959520  -0.158561035117465 1
force Cu  -0.398907226719079   0.010669232629265   0.526426582551873 1
force Cu  -0.108924029320281   1.023705874421438  -1.350635096145425 1
force Cu   1.605151678377800   0.041723916373666   2.981298277967497 1
force Cu  -0.011877107335918  -0.577379396338767   0.360277917044027 1
force Cu   0.533886441063435   0.038699628900210   0.472160654640488 1
force Cu  -0.173820628872853   1.232287692039876   0.100349247278855 1
force Cu   0.090556546793457   0.044582346012312  -0.686427147784421 1
force Cu  -0.084436667591318  -0.111609444075912  -0.574623191194980 1
force Cu  -0.178786014365553  -0.151048355928899   0.393231620838382 1
force Cu  -0.002973502793898  -0.171352852503964   0.017826624075035 1
force Cu  -0.625843798632928  -0.030199961810140  -0.565391543573000 1
force Cu  -0.012664145884772  -0.187790046733841   0.215576192084235 1
force Cu   1.019001371026116   0.034946237528357   0.739217241338281 1
force Cu  -0.086265899944554  -1.134383133619437  -0.669217318327155 1
force Cu  -0.505620666933697  -0.078317112072120   0.087175099578898 1
force Cu   0.074511802274206  -0.317365660868411   0.560356230925663 1
force Cu  -1.012493895683334   0.082864089152351  -0.885600267677070 1
force Cu  -0.007558561100863   0.645570759572614   0.151116303065407 1
force Cu  -0.012572851062338  -0.000442369131015   0.154369767855528 1
force O  -0.851545679169162   0.176104330547841   0.143094870966559 1
force O   0.048841569928279  -1.000925636701876  -1.177441764748797 1
force O   0.309036197546090   0.583565211513665   0.662805610144341 1
force O   0.252387743823824   0.395477911717251  -0.067104946154177 1
force O  -0.271546706377426   0.101586653165133  -0.828808612398952 1
force O   0.127990138425886   0.100250658399339   0.136292279493631 1
force O   0.231227275151514   0.157177882165575   0.334604136045797 1
force O   0.214996466759365  -0.200651777187807   0.342273063676641 1
force O  -0.357881522979330   0.141452802778413  -0.692271513193470 1
force O  -0.315562637016420  -0.726727544113225  -0.702654973334454 1
force O   0.267989929609219   0.207668586503740   0.174395862225584 1
force O  -0.437653852206064  -0.156870850565059   0.218760122267807 1
force O   0.037672765854380   0.473417984864212   0.289789867997704 1
force O   1.019235904049210   0.252599158193559   1.120264834899671 1
force O  -2.055661217185940  -1.038535357889904  -1.462396203910418 1
force O   0.150212040779996   0.411309296426327  -0.849665808675601 1
force O  -0.230091969680623   0.029135694561687  -0.716953179812033 1
force O   0.206342700838706   0.036904244748783   0.481926767697893 1
force O   0.148635759114086  -0.468736991171089   0.621236371886194 1
force O   0.138779941089503  -0.017078160749502   0.125436890323175 1
force O   0.128673817149219  -0.087159460501797   0.586115316991138 1
force O   0.065249824211142  -0.334606105001717  -0.726299883493257 1
force O   0.397665439456126   0.052649769449540   0.072781057161261 1
force O   0.348724447341754  -0.158466505300758  -0.277388649773794 1
force O  -0.347264460192627   0.335171103832188  -0.840412972850739 1
force O   0.355757747964230   0.233910013385757   0.262118148321674 1
force O   0.488336994151718   0.161273467778794  -1.009676450795226 1
force O   0.269565362074632  -0.057981921703180   0.386336091556015 1
force O   0.149661512163572  -0.039511667242043  -0.243909279157739 1
force O  -0.113236071938974  -0.945167782868356  -1.509199286786740 1
force O  -0.079745257040836   0.698511058535927   1.482012991837534 1
force O  -0.259285111268333   0.165775784957270  -0.149271109398084 1
force O   0.178524085724909   0.102371034182032  -0.062749149260246 1
force O   0.786954696007562  -0.022290655157098   0.598626270971378 1
force O   0.092970882811504  -0.315336087690940   0.065805659374621 1

# Energy components:
   Eewald =    -4280.5245074135818868
       EH =     3168.7156294453770897
     Eloc =    -8300.3922903864804539
      Enl =     1405.8874658870126950
      Exc =     -815.5968446955357649
 Exc_core =        3.8184789212210672
       KE =      996.3316087336768305
-------------------------------------
     Etot =    -7821.7604595083084860
       TS =        0.3245052127293431
-------------------------------------
        F =    -7822.0849647210379771

IonicMinimize: Iter:   0  F: -7822.084964721037977  |grad|_K:  3.268e-02  t[s]:   2779.72

#--- Lowdin population analysis ---
# oxidation-state Cu +0.317 +0.331 +0.332 +0.317 +0.260 +0.321 +0.311 +0.315 +0.298 +0.325 +0.340 +0.299 +0.341 +0.317 +0.322 +0.350 +0.331 +0.324 +0.323 +0.295 +0.318 +0.323 +0.297 +0.328 +0.318 +0.324 +0.342 +0.334 +0.337 +0.331 +0.330 +0.318 +0.321 +0.325 +0.332 +0.283
# oxidation-state O -0.212 -0.224 -0.224 -0.231 -0.256 -0.273 -0.256 -0.250 -0.230 -0.246 -0.246 -0.235 -0.184 -0.226 -0.175 -0.230 -0.239 -0.248 -0.227 -0.266 -0.240 -0.207 -0.241 -0.228 -0.202 -0.246 -0.228 -0.228 -0.261 -0.234 -0.225 -0.195 -0.209 -0.220 -0.260


-------- Electronic minimization -----------
Will mix electronic density at each iteration.
	FillingsUpdate:  mu: +0.396453909  nElectrons: 894.000000
	FillingsUpdate:  mu: +0.397359238  nElectrons: 894.000000
SCF: Cycle:  0   F: -7820.026807780951458   dF: +7.061e-01   |Residual|: 9.266e-01   |deigs|: 2.224e-03  t[s]:   2927.05
	FillingsUpdate:  mu: +0.406588268  nElectrons: 894.000000
SCF: Cycle:  1   F: -7810.073780521101980   dF: +9.953e+00   |Residual|: 2.596e+00   |deigs|: 2.187e-02  t[s]:   3034.37
	FillingsUpdate:  mu: +0.396546042  nElectrons: 894.000000
SCF: Cycle:  2   F: -7820.842443777900371   dF: -1.077e+01   |Residual|: 9.149e-01   |deigs|: 1.848e-02  t[s]:   3141.80
	FillingsUpdate:  mu: +0.395983072  nElectrons: 894.000000
SCF: Cycle:  3   F: -7821.425077161849913   dF: -5.826e-01   |Residual|: 6.728e-01   |deigs|: 4.115e-03  t[s]:   3249.28
	FillingsUpdate:  mu: +0.396336099  nElectrons: 894.000000
SCF: Cycle:  4   F: -7821.910326902223460   dF: -4.852e-01   |Residual|: 4.035e-01   |deigs|: 2.351e-03  t[s]:   3356.91
	FillingsUpdate:  mu: +0.397000974  nElectrons: 894.000000
SCF: Cycle:  5   F: -7821.909054681985253   dF: +1.272e-03   |Residual|: 4.250e-01   |deigs|: 2.648e-03  t[s]:   3464.38
	FillingsUpdate:  mu: +0.396871095  nElectrons: 894.000000
SCF: Cycle:  6   F: -7822.168421976720310   dF: -2.594e-01   |Residual|: 1.313e-01   |deigs|: 1.465e-03  t[s]:   3571.98
	FillingsUpdate:  mu: +0.396157930  nElectrons: 894.000000
SCF: Cycle:  7   F: -7822.173402642081783   dF: -4.981e-03   |Residual|: 1.079e-01   |deigs|: 1.161e-03  t[s]:   3665.99
	FillingsUpdate:  mu: +0.395907213  nElectrons: 894.000000
SCF: Cycle:  8   F: -7822.186851746973844   dF: -1.345e-02   |Residual|: 5.685e-02   |deigs|: 8.263e-04  t[s]:   3769.04
	FillingsUpdate:  mu: +0.396266055  nElectrons: 894.000000
SCF: Cycle:  9   F: -7822.189878452310040   dF: -3.027e-03   |Residual|: 3.377e-02   |deigs|: 5.652e-04  t[s]:   3831.93
	FillingsUpdate:  mu: +0.396315406  nElectrons: 894.000000
SCF: Cycle: 10   F: -7822.191144101583632   dF: -1.266e-03   |Residual|: 1.766e-02   |deigs|: 2.464e-04  t[s]:   3894.86
	FillingsUpdate:  mu: +0.396295809  nElectrons: 894.000000
SCF: Cycle: 11   F: -7822.191550673596794   dF: -4.066e-04   |Residual|: 1.011e-02   |deigs|: 1.650e-04  t[s]:   3958.07
	FillingsUpdate:  mu: +0.396317339  nElectrons: 894.000000
SCF: Cycle: 12   F: -7822.191354924737425   dF: +1.957e-04   |Residual|: 1.493e-02   |deigs|: 1.604e-04  t[s]:   4021.24
	FillingsUpdate:  mu: +0.396320613  nElectrons: 894.000000
SCF: Cycle: 13   F: -7822.191659976004303   dF: -3.051e-04   |Residual|: 3.931e-03   |deigs|: 1.187e-04  t[s]:   4084.58
	FillingsUpdate:  mu: +0.396309781  nElectrons: 894.000000
SCF: Cycle: 14   F: -7822.191674597823294   dF: -1.462e-05   |Residual|: 3.458e-03   |deigs|: 4.837e-05  t[s]:   4147.63
	FillingsUpdate:  mu: +0.396310579  nElectrons: 894.000000
SCF: Cycle: 15   F: -7822.191685535525721   dF: -1.094e-05   |Residual|: 2.156e-03   |deigs|: 4.174e-05  t[s]:   4210.59
	FillingsUpdate:  mu: +0.396308640  nElectrons: 894.000000
SCF: Cycle: 16   F: -7822.191686505030702   dF: -9.695e-07   |Residual|: 2.080e-03   |deigs|: 2.795e-05  t[s]:   4273.86
	FillingsUpdate:  mu: +0.396312256  nElectrons: 894.000000
SCF: Cycle: 17   F: -7822.191692502418846   dF: -5.997e-06   |Residual|: 7.996e-04   |deigs|: 2.094e-05  t[s]:   4337.08
	FillingsUpdate:  mu: +0.396311840  nElectrons: 894.000000
SCF: Cycle: 18   F: -7822.191692836572656   dF: -3.342e-07   |Residual|: 5.541e-04   |deigs|: 9.927e-06  t[s]:   4400.29
	FillingsUpdate:  mu: +0.396308196  nElectrons: 894.000000
SCF: Cycle: 19   F: -7822.191692899130430   dF: -6.256e-08   |Residual|: 5.459e-04   |deigs|: 9.304e-06  t[s]:   4463.52
	FillingsUpdate:  mu: +0.396309273  nElectrons: 894.000000
SCF: Cycle: 20   F: -7822.191693105223749   dF: -2.061e-07   |Residual|: 4.008e-04   |deigs|: 6.971e-06  t[s]:   4526.70
	FillingsUpdate:  mu: +0.396309985  nElectrons: 894.000000
SCF: Cycle: 21   F: -7822.191693225615381   dF: -1.204e-07   |Residual|: 2.819e-04   |deigs|: 4.775e-06  t[s]:   4589.85
	FillingsUpdate:  mu: +0.396309991  nElectrons: 894.000000
SCF: Cycle: 22   F: -7822.191693298562313   dF: -7.295e-08   |Residual|: 1.810e-04   |deigs|: 3.206e-06  t[s]:   4652.98
	FillingsUpdate:  mu: +0.396309876  nElectrons: 894.000000
SCF: Cycle: 23   F: -7822.191693319801743   dF: -2.124e-08   |Residual|: 1.517e-04   |deigs|: 2.305e-06  t[s]:   4716.20
	FillingsUpdate:  mu: +0.396309785  nElectrons: 894.000000
SCF: Cycle: 24   F: -7822.191693340745587   dF: -2.094e-08   |Residual|: 8.425e-05   |deigs|: 1.894e-06  t[s]:   4779.49
	FillingsUpdate:  mu: +0.396309401  nElectrons: 894.000000
SCF: Cycle: 25   F: -7822.191693350607238   dF: -9.862e-09   |Residual|: 4.394e-05   |deigs|: 9.591e-07  t[s]:   4841.77
	FillingsUpdate:  mu: +0.396309467  nElectrons: 894.000000
SCF: Cycle: 26   F: -7822.191693350683636   dF: -7.640e-11   |Residual|: 4.182e-05   |deigs|: 6.665e-07  t[s]:   4901.52
SCF: Converged (|Delta E|<1.000000e-08 for 2 iters).

Setting wave functions to eigenvectors of Hamiltonian

# Ionic positions in lattice coordinates:
ion Cu  -0.010793697762647   0.172805877032089   0.003631370181188 1
ion Cu   0.168215757688910  -0.017138109843806   0.256429090120064 1
ion Cu   0.005057650538081   0.171733273689473   0.498819364320432 1
ion Cu   0.173459757838405   0.017928576243585   0.744939920655076 1
ion Cu  -0.003502420463688   0.494552936502203  -0.010802296525301 1
ion Cu   0.167840679992565   0.335728936318155   0.228272522438483 1
ion Cu   0.007703345183637   0.486300324230866   0.497815314860396 1
ion Cu   0.166622016943455   0.328769377204012   0.762159812673506 1
ion Cu   0.008510972788341   0.844576059920486  -0.004071523938269 1
ion Cu   0.159903334295464   0.659604124868543   0.245817176334713 1
ion Cu   0.013503692439888   0.829924265091452   0.501239420957611 1
ion Cu   0.171207780947272   0.672575298115510   0.754674860739886 1
ion Cu   0.326317541175250   0.164626008557413   0.011019669620808 1
ion Cu   0.507951509585818   0.011755269792755   0.250081392233425 1
ion Cu   0.337603075314416   0.164659697771433   0.490679568790524 1
ion Cu   0.501568689587104  -0.011416350656734   0.752439881279416 1
ion Cu   0.320603332726312   0.488271872022547   0.002107012971962 1
ion Cu   0.505637722382057   0.330681011338749   0.235450831172556 1
ion Cu   0.328760208191059   0.474794588822059   0.515752474595307 1
ion Cu   0.509082559349199   0.341021663592556   0.732150739723350 1
ion Cu   0.331655315024302   0.842654753078107  -0.003362062571861 1
ion Cu   0.494235796505519   0.672128295232579   0.247830273490069 1
ion Cu   0.345516467881352   0.818827255270004   0.504895602533712 1
ion Cu   0.498535115059710   0.661061561348631   0.756625375214444 1
ion Cu   0.668098882893508   0.167553581705755   0.008599379215005 1
ion Cu   0.834525741611125   0.003762158698517   0.239625850421963 1
ion Cu   0.663493920831946   0.170901327168318   0.494886315369153 1
ion Cu   0.838937258701969  -0.002730888112118   0.763193437762833 1
ion Cu   0.672253963345584   0.506967643455648  -0.005754276374533 1
ion Cu   0.826382565371934   0.335710434832064   0.244550496120620 1
ion Cu   0.671775071897618   0.508862603520427   0.485472178545894 1
ion Cu   0.846741094054343   0.334080449753847   0.753458285764218 1
ion Cu   0.660770907401935   0.829773594634977   0.003440308519189 1
ion Cu   0.844470926416698   0.665949475295545   0.259035186732749 1
ion Cu   0.659094593476311   0.831003404014883   0.506620394738635 1
ion Cu   0.833544259201752   0.662238922637192   0.743775933265631 1
ion O   0.017027205891482   0.329717999201562   0.116690225312663 1
ion O   0.326880615448422   0.003964790111250   0.388578146972341 1
ion O   0.000358161905238   0.314136689467628   0.624458871781783 1
ion O   0.323643730995219   0.000214839055441   0.874181048662457 1
ion O   0.003328506054225   0.658277649536435   0.121137385540106 1
ion O   0.324440311497420   0.327333857320398   0.359309191404718 1
ion O  -0.000309852149899   0.648019473629014   0.624269199985338 1
ion O   0.338287042369076   0.345971366651904   0.864420869084596 1
ion O   0.016342680909962   1.001848587142046   0.136957242756592 1
ion O   0.347958630331128   0.678062076207339   0.381903034490351 1
ion O  -0.007474847948805   0.992112408296438   0.620384654817285 1
ion O   0.340399216995264   0.675740468636722   0.879590853498061 1
ion O   0.343206428391145   0.322082959116842   0.118903474444765 1
ion O   0.647572630452328  -0.014297150517975   0.369127842302491 1
ion O   0.358798807120181   0.334298188472151   0.631733717045691 1
ion O   0.651686766570427  -0.006102033512174   0.895815990481507 1
ion O   0.332092708260843   0.649790104392547   0.137421106332541 1
ion O   0.653959314208145   0.339284565734814   0.367594958094253 1
ion O   0.331681628670137   0.664045533440993   0.619859489802830 1
ion O   0.658922255869205   0.338045137367390   0.871173433405601 1
ion O   0.333131128357024   0.995941987088446   0.125127663466388 1
ion O   0.661983594909191   0.689290049517797   0.375657510518034 1
ion O   0.325649100311077   0.992437130418508   0.620145986948590 1
ion O   0.663499894077024   0.678347969725467   0.874053876322659 1
ion O   0.677684499183673   0.324812934872962   0.126000215735567 1
ion O   0.981793638203246  -0.010194284351153   0.372832887153238 1
ion O   0.678734908736583   0.315839463459505   0.638451733519811 1
ion O   1.002668052079691   0.012621622571784   0.873425113189947 1
ion O   0.667584833873141   0.665399934028720   0.134162964075322 1
ion O   1.003391234892810   0.344218607754303   0.379862796218665 1
ion O   0.661536132326499   0.648519520561727   0.606307986874311 1
ion O   1.003902656415979   0.327977449304154   0.877771696190001 1
ion O   0.664613373694631   0.992588419465457   0.126077861020188 1
ion O   0.993960564553293   0.663954094051241   0.376555107678662 1
ion O   0.666989058128490   1.008468318632598   0.627636582919791 1

# Forces in Lattice coordinates:
force Cu   0.184640523941809  -0.642540441696180  -0.034206567991279 1
force Cu   0.200828566196347   0.155826638752140   0.333532193164721 1
force Cu  -0.155768737545511  -0.779458589729645  -0.462311233449718 1
force Cu  -0.511821633573046  -0.217515850950811  -0.009385667224965 1
force Cu   0.033132369010611   0.613850442881107   0.173696030898014 1
force Cu   0.292151594733456  -0.053488571542031   1.118169004509973 1
force Cu  -0.070345295586251   0.699759687291381   0.711841906595701 1
force Cu   0.148801923445787   0.012502750849407  -0.742004982040626 1
force Cu  -0.001447873899113  -0.357507640754466   0.084114951361013 1
force Cu   0.276084652950051   0.041320300856630   0.510993769475455 1
force Cu  -0.270937963344302  -0.156781093813847   0.008040869841071 1
force Cu  -0.280626722045692  -0.088423264720838   0.012490473825562 1
force Cu   0.071772081014230  -0.313480965228868  -1.041568971847330 1
force Cu  -1.024197746580480  -0.148319830030463  -0.342530302447651 1
force Cu  -0.017363244998664   0.519948994084135   0.697364303730133 1
force Cu  -0.134654020996585   0.126561858551607  -0.018095043260107 1
force Cu   0.192945027498599   0.558745155680775  -0.155549803079921 1
force Cu  -0.302999198707552   0.008748378424050   0.493599986988308 1
force Cu  -0.046110696612793   0.941087891637238  -1.191399802207044 1
force Cu   0.581535275559327   0.004734250454298   1.889288839557423 1
force Cu  -0.015728423169237  -0.493018268561505   0.338074274314975 1
force Cu   0.429571058348370   0.017368429577648   0.361844175755827 1
force Cu  -0.169142967294875   0.920090514603885   0.017003814850069 1
force Cu   0.069906492611372   0.044809474566559  -0.612836499776893 1
force Cu  -0.079090089516946  -0.106808406549395  -0.518412772988804 1
force Cu  -0.161200118651202  -0.145716908484814   0.388015032350637 1
force Cu  -0.001554085313848  -0.179247351119272   0.018195523457715 1
force Cu  -0.528764326380294  -0.022764117839378  -0.477873641751934 1
force Cu  -0.010984741089961  -0.166228864990291   0.209739754356476 1
force Cu   0.819934399688026   0.015012047981721   0.555905819646703 1
force Cu  -0.097441615238406  -0.789975545654357  -0.324600637110093 1
force Cu  -0.440122476497907  -0.077744724572501   0.068407189112128 1
force Cu   0.069594199737394  -0.222295952565482   0.421756133868701 1
force Cu  -0.753168800070331   0.073302486982101  -0.672694079020999 1
force Cu   0.000037066104887   0.484280964662997   0.086343450069364 1
force Cu   0.001659816123114   0.001205343872170   0.147918886499781 1
force O  -0.691696067053163   0.142434892029674   0.230385564697699 1
force O   0.089339550216129  -0.704580935059036  -0.887801143818507 1
force O   0.293181362151719   0.459345174346107   0.450003640064202 1
force O   0.225032664739915   0.332829266738343  -0.049814744834873 1
force O  -0.221835999575790   0.117937022735323  -0.707751638698814 1
force O   0.143565142208967   0.101759138774947   0.169337610430440 1
force O   0.210330245005730   0.193735930978359   0.373540752083432 1
force O   0.194465235259213  -0.193456705671757   0.303334336321585 1
force O  -0.301886281052624   0.126430454061385  -0.563035186667175 1
force O  -0.317856898079346  -0.592845644343062  -0.480817434916260 1
force O   0.248873794397148   0.182499944505951   0.167811650232437 1
force O  -0.384267104222848  -0.165424012068141   0.153308487228942 1
force O  -0.017220418151887   0.348110392585025   0.152769988311286 1
force O   0.748210358416297   0.313393391720372   0.769435253004277 1
force O  -1.113026481147356  -0.904649158784359  -0.644736213145716 1
force O   0.155418262440108   0.309934735473743  -0.749319075196488 1
force O  -0.160860342222270   0.056397232184467  -0.618546767097590 1
force O   0.196339371093289  -0.011288023149325   0.359938015489332 1
force O   0.155097337106208  -0.355054063905914   0.484435145001280 1
force O   0.175987319587686  -0.020703366999728   0.148441358676737 1
force O   0.101134854478308  -0.069866096924317   0.481762397509088 1
force O   0.067863862604143  -0.289593200191085  -0.552685721826195 1
force O   0.359977749088682   0.074112450061083   0.099892898643078 1
force O   0.313682032261136  -0.154249546857279  -0.237243776724056 1
force O  -0.234156872200472   0.334775797230542  -0.615361641790804 1
force O   0.337252297026805   0.212676817487190   0.221705176710424 1
force O   0.377776687679102   0.182358734442319  -0.905523923814840 1
force O   0.189050284091059  -0.086857646413540   0.293061735529667 1
force O   0.120798929999087  -0.046628957178998  -0.236251985758202 1
force O  -0.087269430699173  -0.629406779264598  -1.071635613182396 1
force O  -0.067189858858694   0.488283116601154   1.098329965409699 1
force O  -0.218004756471250   0.165645258876667  -0.110357617333104 1
force O   0.140557820680045   0.111144757594079  -0.021556439884944 1
force O   0.589924790906903  -0.022995044961963   0.374938167171948 1
force O   0.080551200227178  -0.283906556207550   0.076875759869584 1

# Energy components:
   Eewald =    -4286.9364879963704880
       EH =     3162.8796873317546670
     Eloc =    -8287.9376092870570574
      Enl =     1405.8043815994519719
      Exc =     -815.4877217078094418
 Exc_core =        3.8184770931472007
       KE =      995.9921759703076987
-------------------------------------
     Etot =    -7821.8670969965760378
       TS =        0.3245963541079617
-------------------------------------
        F =    -7822.1916933506836358

IonicMinimize: Iter:   1  F: -7822.191693350683636  |grad|_K:  2.413e-02  alpha:  5.482e-01  linmin: -9.803e-01  t[s]:   4921.86

#--- Lowdin population analysis ---
# oxidation-state Cu +0.317 +0.331 +0.334 +0.318 +0.259 +0.323 +0.315 +0.318 +0.297 +0.326 +0.341 +0.298 +0.342 +0.320 +0.324 +0.349 +0.330 +0.325 +0.325 +0.305 +0.319 +0.325 +0.301 +0.328 +0.318 +0.325 +0.341 +0.335 +0.338 +0.332 +0.332 +0.320 +0.322 +0.328 +0.331 +0.281
# oxidation-state O -0.217 -0.227 -0.227 -0.232 -0.256 -0.267 -0.251 -0.248 -0.232 -0.247 -0.245 -0.235 -0.189 -0.232 -0.197 -0.232 -0.239 -0.245 -0.229 -0.257 -0.238 -0.209 -0.238 -0.230 -0.209 -0.243 -0.228 -0.229 -0.255 -0.240 -0.232 -0.198 -0.210 -0.224 -0.257


-------- Electronic minimization -----------
Will mix electronic density at each iteration.
	FillingsUpdate:  mu: +0.396309467  nElectrons: 894.000000
	FillingsUpdate:  mu: +0.395037779  nElectrons: 894.000000
SCF: Cycle:  0   F: -7816.542571390790727   dF: +2.964e+00   |Residual|: 1.361e+00   |deigs|: 4.183e-03  t[s]:   5069.06
	FillingsUpdate:  mu: +0.423774184  nElectrons: 894.000000
SCF: Cycle:  1   F: -7793.276958496413499   dF: +2.327e+01   |Residual|: 3.887e+00   |deigs|: 3.613e-02  t[s]:   5176.67
	FillingsUpdate:  mu: +0.399627694  nElectrons: 894.000000
SCF: Cycle:  2   F: -7818.309524114774831   dF: -2.503e+01   |Residual|: 1.626e+00   |deigs|: 2.584e-02  t[s]:   5284.16
	FillingsUpdate:  mu: +0.395509539  nElectrons: 894.000000
SCF: Cycle:  3   F: -7821.281531250710032   dF: -2.972e+00   |Residual|: 8.237e-01   |deigs|: 1.457e-02  t[s]:   5391.42
	FillingsUpdate:  mu: +0.396155968  nElectrons: 894.000000
SCF: Cycle:  4   F: -7820.987639917847446   dF: +2.939e-01   |Residual|: 8.404e-01   |deigs|: 4.885e-03  t[s]:   5498.72
	FillingsUpdate:  mu: +0.396673390  nElectrons: 894.000000
SCF: Cycle:  5   F: -7821.924235594401580   dF: -9.366e-01   |Residual|: 4.929e-01   |deigs|: 5.172e-03  t[s]:   5606.17
	FillingsUpdate:  mu: +0.396954887  nElectrons: 894.000000
SCF: Cycle:  6   F: -7822.085732261862177   dF: -1.615e-01   |Residual|: 3.766e-01   |deigs|: 3.721e-03  t[s]:   5713.63
	FillingsUpdate:  mu: +0.396678445  nElectrons: 894.000000
SCF: Cycle:  7   F: -7822.195354482606490   dF: -1.096e-01   |Residual|: 2.735e-01   |deigs|: 1.745e-03  t[s]:   5820.52
	FillingsUpdate:  mu: +0.396133566  nElectrons: 894.000000
SCF: Cycle:  8   F: -7822.271776676735499   dF: -7.642e-02   |Residual|: 1.186e-01   |deigs|: 7.340e-04  t[s]:   5927.96
	FillingsUpdate:  mu: +0.395879812  nElectrons: 894.000000
SCF: Cycle:  9   F: -7822.264222384434106   dF: +7.554e-03   |Residual|: 1.472e-01   |deigs|: 7.162e-04  t[s]:   6034.82
	FillingsUpdate:  mu: +0.396041560  nElectrons: 894.000000
SCF: Cycle: 10   F: -7822.293468551771184   dF: -2.925e-02   |Residual|: 4.940e-02   |deigs|: 4.399e-04  t[s]:   6097.98
	FillingsUpdate:  mu: +0.396295551  nElectrons: 894.000000
SCF: Cycle: 11   F: -7822.296164786081135   dF: -2.696e-03   |Residual|: 2.926e-02   |deigs|: 4.282e-04  t[s]:   6161.00
	FillingsUpdate:  mu: +0.396346948  nElectrons: 894.000000
SCF: Cycle: 12   F: -7822.297110089712078   dF: -9.453e-04   |Residual|: 1.299e-02   |deigs|: 2.157e-04  t[s]:   6223.98
	FillingsUpdate:  mu: +0.396257877  nElectrons: 894.000000
SCF: Cycle: 13   F: -7822.297066535403246   dF: +4.355e-05   |Residual|: 1.252e-02   |deigs|: 1.858e-04  t[s]:   6287.18
	FillingsUpdate:  mu: +0.396265093  nElectrons: 894.000000
SCF: Cycle: 14   F: -7822.297279642609283   dF: -2.131e-04   |Residual|: 5.875e-03   |deigs|: 1.247e-04  t[s]:   6350.40
	FillingsUpdate:  mu: +0.396298028  nElectrons: 894.000000
SCF: Cycle: 15   F: -7822.297315027291916   dF: -3.538e-05   |Residual|: 3.545e-03   |deigs|: 7.827e-05  t[s]:   6413.82
	FillingsUpdate:  mu: +0.396292023  nElectrons: 894.000000
SCF: Cycle: 16   F: -7822.297309968080299   dF: +5.059e-06   |Residual|: 3.981e-03   |deigs|: 5.652e-05  t[s]:   6477.06
	FillingsUpdate:  mu: +0.396281760  nElectrons: 894.000000
SCF: Cycle: 17   F: -7822.297323848505584   dF: -1.388e-05   |Residual|: 2.308e-03   |deigs|: 4.114e-05  t[s]:   6540.03
	FillingsUpdate:  mu: +0.396281733  nElectrons: 894.000000
SCF: Cycle: 18   F: -7822.297329933083347   dF: -6.085e-06   |Residual|: 1.316e-03   |deigs|: 2.446e-05  t[s]:   6603.10
	FillingsUpdate:  mu: +0.396289080  nElectrons: 894.000000
SCF: Cycle: 19   F: -7822.297327838721685   dF: +2.094e-06   |Residual|: 1.576e-03   |deigs|: 2.141e-05  t[s]:   6666.17
	FillingsUpdate:  mu: +0.396283722  nElectrons: 894.000000
SCF: Cycle: 20   F: -7822.297330033393337   dF: -2.195e-06   |Residual|: 1.155e-03   |deigs|: 2.042e-05  t[s]:   6729.39
	FillingsUpdate:  mu: +0.396284791  nElectrons: 894.000000
SCF: Cycle: 21   F: -7822.297331717688394   dF: -1.684e-06   |Residual|: 4.989e-04   |deigs|: 1.227e-05  t[s]:   6792.39
	FillingsUpdate:  mu: +0.396284687  nElectrons: 894.000000
SCF: Cycle: 22   F: -7822.297330770675217   dF: +9.470e-07   |Residual|: 8.609e-04   |deigs|: 1.002e-05  t[s]:   6855.49
	FillingsUpdate:  mu: +0.396284205  nElectrons: 894.000000
SCF: Cycle: 23   F: -7822.297332078386717   dF: -1.308e-06   |Residual|: 2.008e-04   |deigs|: 8.066e-06  t[s]:   6918.53
	FillingsUpdate:  mu: +0.396284255  nElectrons: 894.000000
SCF: Cycle: 24   F: -7822.297332101948086   dF: -2.356e-08   |Residual|: 1.416e-04   |deigs|: 2.188e-06  t[s]:   6980.87
	FillingsUpdate:  mu: +0.396283985  nElectrons: 894.000000
SCF: Cycle: 25   F: -7822.297332127991467   dF: -2.604e-08   |Residual|: 5.865e-05   |deigs|: 1.579e-06  t[s]:   7044.20
	FillingsUpdate:  mu: +0.396284311  nElectrons: 894.000000
SCF: Cycle: 26   F: -7822.297332126519905   dF: +1.472e-09   |Residual|: 5.904e-05   |deigs|: 9.499e-07  t[s]:   7107.26
	FillingsUpdate:  mu: +0.396284342  nElectrons: 894.000000
SCF: Cycle: 27   F: -7822.297332129811366   dF: -3.291e-09   |Residual|: 3.842e-05   |deigs|: 7.747e-07  t[s]:   7167.95
	FillingsUpdate:  mu: +0.396284069  nElectrons: 894.000000
SCF: Cycle: 28   F: -7822.297332131079202   dF: -1.268e-09   |Residual|: 2.522e-05   |deigs|: 5.663e-07  t[s]:   7226.90
SCF: Converged (|Delta E|<1.000000e-08 for 2 iters).

Setting wave functions to eigenvectors of Hamiltonian

# Ionic positions in lattice coordinates:
ion Cu  -0.009871976697072   0.170167441053960   0.003574490947358 1
ion Cu   0.168813009541678  -0.016406008842060   0.257310830755405 1
ion Cu   0.004327019191862   0.168692050554175   0.497609863006371 1
ion Cu   0.171235349893861   0.016892482449780   0.744905707917126 1
ion Cu  -0.003330287309133   0.497223940351903  -0.010291831531822 1
ion Cu   0.168659339683306   0.335443057751055   0.231574006063650 1
ion Cu   0.007356676116092   0.488321796055570   0.499324250606529 1
ion Cu   0.167409206498896   0.328841416370532   0.759764175831995 1
ion Cu   0.008497737901899   0.842870957693900  -0.003805407456445 1
ion Cu   0.161030993279537   0.659783302284172   0.247383294296858 1
ion Cu   0.012268398361665   0.829278962743074   0.501317478774713 1
ion Cu   0.169905728583065   0.672161869081956   0.754739428608196 1
ion Cu   0.326706250434226   0.163555451403117   0.007874815254268 1
ion Cu   0.504172831904513   0.010890174802870   0.249587782507538 1
ion Cu   0.337475257542859   0.166284310124309   0.492582055930963 1
ion Cu   0.500939969407114  -0.010808944840475   0.752368523534723 1
ion Cu   0.321505712334686   0.490741049351090   0.001579868561568 1
ion Cu   0.504489362408834   0.330715267237834   0.237066777470425 1
ion Cu   0.328736601575281   0.479018622462076   0.512027006218629 1
ion Cu   0.508715148665184   0.340927734215164   0.736209498085844 1
ion Cu   0.331567822735194   0.840568050479146  -0.002253835803196 1
ion Cu   0.495958308086811   0.672144985980676   0.248823782072641 1
ion Cu   0.344727314154335   0.822246770962460   0.504768975707334 1
ion Cu   0.498806056143385   0.661276835798988   0.754691750743985 1
ion Cu   0.667740711857382   0.167061813805374   0.006951139363009 1
ion Cu   0.833812225279102   0.003084603754171   0.240941688563945 1
ion Cu   0.663490886596964   0.170025048764862   0.494949837015916 1
ion Cu   0.836721767828254  -0.002815440482182   0.761753456973432 1
ion Cu   0.672206385707121   0.506242751418669  -0.005049629537676 1
ion Cu   0.829670689853317   0.335719935620550   0.246046072309909 1
ion Cu   0.671277893294907   0.506160255305206   0.485121851696211 1
ion Cu   0.844849082791057   0.333712262444000   0.753652210313277 1
ion Cu   0.661085848036664   0.829006538819718   0.004577752023357 1
ion Cu   0.841684960725346   0.666269895588934   0.257204893790754 1
ion Cu   0.659118187409100   0.832812351853623   0.506772110875086 1
ion Cu   0.833595401767278   0.662249262696199   0.744267394384785 1
ion O   0.014227145876344   0.330291066725790   0.117671012203850 1
ion O   0.327430950204415   0.001523243061505   0.386180807000705 1
ion O   0.001702818471393   0.315939783368013   0.625527666629750 1
ion O   0.324630228697485   0.001605664585017   0.874047348830533 1
ion O   0.002427895055641   0.658889887867833   0.118984068293144 1
ion O   0.325170031979167   0.327821698350144   0.359960015276970 1
ion O   0.000625240080658   0.649051100866511   0.625630638667727 1
ion O   0.339147985223795   0.345073021976176   0.865372291267306 1
ion O   0.015080328297155   1.002404857451771   0.135316888820595 1
ion O   0.346441518590671   0.675653900770573   0.380749194937912 1
ion O  -0.006350460156972   0.992902634518498   0.620942742154769 1
ion O   0.338735504985866   0.674927467489802   0.879972538688323 1
ion O   0.342956886327794   0.323354503316825   0.119123949313381 1
ion O   0.650299737817836  -0.012622876104214   0.370984533300093 1
ion O   0.356389148130214   0.330407142675725   0.631330577845504 1
ion O   0.652443648441160  -0.004936622147512   0.893473746388488 1
ion O   0.331541381462102   0.650142982876382   0.135522910274128 1
ion O   0.654861402468239   0.339082882984023   0.368556902723000 1
ion O   0.332437561897396   0.662704155123677   0.621215245042154 1
ion O   0.659872234333379   0.337935249019222   0.871730970214141 1
ion O   0.333526677854180   0.995661580391089   0.126545195652690 1
ion O   0.662315443165649   0.688052255089077   0.374150203357362 1
ion O   0.327244960601201   0.992854827698393   0.620545891992789 1
ion O   0.664884575602162   0.677628314475176   0.873330659426490 1
ion O   0.676918739138705   0.326404321998151   0.124390688771514 1
ion O   0.983339932887980  -0.009248630006248   0.373500520428238 1
ion O   0.680195364230944   0.316773219191478   0.635583564011555 1
ion O   1.003320082218421   0.012119863603083   0.874221870060918 1
ion O   0.668071618704675   0.665157188658619   0.133371973152780 1
ion O   1.003057917213261   0.342193914162707   0.377162412627422 1
ion O   0.661253052154258   0.650195635469774   0.609218612641492 1
ion O   1.002992988316034   0.328764579837548   0.877480017697719 1
ion O   0.665165677572492   0.993143582385251   0.126094053216437 1
ion O   0.996162109885998   0.663842171366845   0.377343969837026 1
ion O   0.667333800685732   1.007214575788898   0.627924253376437 1

# Forces in Lattice coordinates:
force Cu   0.195319191245468  -0.405631869944937   0.003995255470899 1
force Cu   0.058421044263071   0.148616423037133   0.171028571100258 1
force Cu  -0.137018464399191  -0.504446585550502  -0.272602623463781 1
force Cu  -0.382946946904418  -0.212566902109295  -0.000338915319382 1
force Cu   0.038285217920214   0.462691222925287   0.108447150855493 1
force Cu   0.110797505500251  -0.059577143348104   0.799842920728928 1
force Cu  -0.062285411997662   0.378793404667462   0.407130691396904 1
force Cu   0.137159386563114   0.015059745021691  -0.589671168536114 1
force Cu  -0.005370776333498  -0.342117197056062   0.061450960763036 1
force Cu   0.201883281260352   0.032611885736336   0.363882963396671 1
force Cu  -0.237656141989826  -0.112810037131490   0.040326194888756 1
force Cu  -0.251369151744539  -0.084660571520960   0.028480668380670 1
force Cu   0.088664480768419  -0.158547610332201  -0.763572924329203 1
force Cu  -0.644981751117944  -0.178424858403128  -0.106581090170509 1
force Cu  -0.022987783093020   0.262745529917923   0.463617693609162 1
force Cu  -0.122019832264586   0.123944446585156  -0.022261681326317 1
force Cu   0.181012787730873   0.431003281750847  -0.144474401518117 1
force Cu  -0.183818570995148   0.007364112282561   0.396051398746926 1
force Cu   0.038111062979612   0.614620024566499  -0.794775617328071 1
force Cu   0.453482122355149  -0.033939361614564   1.293986342723599 1
force Cu  -0.020386518603907  -0.359195286161627   0.292826021379446 1
force Cu   0.267899015403052  -0.013839734823845   0.210260523234199 1
force Cu  -0.153881881801295   0.546717287212754  -0.040628251353771 1
force Cu   0.047438736576852   0.043347269919338  -0.466900998156111 1
force Cu  -0.066769967924800  -0.064351805689654  -0.404921825357509 1
force Cu  -0.119698789650272  -0.128421824927379   0.357883717783480 1
force Cu   0.008103346611019  -0.175613794070033   0.023634531368733 1
force Cu  -0.380547598963039  -0.013522929497471  -0.350721278784178 1
force Cu  -0.007666969731438  -0.133932374339658   0.179874470513887 1
force Cu   0.552493657203283  -0.004140328710114   0.331620252207117 1
force Cu  -0.096049916984889  -0.467249130735524  -0.025568284627457 1
force Cu  -0.345230060323980  -0.075114274013263   0.027563037222206 1
force Cu   0.063661442104345  -0.106240108858010   0.226483775318213 1
force Cu  -0.450685642545965   0.059118332966168  -0.455131597396683 1
force Cu   0.011020990627523   0.277956157798958   0.018127908889433 1
force Cu   0.024966882404463   0.004469325356443   0.142258682315621 1
force O  -0.510337897900435   0.083790127835067   0.262519089605249 1
force O   0.124501179810769  -0.416741155753418  -0.581868628592887 1
force O   0.244455069500869   0.314526257372335   0.233985440071011 1
force O   0.171521464632832   0.222238829149063  -0.033029977054705 1
force O  -0.148311576548400   0.144940050334046  -0.517392446738612 1
force O   0.154208376477031   0.100011250529647   0.237768924217495 1
force O   0.171891214004823   0.207751293434191   0.371208495535779 1
force O   0.111035652331155  -0.173618684450333   0.286314441148683 1
force O  -0.241171847590785   0.095796816698103  -0.381533834374743 1
force O  -0.296411634574833  -0.435093302821076  -0.265289903725861 1
force O   0.203615780574228   0.135723707893878   0.154894199383736 1
force O  -0.302458254148243  -0.164076619041994   0.049808782658082 1
force O  -0.079365401645877   0.217780646871175   0.023519387388014 1
force O   0.501238729657846   0.341479848551729   0.457181093230465 1
force O  -0.862701341197153  -0.537634444147734  -0.660398113973751 1
force O   0.155437682113669   0.177114841987531  -0.601715493982082 1
force O  -0.080633720033110   0.102319947540734  -0.454852873745561 1
force O   0.186437418596599  -0.067453250795701   0.207979799923018 1
force O   0.144845792454879  -0.216529164583424   0.315376775921795 1
force O   0.172409009272660  -0.023924492016153   0.117038217538439 1
force O   0.052441290301585  -0.039043355697857   0.311497207159713 1
force O   0.073113269129711  -0.230966877756153  -0.319311603843046 1
force O   0.290581486629260   0.097482814895365   0.133791966890889 1
force O   0.247718688355895  -0.146283951565203  -0.174702969584423 1
force O  -0.131626296227555   0.291545655611531  -0.360904509822537 1
force O   0.296400384830962   0.167170624076686   0.158327107273360 1
force O   0.149227832018366   0.221603538630344  -0.668900474890959 1
force O   0.081452608746708  -0.135144607421733   0.170263633830726 1
force O   0.077044904145438  -0.054161300125740  -0.221171841998378 1
force O  -0.048588001522062  -0.404661507004541  -0.682645383463087 1
force O  -0.055644188996199   0.326382107822251   0.720135502631970 1
force O  -0.148476172241855   0.158588053846405  -0.053937481979296 1
force O   0.080293415793287   0.121291133035810   0.017055274134979 1
force O   0.373574475686699  -0.024155380401111   0.159098331636044 1
force O   0.053723928425326  -0.230372132701059   0.079013712936268 1

# Energy components:
   Eewald =    -4294.5440427362609626
       EH =     3155.8694121359981182
     Eloc =    -8273.1024236068678874
      Enl =     1405.7196451694176176
      Exc =     -815.3722694688577803
 Exc_core =        3.8184740110487847
       KE =      995.6386173316898294
-------------------------------------
     Etot =    -7821.9725871638329409
       TS =        0.3247449672467059
-------------------------------------
        F =    -7822.2973321310792016

IonicMinimize: Iter:   2  F: -7822.297332131079202  |grad|_K:  1.681e-02  alpha:  3.743e-01  linmin: -9.716e-01  t[s]:   7247.18

#--- Lowdin population analysis ---
# oxidation-state Cu +0.318 +0.331 +0.335 +0.320 +0.259 +0.327 +0.319 +0.320 +0.294 +0.327 +0.341 +0.296 +0.342 +0.322 +0.326 +0.348 +0.330 +0.325 +0.331 +0.311 +0.321 +0.327 +0.306 +0.328 +0.320 +0.326 +0.339 +0.336 +0.338 +0.333 +0.334 +0.321 +0.324 +0.330 +0.330 +0.280
# oxidation-state O -0.223 -0.228 -0.231 -0.232 -0.255 -0.259 -0.246 -0.244 -0.235 -0.245 -0.243 -0.235 -0.198 -0.236 -0.210 -0.234 -0.240 -0.241 -0.231 -0.250 -0.236 -0.212 -0.236 -0.233 -0.217 -0.240 -0.234 -0.230 -0.247 -0.242 -0.239 -0.206 -0.213 -0.229 -0.251


-------- Electronic minimization -----------
Will mix electronic density at each iteration.
	FillingsUpdate:  mu: +0.396284069  nElectrons: 894.000000
	FillingsUpdate:  mu: +0.394845369  nElectrons: 894.000000
SCF: Cycle:  0   F: -7812.284949901666550   dF: +6.606e+00   |Residual|: 1.687e+00   |deigs|: 5.352e-03  t[s]:   7394.32
	FillingsUpdate:  mu: +0.432493875  nElectrons: 894.000000
SCF: Cycle:  1   F: -7787.407474390474817   dF: +2.488e+01   |Residual|: 4.344e+00   |deigs|: 5.150e-02  t[s]:   7501.77
	FillingsUpdate:  mu: +0.402832879  nElectrons: 894.000000
SCF: Cycle:  2   F: -7815.738337430519096   dF: -2.833e+01   |Residual|: 2.109e+00   |deigs|: 3.348e-02  t[s]:   7609.15
	FillingsUpdate:  mu: +0.394896216  nElectrons: 894.000000
SCF: Cycle:  3   F: -7820.897148169683533   dF: -5.159e+00   |Residual|: 1.012e+00   |deigs|: 2.228e-02  t[s]:   7716.78
	FillingsUpdate:  mu: +0.396190066  nElectrons: 894.000000
SCF: Cycle:  4   F: -7821.224743592482810   dF: -3.276e-01   |Residual|: 8.087e-01   |deigs|: 8.643e-03  t[s]:   7824.46
	FillingsUpdate:  mu: +0.399182754  nElectrons: 894.000000
SCF: Cycle:  5   F: -7821.395912175618832   dF: -1.712e-01   |Residual|: 7.636e-01   |deigs|: 6.087e-03  t[s]:   7932.16
	FillingsUpdate:  mu: +0.397842237  nElectrons: 894.000000
SCF: Cycle:  6   F: -7821.894002529486897   dF: -4.981e-01   |Residual|: 5.445e-01   |deigs|: 3.023e-03  t[s]:   8039.76
	FillingsUpdate:  mu: +0.395203749  nElectrons: 894.000000
SCF: Cycle:  7   F: -7822.324840094807769   dF: -4.308e-01   |Residual|: 1.975e-01   |deigs|: 4.167e-03  t[s]:   8147.02
	FillingsUpdate:  mu: +0.396233044  nElectrons: 894.000000
SCF: Cycle:  8   F: -7822.289907818651955   dF: +3.493e-02   |Residual|: 2.180e-01   |deigs|: 1.820e-03  t[s]:   8254.82
	FillingsUpdate:  mu: +0.396608784  nElectrons: 894.000000
SCF: Cycle:  9   F: -7822.361371943416998   dF: -7.146e-02   |Residual|: 1.012e-01   |deigs|: 8.647e-04  t[s]:   8362.54
	FillingsUpdate:  mu: +0.396382564  nElectrons: 894.000000
SCF: Cycle: 10   F: -7822.376058764872141   dF: -1.469e-02   |Residual|: 4.848e-02   |deigs|: 5.102e-04  t[s]:   8425.54
	FillingsUpdate:  mu: +0.396378874  nElectrons: 894.000000
SCF: Cycle: 11   F: -7822.377936688946647   dF: -1.878e-03   |Residual|: 3.514e-02   |deigs|: 4.128e-04  t[s]:   8488.67
	FillingsUpdate:  mu: +0.396419871  nElectrons: 894.000000
SCF: Cycle: 12   F: -7822.378647962676041   dF: -7.113e-04   |Residual|: 2.058e-02   |deigs|: 2.466e-04  t[s]:   8551.82
	FillingsUpdate:  mu: +0.396446188  nElectrons: 894.000000
SCF: Cycle: 13   F: -7822.378729762172952   dF: -8.180e-05   |Residual|: 2.140e-02   |deigs|: 2.205e-04  t[s]:   8614.87
	FillingsUpdate:  mu: +0.396458050  nElectrons: 894.000000
SCF: Cycle: 14   F: -7822.379050461449879   dF: -3.207e-04   |Residual|: 1.452e-02   |deigs|: 2.005e-04  t[s]:   8677.99
	FillingsUpdate:  mu: +0.396469011  nElectrons: 894.000000
SCF: Cycle: 15   F: -7822.379373139262498   dF: -3.227e-04   |Residual|: 6.385e-03   |deigs|: 1.212e-04  t[s]:   8741.23
	FillingsUpdate:  mu: +0.396454149  nElectrons: 894.000000
SCF: Cycle: 16   F: -7822.379296412985241   dF: +7.673e-05   |Residual|: 9.297e-03   |deigs|: 9.690e-05  t[s]:   8804.34
	FillingsUpdate:  mu: +0.396468417  nElectrons: 894.000000
SCF: Cycle: 17   F: -7822.379423024605785   dF: -1.266e-04   |Residual|: 3.183e-03   |deigs|: 7.709e-05  t[s]:   8867.50
	FillingsUpdate:  mu: +0.396466457  nElectrons: 894.000000
SCF: Cycle: 18   F: -7822.379431862726051   dF: -8.838e-06   |Residual|: 2.345e-03   |deigs|: 4.001e-05  t[s]:   8930.53
	FillingsUpdate:  mu: +0.396470505  nElectrons: 894.000000
SCF: Cycle: 19   F: -7822.379432162975718   dF: -3.002e-07   |Residual|: 2.250e-03   |deigs|: 3.212e-05  t[s]:   8993.30
	FillingsUpdate:  mu: +0.396471808  nElectrons: 894.000000
SCF: Cycle: 20   F: -7822.379438784068043   dF: -6.621e-06   |Residual|: 8.532e-04   |deigs|: 2.232e-05  t[s]:   9056.49
	FillingsUpdate:  mu: +0.396467993  nElectrons: 894.000000
SCF: Cycle: 21   F: -7822.379438370892785   dF: +4.132e-07   |Residual|: 1.001e-03   |deigs|: 1.508e-05  t[s]:   9119.62
	FillingsUpdate:  mu: +0.396467789  nElectrons: 894.000000
SCF: Cycle: 22   F: -7822.379438889686753   dF: -5.188e-07   |Residual|: 8.290e-04   |deigs|: 1.241e-05  t[s]:   9182.72
	FillingsUpdate:  mu: +0.396468435  nElectrons: 894.000000
SCF: Cycle: 23   F: -7822.379439865032509   dF: -9.753e-07   |Residual|: 2.196e-04   |deigs|: 7.403e-06  t[s]:   9245.73
	FillingsUpdate:  mu: +0.396469338  nElectrons: 894.000000
SCF: Cycle: 24   F: -7822.379439894111783   dF: -2.908e-08   |Residual|: 1.517e-04   |deigs|: 2.816e-06  t[s]:   9308.80
	FillingsUpdate:  mu: +0.396468995  nElectrons: 894.000000
SCF: Cycle: 25   F: -7822.379439868178451   dF: +2.593e-08   |Residual|: 1.974e-04   |deigs|: 2.555e-06  t[s]:   9371.66
	FillingsUpdate:  mu: +0.396468875  nElectrons: 894.000000
SCF: Cycle: 26   F: -7822.379439915972398   dF: -4.779e-08   |Residual|: 9.266e-05   |deigs|: 2.261e-06  t[s]:   9434.65
	FillingsUpdate:  mu: +0.396468742  nElectrons: 894.000000
SCF: Cycle: 27   F: -7822.379439924638973   dF: -8.667e-09   |Residual|: 6.487e-05   |deigs|: 1.166e-06  t[s]:   9497.81
	FillingsUpdate:  mu: +0.396468865  nElectrons: 894.000000
SCF: Cycle: 28   F: -7822.379439927693056   dF: -3.054e-09   |Residual|: 4.462e-05   |deigs|: 7.927e-07  t[s]:   9559.35
SCF: Converged (|Delta E|<1.000000e-08 for 2 iters).

Setting wave functions to eigenvectors of Hamiltonian

# Ionic positions in lattice coordinates:
ion Cu  -0.008016475420364   0.167851060359008   0.003768600108988 1
ion Cu   0.168428111058661  -0.015096040164712   0.257706595976715 1
ion Cu   0.003171353571060   0.165859749343744   0.496734164461245 1
ion Cu   0.168487591138057   0.014982625301758   0.744929931363694 1
ion Cu  -0.002948243911588   0.500566913056221  -0.009856003371596 1
ion Cu   0.168395828497398   0.334847744851224   0.235368857404012 1
ion Cu   0.006814848904940   0.489250531664404   0.500239104577293 1
ion Cu   0.168676552586000   0.329000509894971   0.756501935054358 1
ion Cu   0.008426725645863   0.839826639579298  -0.003491017616719 1
ion Cu   0.162386431187905   0.660026557444399   0.249152322234079 1
ion Cu   0.010298767572472   0.828528235073903   0.501723546503281 1
ion Cu   0.167776504620885   0.671415151430676   0.754993712929912 1
ion Cu   0.327624525955036   0.163140804842138   0.004101447060821 1
ion Cu   0.500881445073410   0.009001741671734   0.250207503432294 1
ion Cu   0.337202628069710   0.166834730494681   0.494473657304065 1
ion Cu   0.499896393940140  -0.009690876068831   0.752202236626662 1
ion Cu   0.323084932462581   0.493948678517114   0.000673857539362 1
ion Cu   0.503580940277792   0.330768676170752   0.239292566200250 1
ion Cu   0.329609874954923   0.483002675088955   0.508346988018171 1
ion Cu   0.509504002663596   0.340353026592645   0.740719459250783 1
ion Cu   0.331351391883945   0.838098560219308  -0.000521864973985 1
ion Cu   0.497426261131849   0.671829672345888   0.249521824576430 1
ion Cu   0.343409073853401   0.824791040913192   0.504166375453838 1
ion Cu   0.499088187625560   0.661666101812792   0.752229545523732 1
ion Cu   0.667203155448429   0.166670460766593   0.004762356396004 1
ion Cu   0.832946539273171   0.002004361400376   0.243176455590133 1
ion Cu   0.663608610349266   0.168425247037409   0.495122017522097 1
ion Cu   0.834156997563043  -0.002878419907280   0.760021695516554 1
ion Cu   0.672154500564374   0.505220601280442  -0.003977049715288 1
ion Cu   0.833018593999044   0.335546792289699   0.247172590259476 1
ion Cu   0.670380885629486   0.504210267701748   0.486532664706360 1
ion Cu   0.842293673413380   0.333042771981655   0.753674024375307 1
ion Cu   0.661624692271140   0.828787189997295   0.005195033384571 1
ion Cu   0.839572357868828   0.666721552661680   0.255309364391731 1
ion Cu   0.659285325884311   0.834029499127426   0.506557131230095 1
ion Cu   0.833957751156789   0.662306817886768   0.745165504036563 1
ion O   0.010791776328996   0.330711211985424   0.119653016964783 1
ion O   0.328819757821792  -0.000242356862665   0.383874350045139 1
ion O   0.003672763574790   0.317847031678115   0.625984087850912 1
ion O   0.325887683292225   0.002987193879201   0.873914769180667 1
ion O   0.001528491710716   0.660363887043272   0.116419356272264 1
ion O   0.326654596083379   0.328723867454645   0.361780751844295 1
ion O   0.001964743226384   0.651091446511212   0.628119410609772 1
ion O   0.339748068955763   0.343599079118673   0.867113118248538 1
ion O   0.013301179519901   1.003105252071904   0.133628722663082 1
ion O   0.343836876729043   0.672732689557732   0.380105722740501 1
ion O  -0.004745791095795   0.993868080659489   0.621899871306813 1
ion O   0.336480297702390   0.673420943832905   0.879859512680628 1
ion O   0.341827732323564   0.324442465959045   0.118619584273607 1
ion O   0.653072993112537  -0.009243494380565   0.372335437015906 1
ion O   0.352179317123118   0.327434909809140   0.628578760724255 1
ion O   0.653870765729000  -0.004160368393224   0.890188530101591 1
ion O   0.331336821406197   0.651339230699144   0.133241212805270 1
ion O   0.656483354458254   0.338103575185392   0.369216404727348 1
ion O   0.333725039417775   0.661628762469575   0.622495071048521 1
ion O   0.661521887277869   0.337693984212325   0.872443949367978 1
ion O   0.333722335001452   0.995482200846036   0.127859658775838 1
ion O   0.663008607999668   0.686325906167780   0.373111172768073 1
ion O   0.329486704848592   0.993894389228210   0.621572045386542 1
ion O   0.666760430647454   0.676346692252905   0.872457758673402 1
ion O   0.676463693585223   0.328866988188906   0.123242734917385 1
ion O   0.985806572652396  -0.007981657480714   0.374261007236773 1
ion O   0.680293054083473   0.319007658989732   0.632135900855618 1
[...]
force Cu   0.000706939649000   0.003450020593922   0.000498465589629 1
force Cu  -0.004259330497808  -0.001000408253060   0.002068968852784 1
force Cu  -0.002025528572498   0.003056101588388   0.008246041795172 1
force Cu  -0.003715160335866  -0.001306367120409  -0.002938794827736 1
force Cu   0.000427437928762   0.003255884418632  -0.007013586283417 1
force Cu  -0.002386842507482   0.001935673850975  -0.002035369528470 1
force Cu   0.002484766438822  -0.009657121262627   0.007058508618293 1
force Cu   0.007831983279189   0.000675312514548  -0.000779842013360 1
force Cu   0.002226102342233  -0.003960469273641  -0.003004316102951 1
force Cu   0.013713233458059   0.003808757284544   0.015418087602971 1
force Cu  -0.001207537339166   0.012104123474515   0.002515850275181 1
force Cu  -0.001399934672276  -0.001623696693443   0.001739408443193 1
force Cu   0.000875980215611  -0.005563330240737  -0.003233049031493 1
force Cu  -0.002616344436445   0.001626423670479   0.003026962982899 1
force Cu  -0.001295739414905  -0.005922879289506  -0.001671132737580 1
force Cu  -0.000102707362135   0.001193034228896  -0.001622424808514 1
force Cu   0.000454442377527  -0.006980492124395   0.002769040101369 1
force Cu  -0.005004133285037  -0.000844315622327  -0.008465908346650 1
force Cu  -0.002551817733811  -0.006219782763519   0.001458673838434 1
force Cu  -0.008185553432461   0.000239008281342  -0.000958376873818 1
force Cu   0.000692961126467   0.006191899523247   0.000998721573986 1
force Cu  -0.006034240428130  -0.001735187455232   0.001332108631210 1
force Cu   0.001890514998682  -0.002896966292925   0.002570435226462 1
force Cu   0.006143020847304  -0.000826207596690  -0.001176649226361 1
force Cu  -0.000157684967398  -0.003420535351118   0.002987238529034 1
force Cu   0.008785613933478  -0.000004351911771   0.003234772267165 1
force Cu   0.003180888084525   0.006102288628537  -0.002748142687574 1
force Cu  -0.003681316743160  -0.002836557421319  -0.002711187466980 1
force Cu   0.000070307841624   0.000249064598485   0.006999202595626 1
force Cu   0.005861575062656   0.001922547170298   0.000416292355315 1
force Cu   0.002229017387060  -0.003294209366329  -0.000424833009448 1
force Cu  -0.000428069868349   0.000640305196590   0.001833077061996 1
force Cu   0.000828811648193   0.005154444678374   0.000664331507202 1
force Cu   0.006244295932801   0.001189052592872  -0.001171118572664 1
force O   0.000898857063031  -0.001959217484564   0.001631250942603 1
force O   0.002482091353358   0.000648400189904   0.003574919306720 1
force O  -0.002444774221923   0.000971753758073   0.000983708654780 1
force O   0.001558986808810  -0.000912628299989  -0.003802652678464 1
force O  -0.000098527114584   0.000399200574895  -0.006998677208714 1
force O   0.000955701244805   0.002891870963252  -0.000996461259566 1
force O  -0.008900166215968   0.001200618958303  -0.009271159713219 1
force O  -0.002108251251297  -0.003059497230884   0.002074362444638 1
force O  -0.000845810108354  -0.000350928947265   0.005674369430424 1
force O   0.002560308753452   0.001981305675334  -0.006126407417450 1
force O  -0.000600541832993   0.000569306611981   0.006887224356625 1
force O  -0.004338058357782   0.000315823847037  -0.006317750288334 1
force O  -0.002498693940328  -0.003030663678784  -0.003870991496042 1
force O  -0.000540343670069  -0.003495933363421   0.004851826208543 1
force O   0.001992301380991   0.006893295333043  -0.002066441781886 1
force O   0.000024950488514   0.000453060248411   0.005534434446958 1
force O  -0.003927958107962   0.001413068963862   0.007155530058885 1
force O  -0.000220023069167   0.000230522666770  -0.003277097876871 1
force O   0.000622577471905   0.001853237629749   0.009148346394966 1
force O  -0.006774812667805  -0.003546012753669  -0.004351743473347 1
force O   0.002473115248121   0.001504718986735   0.006125233286077 1
force O   0.000890735282623  -0.002389387863713  -0.001289529025163 1
force O   0.001112384002075   0.000997549136484  -0.005694241907110 1
force O   0.000182868816951  -0.000851918395983   0.007807877266628 1
force O   0.002931254610858  -0.002827024086834   0.003995013170007 1
force O   0.000290139285022   0.001685940579420  -0.003929097585746 1
force O  -0.003997526979798   0.003839409971995  -0.002432785149015 1
force O   0.001955237655549   0.001228385433922  -0.010127978936713 1
force O   0.003231920113721  -0.000681218680067  -0.006540231278395 1
force O  -0.000795630842476   0.001001102012861   0.002940042838736 1
force O   0.001217847078068  -0.005066680331007  -0.003971799427609 1
force O  -0.002142605432587  -0.005195001790881  -0.004018504325212 1
force O   0.000529378272726   0.000462807274265  -0.001779300094278 1
force O  -0.004679000460926   0.003358683577638   0.003127064762543 1
force O   0.001172355944713   0.000402519624168  -0.005658201813886 1

# Energy components:
   Eewald =    -4310.6629772003307153
       EH =     3140.4483255380637274
     Eloc =    -8241.1768472936219041
      Enl =     1405.5544490323254649
      Exc =     -815.1811729925824466
 Exc_core =        3.8184643895139332
       KE =      995.0414075455878447
-------------------------------------
     Etot =    -7822.1583509810425312
       TS =        0.3241572748884886
-------------------------------------
        F =    -7822.4825082559309521

IonicMinimize: Iter:  17  F: -7822.482508255930952  |grad|_K:  2.291e-04  alpha:  1.000e+00  linmin:  1.527e-01  t[s]:  34493.21

#--- Lowdin population analysis ---
# oxidation-state Cu +0.331 +0.330 +0.330 +0.332 +0.262 +0.330 +0.339 +0.332 +0.263 +0.339 +0.339 +0.262 +0.332 +0.331 +0.331 +0.332 +0.332 +0.330 +0.330 +0.333 +0.332 +0.331 +0.330 +0.331 +0.332 +0.330 +0.331 +0.332 +0.332 +0.330 +0.331 +0.332 +0.332 +0.339 +0.330 +0.262
# oxidation-state O -0.244 -0.236 -0.233 -0.234 -0.236 -0.236 -0.235 -0.234 -0.244 -0.233 -0.232 -0.233 -0.235 -0.236 -0.235 -0.234 -0.233 -0.236 -0.244 -0.234 -0.234 -0.233 -0.234 -0.233 -0.235 -0.233 -0.235 -0.233 -0.232 -0.233 -0.244 -0.232 -0.234 -0.250 -0.234


-------- Electronic minimization -----------
Will mix electronic density at each iteration.
	FillingsUpdate:  mu: +0.396834753  nElectrons: 894.000000
	FillingsUpdate:  mu: +0.396838015  nElectrons: 894.000000
SCF: Cycle:  0   F: -7822.482342815028460   dF: +1.687e-04   |Residual|: 7.469e-03   |deigs|: 9.985e-08  t[s]:  34597.51
	FillingsUpdate:  mu: +0.396828707  nElectrons: 894.000000
SCF: Cycle:  1   F: -7822.479979863029257   dF: +2.363e-03   |Residual|: 3.501e-02   |deigs|: 2.419e-04  t[s]:  34659.13
	FillingsUpdate:  mu: +0.396832825  nElectrons: 894.000000
SCF: Cycle:  2   F: -7822.482523891981145   dF: -2.544e-03   |Residual|: 2.192e-03   |deigs|: 2.303e-04  t[s]:  34720.99
	FillingsUpdate:  mu: +0.396835137  nElectrons: 894.000000
SCF: Cycle:  3   F: -7822.482523401029539   dF: +4.910e-07   |Residual|: 2.151e-03   |deigs|: 2.826e-05  t[s]:  34782.70
	FillingsUpdate:  mu: +0.396834415  nElectrons: 894.000000
SCF: Cycle:  4   F: -7822.482529932984107   dF: -6.532e-06   |Residual|: 6.905e-04   |deigs|: 1.942e-05  t[s]:  34844.43
	FillingsUpdate:  mu: +0.396834968  nElectrons: 894.000000
SCF: Cycle:  5   F: -7822.482529170088128   dF: +7.629e-07   |Residual|: 9.778e-04   |deigs|: 7.900e-06  t[s]:  34906.29
	FillingsUpdate:  mu: +0.396835218  nElectrons: 894.000000
SCF: Cycle:  6   F: -7822.482530536152808   dF: -1.366e-06   |Residual|: 2.344e-04   |deigs|: 6.935e-06  t[s]:  34967.90
	FillingsUpdate:  mu: +0.396834960  nElectrons: 894.000000
SCF: Cycle:  7   F: -7822.482530380843855   dF: +1.553e-07   |Residual|: 3.671e-04   |deigs|: 3.228e-06  t[s]:  35029.77
	FillingsUpdate:  mu: +0.396835011  nElectrons: 894.000000
SCF: Cycle:  8   F: -7822.482530581883111   dF: -2.010e-07   |Residual|: 1.014e-04   |deigs|: 3.022e-06  t[s]:  35091.61
	FillingsUpdate:  mu: +0.396835153  nElectrons: 894.000000
SCF: Cycle:  9   F: -7822.482530580543425   dF: +1.340e-09   |Residual|: 9.505e-05   |deigs|: 1.231e-06  t[s]:  35153.43
	FillingsUpdate:  mu: +0.396835170  nElectrons: 894.000000
SCF: Cycle: 10   F: -7822.482530595713797   dF: -1.517e-08   |Residual|: 2.358e-05   |deigs|: 7.992e-07  t[s]:  35215.63
	FillingsUpdate:  mu: +0.396835190  nElectrons: 894.000000
SCF: Cycle: 11   F: -7822.482530596119432   dF: -4.056e-10   |Residual|: 2.390e-05   |deigs|: 2.600e-07  t[s]:  35274.56
	FillingsUpdate:  mu: +0.396835184  nElectrons: 894.000000
SCF: Cycle: 12   F: -7822.482530596396828   dF: -2.774e-10   |Residual|: 2.077e-05   |deigs|: 2.933e-07  t[s]:  35330.13
SCF: Converged (|Delta E|<1.000000e-08 for 2 iters).

Setting wave functions to eigenvectors of Hamiltonian

# Ionic positions in lattice coordinates:
ion Cu   0.000903705843432   0.166166629386074   0.002033844880444 1
ion Cu   0.164827158153401  -0.001307249216539   0.250491244902534 1
ion Cu   0.000750005406851   0.163602706877767   0.500530431198360 1
ion Cu   0.166543282221463  -0.005048320710688   0.750063083155096 1
ion Cu   0.001760887291982   0.507958218596270  -0.012473136749142 1
ion Cu   0.167406765184081   0.330797977698006   0.250455165179205 1
ion Cu   0.001516772991645   0.499159688203064   0.503627145437803 1
ion Cu   0.169544376580531   0.334129598644208   0.750238294210640 1
ion Cu  -0.000344139355091   0.824758378311932  -0.011974163733721 1
ion Cu   0.164846051290058   0.664611726655299   0.245927547933753 1
ion Cu  -0.000220070134795   0.827948581191571   0.503438714757510 1
ion Cu   0.159050647238639   0.664124350349391   0.761436314258368 1
ion Cu   0.333670770747962   0.165582441721716   0.000124294551926 1
ion Cu   0.499098576175919  -0.001665676319275   0.249562542131421 1
ion Cu   0.333557417084780   0.163592783449406   0.500080314494150 1
ion Cu   0.499709959091471  -0.002136453714910   0.749392573931068 1
ion Cu   0.332029512477457   0.498870613354433  -0.000371988083216 1
ion Cu   0.501668961246880   0.332332035819588   0.249983789883069 1
ion Cu   0.335458891398930   0.497778111803227   0.499164090852995 1
ion Cu   0.502764565450395   0.332579673584750   0.749904933895919 1
ion Cu   0.330400551323629   0.832539613445753  -0.000693388470300 1
ion Cu   0.500547957821730   0.665345465938024   0.249071135104705 1
ion Cu   0.333862627025952   0.829268711040642   0.498955674684969 1
ion Cu   0.500638126003641   0.665361605894499   0.747459267525648 1
ion Cu   0.667937183636811   0.166605332388218  -0.000020092709287 1
ion Cu   0.833435614629326  -0.000323215854965   0.250277465011978 1
ion Cu   0.667960698370870   0.165278116681113   0.499809051766323 1
ion Cu   0.832774432662102  -0.004304646361190   0.749871495196919 1
ion Cu   0.670887294854858   0.499794215753570  -0.000226648295886 1
ion Cu   0.836046982704795   0.331684689224225   0.250373829836806 1
ion Cu   0.667411687912830   0.499552406240605   0.499247500640681 1
ion Cu   0.835764147589567   0.334901449880235   0.750093838693860 1
ion Cu   0.669427596391449   0.833465291540681  -0.000597117054199 1
ion Cu   0.836249726304099   0.665336240328205   0.246122644502960 1
ion Cu   0.665823041916814   0.831011833918296   0.498913983914337 1
ion Cu   0.842007676800162   0.665062719225594   0.761538423404221 1
ion O   0.001876561929781   0.330710229741829   0.127473920499752 1
ion O   0.331969776166854  -0.003290455607217   0.374743491866110 1
ion O   0.002737641936748   0.330380219903042   0.625735618698577 1
ion O   0.333153253599512  -0.000772488197219   0.874675053756043 1
ion O   0.000551995990362   0.666026411973040   0.111223795291871 1
ion O   0.334381736888217   0.330648531008938   0.374972298493728 1
ion O   0.000607284184190   0.663559101539743   0.638211333672043 1
ion O   0.336089509132499   0.332374196575170   0.875051740294202 1
ion O  -0.000693914254259   1.001744424244324   0.127597664778160 1
ion O   0.332061748583726   0.663562981999985   0.372812633074256 1
ion O  -0.000199297947672   0.996435916031512   0.625552837862586 1
ion O   0.331627446966431   0.665649589782105   0.873765382711479 1
ion O   0.334495586033557   0.332420298487434   0.125342178234669 1
ion O   0.666191240614224  -0.001600592228422   0.374564219006356 1
ion O   0.335935754466119   0.330783724953199   0.624729130642362 1
ion O   0.666169576655839   0.000108864567343   0.874559871920303 1
ion O   0.333730487464057   0.665732029497002   0.123862515040527 1
ion O   0.668781360543453   0.332493895891600   0.374882351848409 1
ion O   0.336449201057261   0.663470883452078   0.621748429890277 1
ion O   0.669393453935183   0.333376073131915   0.875022598994716 1
ion O   0.331723859741828   0.998669422863346   0.125106271498573 1
ion O   0.668740746918612   0.665330393320197   0.372955786997996 1
ion O   0.332965140748454   0.995881972549077   0.624426920287963 1
ion O   0.669348822679020   0.666490264450279   0.873957738105726 1
ion O   0.668931319174525   0.333283504518210   0.125326153605363 1
ion O   0.998935938414582  -0.004561066661254   0.376569475275892 1
ion O   0.669394586521704   0.332386833340360   0.624627683903885 1
ion O   0.999513176224167  -0.002663120148486   0.875544529265990 1
ion O   0.667598415722187   0.666667243563773   0.124077594514747 1
ion O   1.001618650421896   0.331996102609890   0.376609534055111 1
ion O   0.665150093626380   0.665404490181674   0.621937953490487 1
ion O   1.002578501559841   0.335098906384495   0.875586983362407 1
ion O   0.666619080498863   0.999789370306605   0.125000631031088 1
ion O   1.000584685903929   0.663604145561455   0.374786071267479 1
ion O   0.666477135563306   0.997662055444180   0.624207505918949 1

# Forces in Lattice coordinates:
force Cu  -0.000988677371818   0.001728368077340  -0.000958793109479 1
force Cu   0.001084316987560   0.000808931028149  -0.002769744782360 1
force Cu   0.000320022851223   0.001364480893239   0.000863320694672 1
force Cu  -0.000761774547146  -0.000562428172452   0.000357242211613 1
force Cu  -0.001729879136830  -0.001464524332384   0.002990397262888 1
force Cu  -0.001688180207283  -0.000960636783455  -0.001310386154238 1
force Cu  -0.000417349091029   0.001417458049455  -0.003870846196873 1
force Cu  -0.000290613039472   0.001542691114102  -0.002638372556195 1
force Cu   0.002185195292529  -0.002255777247495   0.000331718272207 1
force Cu   0.001708038262374   0.000752795405360   0.001123489478143 1
force Cu   0.001460820559434   0.000052437015617  -0.001198874255383 1
force Cu   0.001416444455016   0.003160234165428   0.003261284439528 1
force Cu  -0.000716631793931   0.003247978608551   0.000634446460687 1
force Cu   0.001377217739280  -0.001542798988159   0.002166212773635 1
force Cu   0.000506979176392  -0.002200898037617  -0.002139925619953 1
force Cu   0.000459076150688   0.001398433772747   0.001083685709762 1
force Cu  -0.001389438848467  -0.001181536706543  -0.001166142819598 1
force Cu  -0.001257761131759   0.000889290048851  -0.001365319038502 1
force Cu   0.000544275131640   0.000291520047406   0.001240353896081 1
force Cu  -0.004257176362226  -0.000993784427762  -0.005185299138356 1
force Cu  -0.001739088804590  -0.002562329045034   0.001584229187683 1
force Cu  -0.001645995779692   0.000283335094206  -0.001501989643307 1
force Cu   0.000710783901833   0.001147201569847   0.001032405992246 1
force Cu  -0.000556770498912  -0.001278156549923   0.001209065018674 1
force Cu   0.001448295782093  -0.000504687403752   0.001214328971730 1
force Cu   0.000966454522656  -0.000966042367244   0.000538283953783 1
force Cu  -0.000457915921734  -0.000490004462906   0.001526648670858 1
force Cu   0.001767752433978   0.000041814006229   0.001999993071812 1
force Cu   0.002379750068104   0.000107508325902  -0.002305579690174 1
force Cu  -0.001297963029403  -0.002121242606170  -0.000820462458680 1
force Cu  -0.000183044960972  -0.000795704989899   0.003191366770484 1
force Cu   0.000412549623468   0.001529325362018   0.000050646908721 1
force Cu   0.001921630417517  -0.001031223380071   0.000203341339970 1
force Cu  -0.000522595344532   0.000540228139016   0.000382751140908 1
force Cu   0.000713669286164   0.000440365483115   0.000945121399412 1
force Cu   0.001928537512686   0.001091250935405   0.001480961594297 1
force O  -0.001083787570441  -0.001529207139940   0.001070625720444 1
force O   0.001271113897807   0.000718240786690   0.001039766700421 1
force O  -0.001363684589722   0.002336937792399  -0.001112941708878 1
force O   0.000090784230294   0.000177029742784   0.000027342641866 1
force O   0.000465073929587  -0.000292426010373   0.000391258399023 1
force O  -0.000046117867890   0.001909916676167  -0.001540113113283 1
force O   0.000152839594398   0.000783718981208  -0.002324309952198 1
force O  -0.002295886053439  -0.002002827085287  -0.001866008316919 1
force O   0.000256830650947  -0.000058173887394   0.000491376902647 1
force O   0.001501465679036   0.000710514535317   0.000759141393225 1
force O   0.000731887376076  -0.000147357537627   0.001372788091720 1
force O  -0.000377965091594  -0.000453100959216   0.001145034079656 1
force O  -0.001850278743713  -0.001944862120419  -0.000201470279013 1
force O   0.000262921863487  -0.001655797272206   0.000561443573596 1
force O   0.000755440329620   0.003585261152795  -0.000587444698079 1
force O   0.000706533519045  -0.000496377393566   0.001667163957713 1
force O  -0.002697530440206   0.000004864154566   0.001730386443898 1
force O   0.000001974089507  -0.000226567320359  -0.000667403521452 1
force O  -0.000822623811916   0.001182640812829   0.002644307586687 1
force O  -0.005517294979528  -0.002000560765200  -0.001739084702466 1
force O   0.001764836014404   0.001100628194242   0.001316681765649 1
force O  -0.000542671547390  -0.001443019427065  -0.000279109430948 1
force O   0.000887884745336   0.001360449458802  -0.001708077090021 1
force O   0.001282029210483  -0.000052913237261   0.000654701060785 1
force O   0.002697368834328  -0.001417927516516  -0.000233538054817 1
force O   0.001507674670757   0.001694701645164  -0.000973954415618 1
force O  -0.001544070287562   0.002414847172877  -0.003280002305931 1
force O   0.001739848744182  -0.001511029194190  -0.000634769328000 1
force O   0.001848324602026  -0.000922349436712  -0.001925685296686 1
force O  -0.001012307221120   0.001187739702513   0.001089118978442 1
force O  -0.000053076057727  -0.002457347117541  -0.000945937445564 1
force O  -0.002070082483125  -0.001514667508343  -0.000296096783166 1
force O   0.001016202175544  -0.000638594178059   0.000264575137796 1
force O  -0.002121711987308   0.002644671698024  -0.001027780419219 1
force O   0.001700542702805  -0.000095742393428   0.000935638680990 1

# Energy components:
   Eewald =    -4310.6642610186299862
       EH =     3140.4469914916189737
     Eloc =    -8241.1740462045654567
      Enl =     1405.5543912113093938
      Exc =     -815.1810952990989563
 Exc_core =        3.8184645102637704
       KE =      995.0411697482699083
-------------------------------------
     Etot =    -7822.1583855608305385
       TS =        0.3241450355660168
-------------------------------------
        F =    -7822.4825305963968276

IonicMinimize: Iter:  18  F: -7822.482530596396828  |grad|_K:  8.948e-05  alpha:  1.000e+00  linmin: -7.504e-01  t[s]:  35350.71
IonicMinimize: Converged (|grad|_K<1.000000e-04).

#--- Lowdin population analysis ---
# oxidation-state Cu +0.331 +0.330 +0.330 +0.332 +0.262 +0.330 +0.339 +0.332 +0.263 +0.339 +0.339 +0.262 +0.332 +0.331 +0.331 +0.332 +0.332 +0.330 +0.330 +0.332 +0.332 +0.331 +0.330 +0.331 +0.332 +0.330 +0.331 +0.332 +0.332 +0.330 +0.331 +0.332 +0.332 +0.339 +0.330 +0.262
# oxidation-state O -0.244 -0.236 -0.233 -0.234 -0.235 -0.236 -0.235 -0.234 -0.244 -0.233 -0.232 -0.233 -0.235 -0.236 -0.235 -0.234 -0.232 -0.236 -0.244 -0.234 -0.234 -0.233 -0.234 -0.233 -0.235 -0.233 -0.235 -0.233 -0.232 -0.233 -0.244 -0.232 -0.234 -0.250 -0.234


Dumping '/data/rc652/CuO/vac/CuO_vac.Ecomponents' ... done
End date and time: Sun Jul 14 09:18:48 2024  (Duration: 0-9:49:21.47)
Done!
