--------------------------------------------------------------------------
[[12047,1],5]: A high-performance Open MPI point-to-point messaging module
was unable to find any relevant network interfaces:

Module: OpenFabrics (openib)
  Host: node3217

Another transport will be used instead, although this may result in
lower performance.
--------------------------------------------------------------------------

*************** JDFTx 1.7.0 (git hash 3664913) ***************

Start date and time: Tue Jul 16 13:30:13 2024
Executable jdftx with command-line: -i OsO4_ion.in
Running on hosts (process indices):  node3217.physics.cornell.edu (0-17)
Divided in process groups (process indices):  0 (0)  1 (1)  2 (2)  3 (3)  4 (4)  5 (5)  6 (6)  7 (7)  8 (8)  9 (9)  10 (10)  11 (11)  12 (12)  13 (13)  14 (14)  15 (15)  16 (16)  17 (17)
Resource initialization completed at t[s]:      0.00
Run totals: 18 processes, 36 threads, 0 GPUs


Input parsed successfully to the following command list (including defaults):

basis kpoint-dependent
coords-type Lattice
core-overlap-check vector
coulomb-interaction Periodic
davidson-band-ratio 1.1
dump End Ecomponents
dump-name /data/rc652/OsO4/ion/OsO4_ion.$VAR
elec-cutoff 20 100
elec-eigen-algo Davidson
elec-ex-corr gga-PBEsol
elec-smearing Fermi 0.01
electronic-minimize  \
	dirUpdateScheme      FletcherReeves \
	linminMethod         DirUpdateRecommended \
	nIterations          100 \
	history              15 \
	knormThreshold       0 \
	maxThreshold         no \
	energyDiffThreshold  1e-08 \
	nEnergyDiff          2 \
	alphaTstart          1 \
	alphaTmin            1e-10 \
	updateTestStepSize   yes \
	alphaTreduceFactor   0.1 \
	alphaTincreaseFactor 3 \
	nAlphaAdjustMax      3 \
	wolfeEnergy          0.0001 \
	wolfeGradient        0.9 \
	fdTest               no
electronic-scf  \
	nIterations	50 \
	energyDiffThreshold	1e-08 \
	residualThreshold	1e-07 \
	mixFraction	0.5 \
	qMetric	0.8 \
	history	10 \
	nEigSteps	2 \
	eigDiffThreshold	1e-08 \
	mixedVariable	Density \
	qKerker	0.8 \
	qKappa	-1 \
	verbose	no \
	mixFractionMag	1.5
exchange-regularization WignerSeitzTruncated
fluid None
fluid-ex-corr lda-TF lda-PZ
fluid-gummel-loop 10 1.000000e-05
fluid-minimize  \
	dirUpdateScheme      PolakRibiere \
	linminMethod         DirUpdateRecommended \
	nIterations          100 \
	history              15 \
	knormThreshold       0 \
	maxThreshold         no \
	energyDiffThreshold  0 \
	nEnergyDiff          2 \
	alphaTstart          1 \
	alphaTmin            1e-10 \
	updateTestStepSize   yes \
	alphaTreduceFactor   0.1 \
	alphaTincreaseFactor 3 \
	nAlphaAdjustMax      3 \
	wolfeEnergy          0.0001 \
	wolfeGradient        0.9 \
	fdTest               no
fluid-solvent H2O 55.338 ScalarEOS \
	epsBulk 78.4 \
	pMol 0.92466 \
	epsInf 1.77 \
	Pvap 1.06736e-10 \
	sigmaBulk 4.62e-05 \
	Rvdw 2.61727 \
	Res 1.42 \
	tauNuc 343133 \
	poleEl 15 7 1
forces-output-coords Positions
ion Os   0.348040000000000   0.363190000000000   0.236470000000000 1
ion Os   0.118580000000000   0.147050000000000   0.746380000000000 1
ion Os   0.347180000000000   0.875320000000000   0.242470000000000 1
ion Os   0.134330000000000   0.637320000000000   0.747210000000000 1
ion Os   0.880120000000000   0.368390000000000   0.246700000000000 1
ion Os   0.647170000000000   0.118510000000000   0.749640000000000 1
ion Os   0.858190000000000   0.869860000000000   0.246820000000000 1
ion Os   0.625310000000000   0.619410000000000   0.745920000000000 1
ion O   0.432990000000000   0.038970000000000   0.204330000000000 1
ion O   0.033070000000000   0.206870000000000   0.292970000000000 1
ion O   0.102500000000000   0.485800000000000   0.815240000000000 1
ion O   0.465580000000000   0.268280000000000   0.684300000000000 1
ion O   0.204920000000000   0.399970000000000   0.434150000000000 1
ion O   0.307990000000000   0.340920000000000   0.077770000000000 1
ion O   0.298820000000000   0.098240000000000   0.567810000000000 1
ion O   0.168740000000000   0.152580000000000   0.935490000000000 1
ion O   0.436290000000000   0.538420000000000   0.192880000000000 1
ion O   0.039230000000000   0.717700000000000   0.320080000000000 1
ion O   0.061270000000000   0.977680000000000   0.813290000000000 1
ion O   0.466180000000000   0.791890000000000   0.690060000000000 1
ion O   0.201140000000000   0.890380000000000   0.428520000000000 1
ion O   0.327580000000000   0.830660000000000   0.088440000000000 1
ion O   0.302090000000000   0.604220000000000   0.594740000000000 1
ion O   0.171030000000000   0.654220000000000   0.935630000000000 1
ion O   0.919920000000000   0.006130000000000   0.189810000000000 1
ion O   0.535810000000000   0.250340000000000   0.312850000000000 1
ion O   0.586410000000000   0.479380000000000   0.795900000000000 1
ion O   0.947960000000000   0.282530000000000   0.683210000000000 1
ion O   0.706530000000000   0.406150000000000   0.419360000000000 1
ion O   0.822580000000000   0.371000000000000   0.077990000000000 1
ion O   0.788090000000000   0.129420000000000   0.589090000000000 1
ion O   0.680410000000000   0.160930000000000   0.923110000000000 1
ion O   0.927200000000000   0.527680000000000   0.184590000000000 1
ion O   0.554030000000000   0.711540000000000   0.289030000000000 1
ion O   0.584050000000000   0.976710000000000   0.813450000000000 1
ion O   0.944540000000000   0.775540000000000   0.675300000000000 1
ion O   0.700190000000000   0.913230000000000   0.434020000000000 1
ion O   0.808790000000000   0.856910000000000   0.066550000000000 1
ion O   0.804500000000000   0.589400000000000   0.575410000000000 1
ion O   0.679990000000000   0.649220000000000   0.923240000000000 1
ion-species GBRV/$ID_pbesol.uspp
ion-width 0
ionic-minimize  \
	dirUpdateScheme      L-BFGS \
	linminMethod         DirUpdateRecommended \
	nIterations          50 \
	history              15 \
	knormThreshold       0.0001 \
	maxThreshold         no \
	energyDiffThreshold  1e-06 \
	nEnergyDiff          2 \
	alphaTstart          1 \
	alphaTmin            1e-10 \
	updateTestStepSize   yes \
	alphaTreduceFactor   0.1 \
	alphaTincreaseFactor 3 \
	nAlphaAdjustMax      3 \
	wolfeEnergy          0.0001 \
	wolfeGradient        0.9 \
	fdTest               no
kpoint   0.500000000000   0.500000000000   0.500000000000  1.00000000000000
kpoint-folding 3 3 3 
latt-move-scale 1 1 1
latt-scale 1 1 1 
lattice  \
	  16.831151964567216    7.857178447690984    0.039249236511508  \
	  -0.001396108441990   18.079569470173105    0.066400613931282  \
	   4.895589005873019    4.362885676205981   15.558827792736130 
lattice-minimize  \
	dirUpdateScheme      L-BFGS \
	linminMethod         DirUpdateRecommended \
	nIterations          0 \
	history              15 \
	knormThreshold       0 \
	maxThreshold         no \
	energyDiffThreshold  1e-06 \
	nEnergyDiff          2 \
	alphaTstart          1 \
	alphaTmin            1e-10 \
	updateTestStepSize   yes \
	alphaTreduceFactor   0.1 \
	alphaTincreaseFactor 3 \
	nAlphaAdjustMax      3 \
	wolfeEnergy          0.0001 \
	wolfeGradient        0.9 \
	fdTest               no
lcao-params -1 1e-06 0.01
pcm-variant GLSSA13
perturb-minimize  \
	nIterations            0 \
	algorithm              MINRES \
	residualTol            0.0001 \
	residualDiffThreshold  0.0001 \
	CGBypass               no \
	recomputeResidual      no
spintype no-spin
subspace-rotation-factor 1 yes
symmetries automatic
symmetry-threshold 0.0001



---------- Setting up symmetries ----------

Found 2 point-group symmetries of the bravais lattice
Found 1 space-group symmetries with basis
Applied RMS atom displacement 0 bohrs to make symmetries exact.

---------- Initializing the Grid ----------
R = 
[      16.8312      7.85718    0.0392492  ]
[  -0.00139611      18.0796    0.0664006  ]
[      4.89559      4.36289      15.5588  ]
unit cell volume = 4728.93
G =
[   0.373366    -0.1622 -0.000249641  ]
[ 0.000460772   0.347688 -0.00148499  ]
[  -0.117609 -0.0464595   0.404329  ]
Minimum fftbox size, Smin = [  80  92  72  ]
Chosen fftbox size, S = [  80  96  72  ]

---------- Initializing tighter grid for wavefunction operations ----------
R = 
[      16.8312      7.85718    0.0392492  ]
[  -0.00139611      18.0796    0.0664006  ]
[      4.89559      4.36289      15.5588  ]
unit cell volume = 4728.93
G =
[   0.373366    -0.1622 -0.000249641  ]
[ 0.000460772   0.347688 -0.00148499  ]
[  -0.117609 -0.0464595   0.404329  ]
Minimum fftbox size, Smin = [  72  84  64  ]
Chosen fftbox size, S = [  72  84  64  ]

---------- Exchange Correlation functional ----------
Initalized PBEsol GGA exchange.
Initalized PBEsol GGA correlation.

---------- Setting up pseudopotentials ----------
Width of ionic core gaussian charges (only for fluid interactions / plotting) set to 0

Reading pseudopotential file '/home/rc652/build/pseudopotentials/GBRV/os_pbesol.uspp':
  Title: Os.  Created by USPP 7.3.6 on 3-2-2014
  Reference state energy: -98.687589.  16 valence electrons in orbitals:
    |500>  occupation: 2  eigenvalue: -3.559978
    |510>  occupation: 6  eigenvalue: -2.060221
    |520>  occupation: 5.5  eigenvalue: -0.405934
    |600>  occupation: 2  eigenvalue: -0.369345
    |610>  occupation: 0  eigenvalue: -0.156692
  lMax: 3  lLocal: 3  QijEcut: 6
  8 projectors sampled on a log grid with 745 points:
    l: 0  eig: -0.369345  rCut: 1.35
    l: 0  eig: -3.559978  rCut: 1.35
    l: 1  eig: -2.060221  rCut: 1.45
    l: 1  eig: -0.156692  rCut: 1.45
    l: 2  eig: -0.405934  rCut: 1.45
    l: 2  eig: 1.000000  rCut: 1.45
    l: 3  eig: 0.500000  rCut: 2
    l: 3  eig: -0.500000  rCut: 2
  Partial core density with radius 1.2
  Transforming core density to a uniform radial grid of dG=0.02 with 1617 points.
  Transforming local potential to a uniform radial grid of dG=0.02 with 1617 points.
  Transforming nonlocal projectors to a uniform radial grid of dG=0.02 with 432 points.
  Transforming density augmentations to a uniform radial grid of dG=0.02 with 1617 points.
  Transforming atomic orbitals to a uniform radial grid of dG=0.02 with 432 points.
  Core radius for overlap checks: 2.00 bohrs.

Reading pseudopotential file '/home/rc652/build/pseudopotentials/GBRV/o_pbesol.uspp':
  Title: O.  Created by USPP 7.3.6 on 3-2-2014
  Reference state energy: -15.849885.  6 valence electrons in orbitals:
    |200>  occupation: 2  eigenvalue: -0.873214
    |210>  occupation: 4  eigenvalue: -0.330058
  lMax: 2  lLocal: 2  QijEcut: 6
  5 projectors sampled on a log grid with 511 points:
    l: 0  eig: -0.873214  rCut: 1.25
    l: 0  eig: 0.000000  rCut: 1.25
    l: 1  eig: -0.330058  rCut: 1.25
    l: 1  eig: 0.000000  rCut: 1.25
    l: 2  eig: 1.000000  rCut: 1.25
  Partial core density with radius 0.7
  Transforming core density to a uniform radial grid of dG=0.02 with 1617 points.
  Transforming local potential to a uniform radial grid of dG=0.02 with 1617 points.
  Transforming nonlocal projectors to a uniform radial grid of dG=0.02 with 432 points.
  Transforming density augmentations to a uniform radial grid of dG=0.02 with 1617 points.
  Transforming atomic orbitals to a uniform radial grid of dG=0.02 with 432 points.
  Core radius for overlap checks: 1.25 bohrs.

Initialized 2 species with 40 total atoms.

Folded 1 k-points by 3x3x3 to 27 k-points.

---------- Setting up k-points, bands, fillings ----------
Adding inversion symmetry to k-mesh for non-inversion-symmetric unit cell.
Reduced to 14 k-points under symmetry. 
Computing the number of bands and number of electrons
Calculating initial fillings.
nElectrons: 320.000000   nBands: 232   nStates: 14

----- Setting up reduced wavefunction bases (one per k-point) -----
average nbasis = 20203.852 , ideal nbasis = 20202.331

---------- Setting up ewald sum ----------
Optimum gaussian width for ewald sums = 3.632093 bohr.
Real space sum over 567 unit cells with max indices [  4  3  4  ]
Reciprocal space sum over 6783 terms with max indices [  9  10  8  ]

---------- Allocating electronic variables ----------
Initializing wave functions:  linear combination of atomic orbitals
Os pseudo-atom occupations:   s ( 2 0 )  p ( 6 0 )  d ( 8 )
O pseudo-atom occupations:   s ( 2 )  p ( 4 )
	FillingsUpdate:  mu: +0.400773885  nElectrons: 320.000000
LCAOMinimize: Iter:   0  F: -1213.5854473682124990  |grad|_K:  1.130e-02  alpha:  1.000e+00
	FillingsUpdate:  mu: +0.176205860  nElectrons: 320.000000
LCAOMinimize: Iter:   1  F: -1242.9623633003031955  |grad|_K:  1.430e-02  alpha:  2.750e-01  linmin:  1.239e-01  cgtest: -6.950e-02  t[s]:     45.52
LCAOMinimize: 	Bad step direction: g.d > 0.
LCAOMinimize: 	Undoing step.
LCAOMinimize: 	Step failed: resetting search direction.
	FillingsUpdate:  mu: +0.176205860  nElectrons: 320.000000
LCAOMinimize: Iter:   2  F: -1242.9623633003031955  |grad|_K:  1.430e-02  alpha:  0.000e+00
	FillingsUpdate:  mu: +0.126379481  nElectrons: 320.000000
LCAOMinimize: Iter:   3  F: -1245.8962129186254515  |grad|_K:  6.801e-03  alpha:  1.269e-01  linmin:  1.373e-01  cgtest: -1.359e+00  t[s]:     71.70
	FillingsUpdate:  mu: +0.118279579  nElectrons: 320.000000
LCAOMinimize: Iter:   4  F: -1246.1745508539556795  |grad|_K:  4.846e-03  alpha:  5.350e-02  linmin:  4.339e-02  cgtest:  7.700e-01  t[s]:     87.08
LCAOMinimize: Encountered beta<0, resetting CG.
LCAOMinimize: 	Predicted alpha/alphaT>3.000000, increasing alphaT to 1.604955e-01.
	FillingsUpdate:  mu: +0.108243250  nElectrons: 320.000000
LCAOMinimize: Iter:   5  F: -1247.5622131876693857  |grad|_K:  2.614e-03  alpha:  1.281e-01  linmin:  1.596e-02  cgtest: -2.669e-01  t[s]:    105.99
	FillingsUpdate:  mu: +0.110226202  nElectrons: 320.000000
LCAOMinimize: Iter:   6  F: -1247.6121928333886899  |grad|_K:  2.596e-03  alpha:  1.004e-02  linmin: -2.385e-01  cgtest:  9.423e-01  t[s]:    120.93
LCAOMinimize: 	Predicted alpha/alphaT>3.000000, increasing alphaT to 3.010969e-02.
LCAOMinimize: 	Predicted alpha/alphaT>3.000000, increasing alphaT to 9.032906e-02.
	FillingsUpdate:  mu: +0.089238353  nElectrons: 320.000000
LCAOMinimize: Iter:   7  F: -1247.8453515490764403  |grad|_K:  9.341e-04  alpha:  7.814e-02  linmin:  2.803e-01  cgtest: -2.422e-01  t[s]:    143.57
	FillingsUpdate:  mu: +0.092922288  nElectrons: 320.000000
LCAOMinimize: Iter:   8  F: -1247.8647773512766435  |grad|_K:  7.275e-04  alpha:  9.759e-02  linmin:  7.268e-03  cgtest:  6.289e-01  t[s]:    158.49
	FillingsUpdate:  mu: +0.097271661  nElectrons: 320.000000
LCAOMinimize: Iter:   9  F: -1247.8794054416798645  |grad|_K:  3.510e-04  alpha:  7.312e-02  linmin: -6.583e-04  cgtest: -3.059e-02  t[s]:    173.67
	FillingsUpdate:  mu: +0.094562060  nElectrons: 320.000000
LCAOMinimize: Iter:  10  F: -1247.8867070358828641  |grad|_K:  4.280e-04  alpha:  1.600e-01  linmin:  1.064e-02  cgtest:  1.089e-02  t[s]:    188.61
	FillingsUpdate:  mu: +0.093892112  nElectrons: 320.000000
LCAOMinimize: Iter:  11  F: -1247.8945174168918584  |grad|_K:  3.163e-04  alpha:  1.160e-01  linmin:  1.203e-03  cgtest:  1.488e-01  t[s]:    203.49
	FillingsUpdate:  mu: +0.101047789  nElectrons: 320.000000
LCAOMinimize: Iter:  12  F: -1247.8987392318981620  |grad|_K:  1.195e-04  alpha:  1.114e-01  linmin:  3.444e-03  cgtest: -6.350e-02  t[s]:    218.49
	FillingsUpdate:  mu: +0.098326599  nElectrons: 320.000000
LCAOMinimize: Iter:  13  F: -1247.8991131354689514  |grad|_K:  6.106e-05  alpha:  6.894e-02  linmin: -6.421e-04  cgtest:  1.934e-02  t[s]:    233.33
	FillingsUpdate:  mu: +0.098062891  nElectrons: 320.000000
LCAOMinimize: Iter:  14  F: -1247.8992066650789639  |grad|_K:  2.795e-05  alpha:  6.591e-02  linmin:  1.643e-03  cgtest: -1.455e-02  t[s]:    248.50
	FillingsUpdate:  mu: +0.098189460  nElectrons: 320.000000
LCAOMinimize: Iter:  15  F: -1247.8992489869008295  |grad|_K:  1.861e-05  alpha:  1.430e-01  linmin:  9.474e-04  cgtest:  9.694e-04  t[s]:    263.13
	FillingsUpdate:  mu: +0.098115563  nElectrons: 320.000000
LCAOMinimize: Iter:  16  F: -1247.8992686200281241  |grad|_K:  1.920e-05  alpha:  1.495e-01  linmin:  1.468e-04  cgtest:  1.773e-03  t[s]:    278.10
	FillingsUpdate:  mu: +0.098501944  nElectrons: 320.000000
LCAOMinimize: Iter:  17  F: -1247.8992792469034612  |grad|_K:  1.135e-05  alpha:  7.592e-02  linmin:  6.387e-05  cgtest: -1.330e-03  t[s]:    293.43
	FillingsUpdate:  mu: +0.098481994  nElectrons: 320.000000
LCAOMinimize: Iter:  18  F: -1247.8992869533421981  |grad|_K:  6.455e-06  alpha:  1.575e-01  linmin:  5.831e-04  cgtest: -2.264e-03  t[s]:    308.43
	FillingsUpdate:  mu: +0.098380113  nElectrons: 320.000000
LCAOMinimize: Iter:  19  F: -1247.8992883402540883  |grad|_K:  3.726e-06  alpha:  8.769e-02  linmin: -5.486e-05  cgtest:  4.110e-03  t[s]:    323.33
	FillingsUpdate:  mu: +0.098459402  nElectrons: 320.000000
LCAOMinimize: Iter:  20  F: -1247.8992887127628819  |grad|_K:  2.036e-06  alpha:  7.058e-02  linmin: -1.455e-05  cgtest: -1.279e-03  t[s]:    338.40
	FillingsUpdate:  mu: +0.098475037  nElectrons: 320.000000
LCAOMinimize: Iter:  21  F: -1247.8992888699642663  |grad|_K:  1.367e-06  alpha:  9.974e-02  linmin: -1.860e-05  cgtest:  9.669e-05  t[s]:    353.80
LCAOMinimize: Converged (|Delta F|<1.000000e-06 for 2 iters).


---- Citations for features of the code used in this run ----

   Software package:
      R. Sundararaman, K. Letchworth-Weaver, K.A. Schwarz, D. Gunceler, Y. Ozhabes and T.A. Arias, 'JDFTx: software for joint density-functional theory', SoftwareX 6, 278 (2017)

   gga-PBEsol exchange-correlation functional:
      J.P. Perdew et al., Phys. Rev. Lett. 100, 136406 (2008)

   Pseudopotentials:
      KF Garrity, JW Bennett, KM Rabe and D Vanderbilt, Comput. Mater. Sci. 81, 446 (2014)

This list may not be complete. Please suggest additional citations or
report any other bugs at https://github.com/shankar1729/jdftx/issues

Initialization completed successfully at t[s]:    360.19


-------- Electronic minimization -----------
Will mix electronic density at each iteration.
	FillingsUpdate:  mu: +0.098475037  nElectrons: 320.000000
	FillingsUpdate:  mu: +0.093080277  nElectrons: 320.000000
SCF: Cycle:  0   F: -1249.143455215902577   dF: -1.244e+00   |Residual|: 5.982e-01   |deigs|: 2.369e-02  t[s]:    417.96
	FillingsUpdate:  mu: +0.088308617  nElectrons: 320.000000
SCF: Cycle:  1   F: -1249.043997874946626   dF: +9.946e-02   |Residual|: 5.544e-01   |deigs|: 2.592e-02  t[s]:    463.62
	FillingsUpdate:  mu: +0.106507092  nElectrons: 320.000000
SCF: Cycle:  2   F: -1249.058097569612301   dF: -1.410e-02   |Residual|: 4.558e-01   |deigs|: 1.444e-02  t[s]:    509.60
	FillingsUpdate:  mu: +0.098918728  nElectrons: 320.000000
SCF: Cycle:  3   F: -1249.293676285945367   dF: -2.356e-01   |Residual|: 3.876e-01   |deigs|: 6.078e-03  t[s]:    555.73
	FillingsUpdate:  mu: +0.098248438  nElectrons: 320.000000
SCF: Cycle:  4   F: -1249.586613281376003   dF: -2.929e-01   |Residual|: 1.695e-01   |deigs|: 4.174e-03  t[s]:    602.69
	FillingsUpdate:  mu: +0.101126357  nElectrons: 320.000000
SCF: Cycle:  5   F: -1249.642131281712636   dF: -5.552e-02   |Residual|: 1.012e-01   |deigs|: 2.102e-03  t[s]:    646.81
	FillingsUpdate:  mu: +0.102132273  nElectrons: 320.000000
SCF: Cycle:  6   F: -1249.672648401563492   dF: -3.052e-02   |Residual|: 3.517e-02   |deigs|: 9.067e-04  t[s]:    691.22
	FillingsUpdate:  mu: +0.102883440  nElectrons: 320.000000
SCF: Cycle:  7   F: -1249.670232917750127   dF: +2.415e-03   |Residual|: 4.357e-02   |deigs|: 6.707e-04  t[s]:    736.76
	FillingsUpdate:  mu: +0.103123134  nElectrons: 320.000000
SCF: Cycle:  8   F: -1249.670549034482519   dF: -3.161e-04   |Residual|: 3.678e-02   |deigs|: 5.435e-04  t[s]:    780.45
	FillingsUpdate:  mu: +0.103026601  nElectrons: 320.000000
SCF: Cycle:  9   F: -1249.674599753313487   dF: -4.051e-03   |Residual|: 9.117e-03   |deigs|: 3.371e-04  t[s]:    809.43
	FillingsUpdate:  mu: +0.103067469  nElectrons: 320.000000
SCF: Cycle: 10   F: -1249.674751130396999   dF: -1.514e-04   |Residual|: 5.038e-03   |deigs|: 1.492e-04  t[s]:    838.37
	FillingsUpdate:  mu: +0.103234615  nElectrons: 320.000000
SCF: Cycle: 11   F: -1249.674769302609775   dF: -1.817e-05   |Residual|: 3.427e-03   |deigs|: 1.492e-04  t[s]:    867.19
	FillingsUpdate:  mu: +0.103255624  nElectrons: 320.000000
SCF: Cycle: 12   F: -1249.674785935208547   dF: -1.663e-05   |Residual|: 2.455e-03   |deigs|: 6.691e-05  t[s]:    896.94
	FillingsUpdate:  mu: +0.103302693  nElectrons: 320.000000
SCF: Cycle: 13   F: -1249.674799335321723   dF: -1.340e-05   |Residual|: 1.165e-03   |deigs|: 7.716e-05  t[s]:    926.33
	FillingsUpdate:  mu: +0.103318335  nElectrons: 320.000000
SCF: Cycle: 14   F: -1249.674801051731038   dF: -1.716e-06   |Residual|: 7.471e-04   |deigs|: 2.613e-05  t[s]:    955.80
	FillingsUpdate:  mu: +0.103324335  nElectrons: 320.000000
SCF: Cycle: 15   F: -1249.674802419332764   dF: -1.368e-06   |Residual|: 5.390e-04   |deigs|: 1.899e-05  t[s]:    985.40
	FillingsUpdate:  mu: +0.103319106  nElectrons: 320.000000
SCF: Cycle: 16   F: -1249.674802670522467   dF: -2.512e-07   |Residual|: 3.670e-04   |deigs|: 1.280e-05  t[s]:   1015.02
	FillingsUpdate:  mu: +0.103323166  nElectrons: 320.000000
SCF: Cycle: 17   F: -1249.674803054151198   dF: -3.836e-07   |Residual|: 1.902e-04   |deigs|: 8.166e-06  t[s]:   1045.72
	FillingsUpdate:  mu: +0.103322071  nElectrons: 320.000000
SCF: Cycle: 18   F: -1249.674803137211029   dF: -8.306e-08   |Residual|: 1.548e-04   |deigs|: 6.529e-06  t[s]:   1074.47
	FillingsUpdate:  mu: +0.103321342  nElectrons: 320.000000
SCF: Cycle: 19   F: -1249.674803147689772   dF: -1.048e-08   |Residual|: 1.192e-04   |deigs|: 3.836e-06  t[s]:   1104.26
	FillingsUpdate:  mu: +0.103320566  nElectrons: 320.000000
SCF: Cycle: 20   F: -1249.674803158148734   dF: -1.046e-08   |Residual|: 1.296e-04   |deigs|: 3.578e-06  t[s]:   1133.06
	FillingsUpdate:  mu: +0.103320658  nElectrons: 320.000000
SCF: Cycle: 21   F: -1249.674803200736051   dF: -4.259e-08   |Residual|: 3.989e-05   |deigs|: 3.490e-06  t[s]:   1162.71
	FillingsUpdate:  mu: +0.103319428  nElectrons: 320.000000
SCF: Cycle: 22   F: -1249.674803201693749   dF: -9.577e-10   |Residual|: 3.749e-05   |deigs|: 2.363e-06  t[s]:   1191.81
	FillingsUpdate:  mu: +0.103319855  nElectrons: 320.000000
SCF: Cycle: 23   F: -1249.674803205129820   dF: -3.436e-09   |Residual|: 2.110e-05   |deigs|: 2.272e-06  t[s]:   1221.83
SCF: Converged (|Delta E|<1.000000e-08 for 2 iters).

Setting wave functions to eigenvectors of Hamiltonian

# Ionic positions in lattice coordinates:
ion Os   0.348040000000000   0.363190000000000   0.236470000000000 1
ion Os   0.118580000000000   0.147050000000000   0.746380000000000 1
ion Os   0.347180000000000   0.875320000000000   0.242470000000000 1
ion Os   0.134330000000000   0.637320000000000   0.747210000000000 1
ion Os   0.880120000000000   0.368390000000000   0.246700000000000 1
ion Os   0.647170000000000   0.118510000000000   0.749640000000000 1
ion Os   0.858190000000000   0.869860000000000   0.246820000000000 1
ion Os   0.625310000000000   0.619410000000000   0.745920000000000 1
ion O   0.432990000000000   0.038970000000000   0.204330000000000 1
ion O   0.033070000000000   0.206870000000000   0.292970000000000 1
ion O   0.102500000000000   0.485800000000000   0.815240000000000 1
ion O   0.465580000000000   0.268280000000000   0.684300000000000 1
ion O   0.204920000000000   0.399970000000000   0.434150000000000 1
ion O   0.307990000000000   0.340920000000000   0.077770000000000 1
ion O   0.298820000000000   0.098240000000000   0.567810000000000 1
ion O   0.168740000000000   0.152580000000000   0.935490000000000 1
ion O   0.436290000000000   0.538420000000000   0.192880000000000 1
ion O   0.039230000000000   0.717700000000000   0.320080000000000 1
ion O   0.061270000000000   0.977680000000000   0.813290000000000 1
ion O   0.466180000000000   0.791890000000000   0.690060000000000 1
ion O   0.201140000000000   0.890380000000000   0.428520000000000 1
ion O   0.327580000000000   0.830660000000000   0.088440000000000 1
ion O   0.302090000000000   0.604220000000000   0.594740000000000 1
ion O   0.171030000000000   0.654220000000000   0.935630000000000 1
ion O   0.919920000000000   0.006130000000000   0.189810000000000 1
ion O   0.535810000000000   0.250340000000000   0.312850000000000 1
ion O   0.586410000000000   0.479380000000000   0.795900000000000 1
ion O   0.947960000000000   0.282530000000000   0.683210000000000 1
ion O   0.706530000000000   0.406150000000000   0.419360000000000 1
ion O   0.822580000000000   0.371000000000000   0.077990000000000 1
ion O   0.788090000000000   0.129420000000000   0.589090000000000 1
ion O   0.680410000000000   0.160930000000000   0.923110000000000 1
ion O   0.927200000000000   0.527680000000000   0.184590000000000 1
ion O   0.554030000000000   0.711540000000000   0.289030000000000 1
ion O   0.584050000000000   0.976710000000000   0.813450000000000 1
ion O   0.944540000000000   0.775540000000000   0.675300000000000 1
ion O   0.700190000000000   0.913230000000000   0.434020000000000 1
ion O   0.808790000000000   0.856910000000000   0.066550000000000 1
ion O   0.804500000000000   0.589400000000000   0.575410000000000 1
ion O   0.679990000000000   0.649220000000000   0.923240000000000 1

# Forces in Lattice coordinates:
force Os   4.762019694492035   4.531081391637653   5.483169431941331 1
force Os  -0.397219480038938  -2.648908793479409  -0.397785500229936 1
force Os   5.464184975058687   4.033694671981688   4.969616170103826 1
force Os  -1.885709430795812   0.073451097214649   0.464672662961166 1
force Os   1.266422593489981   2.594893404410892   2.057948569811216 1
force Os  -3.194424796251824   0.000603154851643   1.112986544054650 1
force Os   1.061348799974862  -0.119985682704776   1.325640481831357 1
force Os   2.346436492762582   4.232909347567075   0.271662766399595 1
force O  -1.515191789817806  -2.207265746545520  -0.355168744239141 1
force O  -0.084960015051052   0.459192091942462  -0.069643412052426 1
force O  -0.057792488090523   0.088563652085984  -0.284786133471085 1
force O   1.001661146573292  -0.822698947666856   0.634445560979673 1
force O  -0.003574210368047  -0.326840102798373  -0.874685827621633 1
force O  -2.334722415009092  -2.260539021926704  -3.450583350413002 1
force O  -0.966498260874570   0.286756645111332   0.992297814895625 1
force O  -0.434728377417388  -0.097005767380205  -0.841834376114459 1
force O  -1.252530520964942  -1.799460837232171  -0.340853453701043 1
force O  -1.289341293784241   0.738377566775564  -0.808834791228593 1
force O   1.277065502514432   2.496975227287468  -0.068727401444189 1
force O   0.460449756944771  -1.464828123168619   0.265789396261917 1
force O  -0.064740110124643  -0.054047650351259  -0.316975854267847 1
force O  -2.521008250257767  -2.736918886657371  -3.867763214415044 1
force O   0.587286046012350   0.146988755453223  -0.462670761486343 1
force O  -0.101697023107786   0.222641778053555  -0.477297195492007 1
force O  -0.147421967266206  -0.242268900655064   0.002946579041631 1
force O  -1.121858948248871  -0.148821326572039  -0.814726995685740 1
force O  -1.065555568557199  -1.735970185260658  -0.071664064804504 1
force O   0.536968560429251  -0.071243958643326   0.300365242039891 1
force O   0.668066001662332  -0.095245479084545  -0.575618914032266 1
force O  -1.200975171272837  -1.057700664474844  -1.614725552118941 1
force O   1.546350318746363   0.159877347993097  -1.327225254089334 1
force O  -0.184546816258394  -0.292690279398856  -0.286626438195221 1
force O  -0.663520253035983  -1.884143451129630   0.221103371716947 1
force O  -1.318943423070090   1.054496955355917  -0.421758368889367 1
force O   0.771511199849719   0.884922717806477  -0.129359525053689 1
force O   1.430414700696087  -0.526007854369367   0.756345031608539 1
force O   0.347915084166464  -0.294233165072825  -0.877981316713804 1
force O   0.041670633018824  -0.094947006107580   0.354926095528759 1
force O  -0.932005614418459  -0.154678473615793   0.612040359310669 1
force O  -0.829107114679017  -0.867450793252278  -1.091298677749627 1

# Energy components:
   Eewald =     -684.4246933851026142
       EH =      440.9486566718751988
     Eloc =    -1169.7316362713468152
      Enl =     -114.4055692532041064
      Exc =     -259.4770356014345225
 Exc_core =       58.6442555379651225
       KE =      478.8310662834041977
-------------------------------------
     Etot =    -1249.6149560178434967
       TS =        0.0598471872864080
-------------------------------------
        F =    -1249.6748032051298196

IonicMinimize: Iter:   0  F: -1249.674803205129820  |grad|_K:  8.347e-02  t[s]:   1232.23

#--- Lowdin population analysis ---
# oxidation-state Os +0.886 +0.918 +0.900 +1.002 +0.991 +0.997 +0.979 +0.971
# oxidation-state O -0.313 -0.241 -0.178 -0.254 -0.201 -0.055 -0.193 -0.201 -0.275 -0.260 -0.269 -0.253 -0.170 +0.005 -0.143 -0.214 -0.169 -0.193 -0.140 -0.178 -0.207 -0.094 -0.119 -0.214 -0.270 -0.237 -0.238 -0.283 -0.201 -0.182 -0.215 -0.200


-------- Electronic minimization -----------
Will mix electronic density at each iteration.
	FillingsUpdate:  mu: +0.103319855  nElectrons: 320.000000
	FillingsUpdate:  mu: +0.096138663  nElectrons: 320.000000
SCF: Cycle:  0   F: -1246.177787666919130   dF: +2.225e+00   |Residual|: 1.199e+00   |deigs|: 1.041e-02  t[s]:   1297.86
	FillingsUpdate:  mu: +0.121847860  nElectrons: 320.000000
SCF: Cycle:  1   F: -1247.435535705904158   dF: -1.258e+00   |Residual|: 1.185e+00   |deigs|: 1.914e-02  t[s]:   1344.95
	FillingsUpdate:  mu: +0.096516000  nElectrons: 320.000000
SCF: Cycle:  2   F: -1249.352815179466006   dF: -1.917e+00   |Residual|: 4.145e-01   |deigs|: 1.933e-02  t[s]:   1391.57
	FillingsUpdate:  mu: +0.114444451  nElectrons: 320.000000
SCF: Cycle:  3   F: -1248.115996331955330   dF: +1.237e+00   |Residual|: 7.151e-01   |deigs|: 1.266e-02  t[s]:   1439.58
	FillingsUpdate:  mu: +0.102339609  nElectrons: 320.000000
SCF: Cycle:  4   F: -1249.506949335610443   dF: -1.391e+00   |Residual|: 3.607e-01   |deigs|: 5.860e-03  t[s]:   1486.77
	FillingsUpdate:  mu: +0.099605648  nElectrons: 320.000000
SCF: Cycle:  5   F: -1249.783371793167817   dF: -2.764e-01   |Residual|: 1.412e-01   |deigs|: 2.584e-03  t[s]:   1532.80
	FillingsUpdate:  mu: +0.101709959  nElectrons: 320.000000
SCF: Cycle:  6   F: -1249.820450750476994   dF: -3.708e-02   |Residual|: 8.095e-02   |deigs|: 1.520e-03  t[s]:   1579.78
	FillingsUpdate:  mu: +0.102717190  nElectrons: 320.000000
SCF: Cycle:  7   F: -1249.839539247574749   dF: -1.909e-02   |Residual|: 4.080e-02   |deigs|: 1.084e-03  t[s]:   1623.85
	FillingsUpdate:  mu: +0.102931804  nElectrons: 320.000000
SCF: Cycle:  8   F: -1249.839472283164469   dF: +6.696e-05   |Residual|: 4.023e-02   |deigs|: 6.005e-04  t[s]:   1667.59
	FillingsUpdate:  mu: +0.102550862  nElectrons: 320.000000
SCF: Cycle:  9   F: -1249.843031708036051   dF: -3.559e-03   |Residual|: 1.329e-02   |deigs|: 3.819e-04  t[s]:   1707.32
	FillingsUpdate:  mu: +0.102640885  nElectrons: 320.000000
SCF: Cycle: 10   F: -1249.843330984154818   dF: -2.993e-04   |Residual|: 7.391e-03   |deigs|: 1.713e-04  t[s]:   1736.31
	FillingsUpdate:  mu: +0.102705773  nElectrons: 320.000000
SCF: Cycle: 11   F: -1249.843506101278081   dF: -1.751e-04   |Residual|: 4.798e-03   |deigs|: 1.709e-04  t[s]:   1765.74
	FillingsUpdate:  mu: +0.102687444  nElectrons: 320.000000
SCF: Cycle: 12   F: -1249.843496603878521   dF: +9.497e-06   |Residual|: 5.106e-03   |deigs|: 1.199e-04  t[s]:   1795.55
	FillingsUpdate:  mu: +0.102675935  nElectrons: 320.000000
SCF: Cycle: 13   F: -1249.843561441525026   dF: -6.484e-05   |Residual|: 1.970e-03   |deigs|: 1.005e-04  t[s]:   1825.28
	FillingsUpdate:  mu: +0.102670476  nElectrons: 320.000000
SCF: Cycle: 14   F: -1249.843567693316572   dF: -6.252e-06   |Residual|: 1.804e-03   |deigs|: 5.139e-05  t[s]:   1854.71
	FillingsUpdate:  mu: +0.102669324  nElectrons: 320.000000
SCF: Cycle: 15   F: -1249.843573880518761   dF: -6.187e-06   |Residual|: 6.929e-04   |deigs|: 3.042e-05  t[s]:   1884.06
	FillingsUpdate:  mu: +0.102665671  nElectrons: 320.000000
SCF: Cycle: 16   F: -1249.843574768736289   dF: -8.882e-07   |Residual|: 5.299e-04   |deigs|: 2.521e-05  t[s]:   1913.09
	FillingsUpdate:  mu: +0.102655005  nElectrons: 320.000000
SCF: Cycle: 17   F: -1249.843575072436124   dF: -3.037e-07   |Residual|: 4.112e-04   |deigs|: 1.312e-05  t[s]:   1942.53
	FillingsUpdate:  mu: +0.102665165  nElectrons: 320.000000
SCF: Cycle: 18   F: -1249.843575319784122   dF: -2.473e-07   |Residual|: 3.292e-04   |deigs|: 1.082e-05  t[s]:   1972.33
	FillingsUpdate:  mu: +0.102661703  nElectrons: 320.000000
SCF: Cycle: 19   F: -1249.843575466551556   dF: -1.468e-07   |Residual|: 2.406e-04   |deigs|: 5.492e-06  t[s]:   2001.68
	FillingsUpdate:  mu: +0.102658660  nElectrons: 320.000000
SCF: Cycle: 20   F: -1249.843575555362577   dF: -8.881e-08   |Residual|: 1.800e-04   |deigs|: 4.138e-06  t[s]:   2030.27
	FillingsUpdate:  mu: +0.102659348  nElectrons: 320.000000
SCF: Cycle: 21   F: -1249.843575630977739   dF: -7.562e-08   |Residual|: 1.003e-04   |deigs|: 3.667e-06  t[s]:   2059.13
	FillingsUpdate:  mu: +0.102659500  nElectrons: 320.000000
SCF: Cycle: 22   F: -1249.843575649135573   dF: -1.816e-08   |Residual|: 5.063e-05   |deigs|: 1.834e-06  t[s]:   2088.57
	FillingsUpdate:  mu: +0.102658676  nElectrons: 320.000000
SCF: Cycle: 23   F: -1249.843575652150321   dF: -3.015e-09   |Residual|: 3.688e-05   |deigs|: 1.683e-06  t[s]:   2117.86
	FillingsUpdate:  mu: +0.102658958  nElectrons: 320.000000
SCF: Cycle: 24   F: -1249.843575655525228   dF: -3.375e-09   |Residual|: 2.808e-05   |deigs|: 9.483e-07  t[s]:   2146.97
SCF: Converged (|Delta E|<1.000000e-08 for 2 iters).

Setting wave functions to eigenvectors of Hamiltonian

# Ionic positions in lattice coordinates:
ion Os   0.350132184116574   0.364365505424127   0.241064330102065 1
ion Os   0.119190762603887   0.145227809413507   0.746302625140159 1
ion Os   0.350292464970375   0.875926248008048   0.246379646901663 1
ion Os   0.132242743416424   0.637990069806430   0.748154601609069 1
ion Os   0.880050511021285   0.369690895472250   0.248449232998017 1
ion Os   0.643603377011546   0.119517190535088   0.751619038660421 1
ion Os   0.859030118761112   0.869256408123407   0.248079177605303 1
ion Os   0.626191838230209   0.621757878002042   0.745244419404797 1
ion O   0.432276426807489   0.037870712393950   0.204509206786181 1
ion O   0.032836208535638   0.207254545882375   0.292862973966098 1
ion O   0.102473872593522   0.485917256057480   0.814924144210850 1
ion O   0.466763206979350   0.267238538874449   0.684870483442730 1
ion O   0.205230874294503   0.399815994077380   0.433202990690769 1
ion O   0.307151900946879   0.340394283082050   0.074665657669785 1
ion O   0.297490413484146   0.098692549150105   0.569114894884441 1
ion O   0.168515451305162   0.152748077419462   0.934654119705563 1
ion O   0.435702048170374   0.537535282844594   0.192972441902883 1
ion O   0.037817871213221   0.718797183211257   0.319388379767111 1
ion O   0.061731397367535   0.979126751063466   0.812658807286298 1
ion O   0.467112066801232   0.790591977607517   0.690407539467034 1
ion O   0.201164186897643   0.890395208378667   0.428184579231115 1
ion O   0.326811550717393   0.829883340940564   0.084959778438999 1
ion O   0.302752808179415   0.604173218815366   0.594070996077371 1
ion O   0.170955117943365   0.654474371370567   0.935093870418731 1
ion O   0.919851649614844   0.005998270194825   0.189872525341127 1
ion O   0.534885000380302   0.250707766212527   0.312206845320550 1
ion O   0.585932147086567   0.478449219871860   0.796245392803297 1
ion O   0.948473249658993   0.282255589059404   0.683432336003166 1
ion O   0.707387568543315   0.405903442737799   0.418571192251266 1
ion O   0.822075306827075   0.370792222278760   0.076562080361637 1
ion O   0.789940067505149   0.129136493617018   0.587229829117489 1
ion O   0.680386986439415   0.160803645275190   0.922861106229080 1
ion O   0.927124326950187   0.526464906247075   0.185187997250733 1
ion O   0.552387616232699   0.712846013706026   0.288746582700527 1
ion O   0.584568148455580   0.977121557514764   0.813035651201675 1
ion O   0.946035585899824   0.774559311103980   0.675878314013179 1
ion O   0.700854618071985   0.912977350628341   0.432985634839937 1
ion O   0.808785555762395   0.856786168509682   0.066949150881522 1
ion O   0.803448269677090   0.589546486723399   0.576326413396313 1
ion O   0.679684500526303   0.648970260365201   0.922295011921047 1

# Forces in Lattice coordinates:
force Os   3.290396432325774   3.346891749813997   2.888996207780522 1
force Os  -0.526026702855256  -2.528263661703732  -0.340424144018618 1
force Os   4.066638829848446   2.227460755608652   2.464355604355043 1
force Os  -1.384586538770789   0.072929318158293   0.233429874823996 1
force Os   0.776649252512254   1.973162248508679   1.169252426038516 1
force Os  -2.126403071100749   0.407411525071005   0.418772544504300 1
force Os   0.957440045785845  -0.120696054839608   1.053708410710931 1
force Os   1.551345111397105   2.769275951891139   0.230793723008287 1
force O  -1.598290209310511  -2.367650855787945  -0.326620647786056 1
force O  -0.075947817661401   0.517630712909032  -0.039529368847346 1
force O  -0.108903540349552   0.031278490058005  -0.272580776572490 1
force O   0.854703023863285  -0.751714809833693   0.600395543593570 1
force O  -0.023672659599975  -0.270674374572473  -0.689692374588290 1
force O  -0.873935507097424  -0.890377996098763  -1.202941024822586 1
force O  -0.895872940038895   0.253756438741235   0.923893804879416 1
force O  -0.424730964205359  -0.108134163412073  -0.836947681822604 1
force O  -1.377072970707967  -1.992322394161096  -0.323600829530583 1
force O  -1.213417818883425   0.678847701513257  -0.752097005356492 1
force O   1.277406802100778   2.468743162144497  -0.075460511171185 1
force O   0.441070814622551  -1.301574008731865   0.234157740117122 1
force O  -0.006230475866881  -0.001949121011358  -0.252721249562233 1
force O  -1.111662420600275  -0.912383685458853  -1.517953309574139 1
force O   0.272722395535817   0.136889646956135  -0.241826722008771 1
force O  -0.116888894306919   0.241084946790572  -0.436125430844221 1
force O  -0.135152872231153  -0.234583411633480   0.018484266311344 1
force O  -0.971666141869601  -0.193135319284730  -0.675026292428134 1
force O  -0.537169242715966  -0.674108717771244  -0.060509091054285 1
force O   0.583552637283665  -0.116920244712169   0.318395300050479 1
force O   0.586353621074526  -0.056104493080368  -0.456405702649905 1
force O  -0.729041884933199  -0.733235913903475  -0.911892669189744 1
force O   0.771671504453636  -0.181178427133789  -0.684214203430422 1
force O  -0.199433486659086  -0.270906782553860  -0.225447901575409 1
force O  -0.571096643808008  -1.686602564357692   0.255512962267417 1
force O  -1.306946767368157   1.139686481978747  -0.359434209656900 1
force O   0.643832921727528   0.732964504024402  -0.105265382133451 1
force O   1.312777578622873  -0.479720825847277   0.717186162309589 1
force O   0.298191676823331  -0.283274535207046  -0.781702027142563 1
force O   0.108346496115991  -0.054951162566370   0.456995992333837 1
force O  -0.787959347676924  -0.078456034923866   0.530745559281468 1
force O  -0.689779332835942  -0.706253090472493  -0.946116567480454 1

# Energy components:
   Eewald =     -684.7760813474070574
       EH =      440.8397438130718911
     Eloc =    -1169.1826375457853828
      Enl =     -114.4005367107102700
      Exc =     -259.4217855409135609
 Exc_core =       58.6442271600706562
       KE =      478.5012695035002253
-------------------------------------
     Etot =    -1249.7958006681733423
       TS =        0.0477749873518009
-------------------------------------
        F =    -1249.8435756555252283

IonicMinimize: Iter:   1  F: -1249.843575655525228  |grad|_K:  5.727e-02  alpha:  2.470e-01  linmin: -9.493e-01  t[s]:   2157.34

#--- Lowdin population analysis ---
# oxidation-state Os +0.908 +0.933 +0.912 +1.005 +0.995 +1.003 +0.986 +0.983
# oxidation-state O -0.307 -0.240 -0.175 -0.244 -0.182 -0.122 -0.197 -0.195 -0.270 -0.255 -0.261 -0.248 -0.155 -0.062 -0.162 -0.208 -0.167 -0.169 -0.166 -0.182 -0.199 -0.119 -0.155 -0.208 -0.263 -0.227 -0.230 -0.280 -0.203 -0.193 -0.214 -0.193


-------- Electronic minimization -----------
Will mix electronic density at each iteration.
	FillingsUpdate:  mu: +0.102658958  nElectrons: 320.000000
	FillingsUpdate:  mu: +0.094717728  nElectrons: 320.000000
SCF: Cycle:  0   F: -1245.385391728502100   dF: +2.934e+00   |Residual|: 1.316e+00   |deigs|: 1.136e-02  t[s]:   2224.03
	FillingsUpdate:  mu: +0.126358227  nElectrons: 320.000000
SCF: Cycle:  1   F: -1246.732839614572185   dF: -1.347e+00   |Residual|: 1.369e+00   |deigs|: 2.481e-02  t[s]:   2270.82
	FillingsUpdate:  mu: +0.098474000  nElectrons: 320.000000
SCF: Cycle:  2   F: -1249.436989610985847   dF: -2.704e+00   |Residual|: 4.589e-01   |deigs|: 2.062e-02  t[s]:   2316.86
	FillingsUpdate:  mu: +0.113862697  nElectrons: 320.000000
SCF: Cycle:  3   F: -1248.536301008505916   dF: +9.007e-01   |Residual|: 6.694e-01   |deigs|: 1.179e-02  t[s]:   2363.48
	FillingsUpdate:  mu: +0.100948017  nElectrons: 320.000000
SCF: Cycle:  4   F: -1249.720491620814755   dF: -1.184e+00   |Residual|: 3.156e-01   |deigs|: 5.702e-03  t[s]:   2409.99
	FillingsUpdate:  mu: +0.099419957  nElectrons: 320.000000
SCF: Cycle:  5   F: -1249.902247813858821   dF: -1.818e-01   |Residual|: 1.564e-01   |deigs|: 2.287e-03  t[s]:   2457.02
	FillingsUpdate:  mu: +0.101795959  nElectrons: 320.000000
SCF: Cycle:  6   F: -1249.975200959218910   dF: -7.295e-02   |Residual|: 5.311e-02   |deigs|: 1.713e-03  t[s]:   2502.42
	FillingsUpdate:  mu: +0.102726379  nElectrons: 320.000000
SCF: Cycle:  7   F: -1249.983176705767164   dF: -7.976e-03   |Residual|: 3.424e-02   |deigs|: 8.702e-04  t[s]:   2547.06
	FillingsUpdate:  mu: +0.102815165  nElectrons: 320.000000
SCF: Cycle:  8   F: -1249.983572224042064   dF: -3.955e-04   |Residual|: 2.412e-02   |deigs|: 5.382e-04  t[s]:   2591.90
	FillingsUpdate:  mu: +0.102726200  nElectrons: 320.000000
SCF: Cycle:  9   F: -1249.984676923491861   dF: -1.105e-03   |Residual|: 1.295e-02   |deigs|: 2.773e-04  t[s]:   2621.54
	FillingsUpdate:  mu: +0.102808870  nElectrons: 320.000000
SCF: Cycle: 10   F: -1249.984954800297146   dF: -2.779e-04   |Residual|: 8.177e-03   |deigs|: 2.374e-04  t[s]:   2651.32
	FillingsUpdate:  mu: +0.102786484  nElectrons: 320.000000
SCF: Cycle: 11   F: -1249.985126874960542   dF: -1.721e-04   |Residual|: 6.652e-03   |deigs|: 2.203e-04  t[s]:   2680.67
	FillingsUpdate:  mu: +0.102746272  nElectrons: 320.000000
SCF: Cycle: 12   F: -1249.985174214128392   dF: -4.734e-05   |Residual|: 4.093e-03   |deigs|: 1.847e-04  t[s]:   2709.60
	FillingsUpdate:  mu: +0.102733942  nElectrons: 320.000000
SCF: Cycle: 13   F: -1249.985222545017223   dF: -4.833e-05   |Residual|: 2.384e-03   |deigs|: 8.580e-05  t[s]:   2738.58
	FillingsUpdate:  mu: +0.102757960  nElectrons: 320.000000
SCF: Cycle: 14   F: -1249.985236585504254   dF: -1.404e-05   |Residual|: 1.100e-03   |deigs|: 5.507e-05  t[s]:   2767.97
	FillingsUpdate:  mu: +0.102727863  nElectrons: 320.000000
SCF: Cycle: 15   F: -1249.985237820905468   dF: -1.235e-06   |Residual|: 1.048e-03   |deigs|: 3.573e-05  t[s]:   2797.66
	FillingsUpdate:  mu: +0.102710720  nElectrons: 320.000000
SCF: Cycle: 16   F: -1249.985239251560188   dF: -1.431e-06   |Residual|: 7.491e-04   |deigs|: 2.553e-05  t[s]:   2826.96
	FillingsUpdate:  mu: +0.102719676  nElectrons: 320.000000
SCF: Cycle: 17   F: -1249.985240569511916   dF: -1.318e-06   |Residual|: 4.271e-04   |deigs|: 2.202e-05  t[s]:   2856.63
	FillingsUpdate:  mu: +0.102712184  nElectrons: 320.000000
SCF: Cycle: 18   F: -1249.985240972064503   dF: -4.026e-07   |Residual|: 2.255e-04   |deigs|: 9.961e-06  t[s]:   2885.90
	FillingsUpdate:  mu: +0.102709060  nElectrons: 320.000000
SCF: Cycle: 19   F: -1249.985241058549491   dF: -8.648e-08   |Residual|: 1.449e-04   |deigs|: 7.647e-06  t[s]:   2915.54
	FillingsUpdate:  mu: +0.102706537  nElectrons: 320.000000
SCF: Cycle: 20   F: -1249.985241082753646   dF: -2.420e-08   |Residual|: 8.192e-05   |deigs|: 3.460e-06  t[s]:   2944.99
	FillingsUpdate:  mu: +0.102705299  nElectrons: 320.000000
SCF: Cycle: 21   F: -1249.985241084580366   dF: -1.827e-09   |Residual|: 1.202e-04   |deigs|: 3.446e-06  t[s]:   2974.20
	FillingsUpdate:  mu: +0.102705555  nElectrons: 320.000000
SCF: Cycle: 22   F: -1249.985241112289941   dF: -2.771e-08   |Residual|: 4.353e-05   |deigs|: 2.014e-06  t[s]:   3003.88
	FillingsUpdate:  mu: +0.102705577  nElectrons: 320.000000
SCF: Cycle: 23   F: -1249.985241116256020   dF: -3.966e-09   |Residual|: 3.896e-05   |deigs|: 1.156e-06  t[s]:   3034.03
	FillingsUpdate:  mu: +0.102705277  nElectrons: 320.000000
SCF: Cycle: 24   F: -1249.985241118416752   dF: -2.161e-09   |Residual|: 2.060e-05   |deigs|: 1.029e-06  t[s]:   3063.29
SCF: Converged (|Delta E|<1.000000e-08 for 2 iters).

Setting wave functions to eigenvectors of Hamiltonian

# Ionic positions in lattice coordinates:
ion Os   0.352783604069654   0.366283002362178   0.243846636904788 1
ion Os   0.119876908691889   0.142180189006465   0.746347458819335 1
ion Os   0.355454475727689   0.875629850539841   0.248246045757711 1
ion Os   0.129728320418275   0.638869827355883   0.749027208381299 1
ion Os   0.879723765251231   0.371609610489022   0.249769355297252 1
ion Os   0.639639952282160   0.121379729593821   0.752795306945459 1
ion Os   0.860469360401243   0.868296201328360   0.249743217397688 1
ion Os   0.627119759991962   0.624173056065345   0.744670796458256 1
ion O   0.430881426737558   0.035630911139810   0.204995048596699 1
ion O   0.032364895343810   0.208048619615921   0.292725193542044 1
ion O   0.102343720967483   0.486071230469356   0.814415917121769 1
ion O   0.468546439649310   0.265575984840681   0.685890655299650 1
ion O   0.205611152464170   0.399602380865323   0.431938782340732 1
ion O   0.306811070818799   0.340088467971799   0.073683683567709 1
ion O   0.295278813604944   0.099425852755008   0.571306365403698 1
ion O   0.168133255518211   0.153028193693821   0.933127818942290 1
ion O   0.434471056209477   0.535669517101141   0.193299264111581 1
ion O   0.035422871899897   0.720634213964065   0.318238613293350 1
ion O   0.062606746218048   0.981737638857100   0.811487806730651 1
ion O   0.468662869155175   0.788514823389351   0.690934646655141 1
ion O   0.201272607615593   0.890450962168721   0.427691002640141 1
ion O   0.326052877512705   0.829926560560776   0.083468615105182 1
ion O   0.303110106765594   0.604271364385043   0.593581830947891 1
ion O   0.170744577347378   0.654976351374801   0.934218593409925 1
ion O   0.919741068091912   0.005755810824790   0.190019173813651 1
ion O   0.533506934250842   0.251150384837898   0.311318360132997 1
ion O   0.585450483929325   0.478160655970217   0.796372782861148 1
ion O   0.949555676855465   0.281629281187030   0.683874023817095 1
ion O   0.708673596962922   0.405556008498890   0.417463826698405 1
ion O   0.821643581305217   0.370422991489792   0.075431890446590 1
ion O   0.791424557164818   0.128492903288437   0.585968414318058 1
ion O   0.680259249986430   0.160606647139151   0.922564599457542 1
ion O   0.927028014496076   0.524493211208115   0.186279352025760 1
ion O   0.549296020048825   0.715370039023845   0.288360045151320 1
ion O   0.585325649333583   0.977710405098069   0.812440539285262 1
ion O   0.948485826630254   0.772942762096991   0.676890185004557 1
ion O   0.701897554905798   0.912549112754798   0.431357527984966 1
ion O   0.808850806927573   0.856549453685133   0.067902231239743 1
ion O   0.801841132262711   0.589851501327041   0.577705326448258 1
ion O   0.679249212185995   0.648644291676172   0.920821857644406 1

# Forces in Lattice coordinates:
force Os   2.507080790115115   2.961973047171760   1.549590298777447 1
force Os  -0.659710825055366  -2.239816807702032  -0.254375090819357 1
force Os   3.134519261010602   1.446060424115785   1.451110104413885 1
force Os  -0.825730369438967   0.013997622565960   0.063753340320269 1
force Os   0.389860601976545   1.213737878423030   0.463692029464498 1
force Os  -1.188149481809664   0.544825099809067   0.073459588084027 1
force Os   0.757165470308821  -0.067721655912940   0.680336884524582 1
force Os   0.843203574367858   1.484056985496341   0.159232778404843 1
force O  -1.626290344658386  -2.481433172044406  -0.310863590604296 1
force O  -0.070818788712585   0.593922200922318  -0.016880902462765 1
force O  -0.164661767058703  -0.031492470143856  -0.256226187251708 1
force O   0.584204746921674  -0.566854406478616   0.486878251174774 1
force O  -0.034831846874029  -0.214783531397852  -0.546331082133946 1
force O  -0.189283264670263  -0.250902418538793  -0.183184078730907 1
force O  -0.771872097441552   0.191679663073883   0.799221888121222 1
force O  -0.395277958838113  -0.121969206931180  -0.796710770773828 1
force O  -1.520854567294037  -2.207875143556771  -0.320854171470373 1
force O  -1.038044244256271   0.545948994467643  -0.640638412774326 1
force O   1.222272618024141   2.323415924119388  -0.085089657909104 1
force O   0.361465073985182  -1.052621844549126   0.175530363306397 1
force O   0.185783712059468   0.062263656102374  -0.335731461616602 1
force O  -0.452986602426100  -0.101058596372324  -0.503765937132995 1
force O  -0.001494618361265   0.128025296277932  -0.059420054813481 1
force O  -0.123021745651085   0.269898248917288  -0.370417188204552 1
force O  -0.095123027979064  -0.195669432507325   0.039066449294002 1
force O  -0.725311305535945  -0.283458119423621  -0.506753896699933 1
force O  -0.172506849920283   0.053835232730172  -0.050684771620750 1
force O   0.615821699917660  -0.183199444956538   0.330278503969201 1
force O   0.454765309526321  -0.008098488191690  -0.301718899784666 1
force O  -0.387829261286408  -0.474704742656949  -0.407403534373936 1
force O   0.262458927148709  -0.378617734050545  -0.281432311933839 1
force O  -0.218811832155848  -0.239366202028243  -0.181470642987536 1
force O  -0.395746627840857  -1.313613492445207   0.277495387126369 1
force O  -1.202641350523283   1.153471977686676  -0.293374168825029 1
force O   0.509651769807720   0.583773790439913  -0.092183846768988 1
force O   1.093601431648246  -0.382254277377874   0.623941657097125 1
force O   0.221149926798068  -0.266812078391283  -0.633832583022629 1
force O   0.173446716017086  -0.027853509802462   0.548825011364226 1
force O  -0.580341522788057  -0.001293069823734   0.396543772968403 1
force O  -0.476190059773307  -0.477961012543835  -0.689371877716809 1

# Energy components:
   Eewald =     -681.9285137747694989
       EH =      443.6020487977003768
     Eloc =    -1174.9437497044295924
      Enl =     -114.4320491594922942
      Exc =     -259.5229133783549287
 Exc_core =       58.6442263419306684
       KE =      478.6296905712861189
-------------------------------------
     Etot =    -1249.9512603061291429
       TS =        0.0339808122876178
-------------------------------------
        F =    -1249.9852411184167522

IonicMinimize: Iter:   2  F: -1249.985241118416752  |grad|_K:  4.377e-02  alpha:  3.882e-01  linmin: -9.820e-01  t[s]:   3073.61

#--- Lowdin population analysis ---
# oxidation-state Os +0.929 +0.956 +0.930 +1.011 +1.002 +1.013 +0.998 +0.998
# oxidation-state O -0.302 -0.242 -0.175 -0.228 -0.175 -0.162 -0.200 -0.194 -0.271 -0.247 -0.251 -0.243 -0.162 -0.102 -0.180 -0.207 -0.169 -0.151 -0.189 -0.189 -0.194 -0.142 -0.182 -0.208 -0.253 -0.216 -0.229 -0.272 -0.207 -0.207 -0.214 -0.187


-------- Electronic minimization -----------
Will mix electronic density at each iteration.
	FillingsUpdate:  mu: +0.102705277  nElectrons: 320.000000
	FillingsUpdate:  mu: +0.094715943  nElectrons: 320.000000
SCF: Cycle:  0   F: -1246.087895308590532   dF: +2.486e+00   |Residual|: 1.241e+00   |deigs|: 1.039e-02  t[s]:   3138.69
	FillingsUpdate:  mu: +0.123429051  nElectrons: 320.000000
SCF: Cycle:  1   F: -1247.411694297726171   dF: -1.324e+00   |Residual|: 1.265e+00   |deigs|: 2.655e-02  t[s]:   3185.39
	FillingsUpdate:  mu: +0.099307042  nElectrons: 320.000000
SCF: Cycle:  2   F: -1249.730891041559062   dF: -2.319e+00   |Residual|: 3.759e-01   |deigs|: 1.865e-02  t[s]:   3231.86
	FillingsUpdate:  mu: +0.113083161  nElectrons: 320.000000
SCF: Cycle:  3   F: -1249.097315937387521   dF: +6.336e-01   |Residual|: 5.806e-01   |deigs|: 9.595e-03  t[s]:   3278.36
	FillingsUpdate:  mu: +0.100196919  nElectrons: 320.000000
SCF: Cycle:  4   F: -1249.965582965791327   dF: -8.683e-01   |Residual|: 2.230e-01   |deigs|: 6.192e-03  t[s]:   3325.89
	FillingsUpdate:  mu: +0.100822749  nElectrons: 320.000000
SCF: Cycle:  5   F: -1250.065947774260167   dF: -1.004e-01   |Residual|: 9.634e-02   |deigs|: 1.769e-03  t[s]:   3371.65
	FillingsUpdate:  mu: +0.103159074  nElectrons: 320.000000
SCF: Cycle:  6   F: -1250.096283047917495   dF: -3.034e-02   |Residual|: 4.055e-02   |deigs|: 1.601e-03  t[s]:   3417.85
	FillingsUpdate:  mu: +0.103478227  nElectrons: 320.000000
SCF: Cycle:  7   F: -1250.095832094200887   dF: +4.510e-04   |Residual|: 3.790e-02   |deigs|: 5.731e-04  t[s]:   3459.88
	FillingsUpdate:  mu: +0.102898204  nElectrons: 320.000000
SCF: Cycle:  8   F: -1250.098431788566586   dF: -2.600e-03   |Residual|: 1.430e-02   |deigs|: 4.791e-04  t[s]:   3505.03
	FillingsUpdate:  mu: +0.103047280  nElectrons: 320.000000
SCF: Cycle:  9   F: -1250.098653360790649   dF: -2.216e-04   |Residual|: 7.994e-03   |deigs|: 2.124e-04  t[s]:   3533.99
	FillingsUpdate:  mu: +0.103153658  nElectrons: 320.000000
SCF: Cycle: 10   F: -1250.098849732646386   dF: -1.964e-04   |Residual|: 6.374e-03   |deigs|: 3.189e-04  t[s]:   3563.78
	FillingsUpdate:  mu: +0.103178571  nElectrons: 320.000000
SCF: Cycle: 11   F: -1250.098977223265138   dF: -1.275e-04   |Residual|: 3.877e-03   |deigs|: 1.876e-04  t[s]:   3593.57
	FillingsUpdate:  mu: +0.103135943  nElectrons: 320.000000
SCF: Cycle: 12   F: -1250.099009274958235   dF: -3.205e-05   |Residual|: 1.965e-03   |deigs|: 9.837e-05  t[s]:   3622.82
	FillingsUpdate:  mu: +0.103112013  nElectrons: 320.000000
SCF: Cycle: 13   F: -1250.099022059013123   dF: -1.278e-05   |Residual|: 1.239e-03   |deigs|: 8.469e-05  t[s]:   3652.68
	FillingsUpdate:  mu: +0.103093371  nElectrons: 320.000000
SCF: Cycle: 14   F: -1250.099022981408552   dF: -9.224e-07   |Residual|: 1.015e-03   |deigs|: 3.482e-05  t[s]:   3682.05
	FillingsUpdate:  mu: +0.103075602  nElectrons: 320.000000
SCF: Cycle: 15   F: -1250.099026146708638   dF: -3.165e-06   |Residual|: 5.130e-04   |deigs|: 4.870e-05  t[s]:   3711.53
	FillingsUpdate:  mu: +0.103068720  nElectrons: 320.000000
SCF: Cycle: 16   F: -1250.099026601299556   dF: -4.546e-07   |Residual|: 3.175e-04   |deigs|: 1.391e-05  t[s]:   3740.75
	FillingsUpdate:  mu: +0.103069152  nElectrons: 320.000000
SCF: Cycle: 17   F: -1250.099026723727093   dF: -1.224e-07   |Residual|: 2.650e-04   |deigs|: 1.484e-05  t[s]:   3770.83
	FillingsUpdate:  mu: +0.103065286  nElectrons: 320.000000
SCF: Cycle: 18   F: -1250.099026871125943   dF: -1.474e-07   |Residual|: 1.242e-04   |deigs|: 4.474e-06  t[s]:   3800.50
	FillingsUpdate:  mu: +0.103062536  nElectrons: 320.000000
SCF: Cycle: 19   F: -1250.099026900251147   dF: -2.913e-08   |Residual|: 8.307e-05   |deigs|: 3.655e-06  t[s]:   3830.56
	FillingsUpdate:  mu: +0.103062897  nElectrons: 320.000000
SCF: Cycle: 20   F: -1250.099026915598415   dF: -1.535e-08   |Residual|: 3.990e-05   |deigs|: 3.381e-06  t[s]:   3860.51
	FillingsUpdate:  mu: +0.103062423  nElectrons: 320.000000
SCF: Cycle: 21   F: -1250.099026919260041   dF: -3.662e-09   |Residual|: 3.277e-05   |deigs|: 1.415e-06  t[s]:   3890.41
	FillingsUpdate:  mu: +0.103062494  nElectrons: 320.000000
SCF: Cycle: 22   F: -1250.099026922073563   dF: -2.814e-09   |Residual|: 1.668e-05   |deigs|: 1.108e-06  t[s]:   3919.40
SCF: Converged (|Delta E|<1.000000e-08 for 2 iters).

Setting wave functions to eigenvectors of Hamiltonian

# Ionic positions in lattice coordinates:
ion Os   0.355428170817046   0.369215660226866   0.245238664135951 1
ion Os   0.120096286405247   0.138950078706686   0.746645302688990 1
ion Os   0.360859143222235   0.875206325895930   0.249714297786252 1
ion Os   0.128046712795744   0.639424293157366   0.749459316867111 1
ion Os   0.879448981854665   0.373105727211719   0.250137295294262 1
ion Os   0.636818478649190   0.123190028567886   0.753179162888938 1
ion Os   0.861921175904188   0.867474668774561   0.250920689490108 1
ion Os   0.627712123467256   0.625671600134056   0.744390446250722 1
ion O   0.429133432204129   0.032573955880937   0.205683159008435 1
ion O   0.031688563380091   0.209209377776458   0.292579335145413 1
ion O   0.102080150207774   0.486197586584130   0.813854836866003 1
ion O   0.469980360708101   0.264117268646699   0.686950943292195 1
ion O   0.205963680167868   0.399401504679261   0.430647491627011 1
ion O   0.306774810377460   0.339906228369944   0.073783924408604 1
ion O   0.292909058572377   0.100162364624370   0.573695120477513 1
ion O   0.167712385719568   0.153320774914537   0.931281578798041 1
ion O   0.432704532669586   0.532993163204305   0.193851845275543 1
ion O   0.032901695420525   0.722520329826288   0.317025200087057 1
ion O   0.063714127455303   0.984839993176517   0.810035284647575 1
ion O   0.470228057706658   0.786428776129668   0.691420771738605 1
ion O   0.201995337555918   0.890482493158105   0.426573096663581 1
ion O   0.325383457401668   0.830371452625349   0.082799312129310 1
ion O   0.302843964551818   0.604557930467718   0.593547831626685 1
ion O   0.170399156069634   0.655664823049753   0.933279160171835 1
ion O   0.919665364674129   0.005484276387716   0.190228629799068 1
ion O   0.532398585438796   0.251260890207584   0.310520685997531 1
ion O   0.585075555226442   0.478643664330124   0.796236737600552 1
ion O   0.951073487051508   0.280667093838863   0.684472603343704 1
ion O   0.709839307219422   0.405280007086368   0.416543067322839 1
ion O   0.821388055740482   0.370012694718863   0.074931960190345 1
ion O   0.792238377040405   0.127663383575602   0.585486292561272 1
ion O   0.679994392528903   0.160422220315956   0.922288007674328 1
ion O   0.927031320119741   0.522544306506513   0.187519344449766 1
ion O   0.545608467142086   0.718480436712919   0.287970965680011 1
ion O   0.586086084160584   0.978314667213704   0.811809992443166 1
ion O   0.950994675856495   0.771297664617694   0.678009326939213 1
ion O   0.702928713104147   0.912060207943384   0.429735865850657 1
ion O   0.809026202357453   0.856210170316971   0.069324816717613 1
ion O   0.800343783454506   0.590231534128543   0.578941094786426 1
ion O   0.678903785600855   0.648400376310084   0.919506541277768 1

# Forces in Lattice coordinates:
force Os   1.978781766370160   2.764225868161098   0.779287653123623 1
force Os  -0.632275039388812  -1.750948936236664  -0.151054950866248 1
force Os   2.216955577639263   0.967478095588396   0.737757520603484 1
force Os  -0.434833577607039  -0.089423498744586   0.042834801788031 1
force Os   0.142651516468377   0.621526189250146   0.117809594111753 1
force Os  -0.569319067227293   0.435985158823430   0.000656180347292 1
force Os   0.527532737724724   0.043458331208655   0.387262744733199 1
force Os   0.448392611937531   0.738212503064741   0.107517883639388 1
force O  -1.557475761334303  -2.461027249570815  -0.279926136367358 1
force O  -0.045735126057304   0.608400359584222   0.001522043069970 1
force O  -0.200663080186150  -0.076919118807567  -0.241582371723964 1
force O   0.289985444265580  -0.337672467691295   0.337799480120752 1
force O  -0.010250408846277  -0.151237958563247  -0.462974272322302 1
force O   0.211683645518955   0.136286165892846   0.362963526187119 1
force O  -0.633005290100550   0.119895669693369   0.650751408948191 1
force O  -0.358590356169899  -0.132500040343436  -0.727398097442398 1
force O  -1.642518716094497  -2.382328161087631  -0.321389899560739 1
force O  -0.798836945523217   0.364443955204830  -0.501414608464763 1
force O   1.048806484539994   1.968024172815811  -0.094297310311985 1
force O   0.244560826042914  -0.810016625203518   0.105883579694911 1
force O   0.342760437446215   0.121206253008588  -0.364064705368755 1
force O  -0.007828316396758   0.393744799172705   0.099019323481432 1
force O  -0.111402460052629   0.123090452088357   0.004997711403691 1
force O  -0.114854879097683   0.295483011988875  -0.304711264779725 1
force O  -0.036139001280922  -0.122728229295298   0.053404125117938 1
force O  -0.506212158220062  -0.360670049480293  -0.367702170711627 1
force O  -0.039605941325707   0.315141863274182  -0.045896958915876 1
force O   0.586957828794208  -0.228372010052480   0.316835302431261 1
force O   0.339270662142969   0.025109300177866  -0.182882285038644 1
force O  -0.241555083964148  -0.346162699901769  -0.199622102344533 1
force O   0.030384231587252  -0.442443718758770  -0.110299801473255 1
force O  -0.213453876209623  -0.191017126630189  -0.134671286870955 1
force O  -0.200004035018939  -0.901034631290374   0.277591157822422 1
force O  -0.962141868712825   1.051097403297973  -0.186682843457956 1
force O   0.415370415431404   0.484688897959213  -0.087678260269601 1
force O   0.842715098879694  -0.259983840484498   0.500609563888456 1
force O   0.144873547122971  -0.250613125149340  -0.495858287816059 1
force O   0.183725478032523  -0.042859475127768   0.550382274946672 1
force O  -0.393846068181595   0.044398330372104   0.263254457034142 1
force O  -0.283142855040449  -0.283380997286372  -0.438329081276070 1

# Energy components:
   Eewald =     -677.3820320626840612
       EH =      447.8887239120953723
     Eloc =    -1184.0733431012668007
      Enl =     -114.4854785447847121
      Exc =     -259.7123679359746120
 Exc_core =       58.6442343110053983
       KE =      479.0435078756541998
-------------------------------------
     Etot =    -1250.0767555459551659
       TS =        0.0222713761184035
-------------------------------------
        F =    -1250.0990269220735627

IonicMinimize: Iter:   3  F: -1250.099026922073563  |grad|_K:  3.512e-02  alpha:  2.262e-01  linmin: -9.822e-01  t[s]:   3929.88

#--- Lowdin population analysis ---
# oxidation-state Os +0.949 +0.981 +0.952 +1.018 +1.011 +1.022 +1.010 +1.012
# oxidation-state O -0.292 -0.242 -0.177 -0.213 -0.176 -0.191 -0.203 -0.197 -0.272 -0.237 -0.238 -0.239 -0.174 -0.137 -0.193 -0.209 -0.172 -0.142 -0.203 -0.198 -0.195 -0.157 -0.199 -0.210 -0.244 -0.203 -0.231 -0.263 -0.212 -0.219 -0.215 -0.186


-------- Electronic minimization -----------
Will mix electronic density at each iteration.
	FillingsUpdate:  mu: +0.103062494  nElectrons: 320.000000
	FillingsUpdate:  mu: +0.095488390  nElectrons: 320.000000
SCF: Cycle:  0   F: -1247.456321310825160   dF: +1.616e+00   |Residual|: 1.034e+00   |deigs|: 7.790e-03  t[s]:   3995.53
	FillingsUpdate:  mu: +0.116335415  nElectrons: 320.000000
SCF: Cycle:  1   F: -1248.438683740866509   dF: -9.824e-01   |Residual|: 1.030e+00   |deigs|: 2.308e-02  t[s]:   4042.08
	FillingsUpdate:  mu: +0.100134977  nElectrons: 320.000000
SCF: Cycle:  2   F: -1249.990319938600578   dF: -1.552e+00   |Residual|: 2.728e-01   |deigs|: 1.510e-02  t[s]:   4088.36
	FillingsUpdate:  mu: +0.109427335  nElectrons: 320.000000
SCF: Cycle:  3   F: -1249.749497639115134   dF: +2.408e-01   |Residual|: 4.065e-01   |deigs|: 6.934e-03  t[s]:   4135.18
	FillingsUpdate:  mu: +0.101476478  nElectrons: 320.000000
SCF: Cycle:  4   F: -1250.146813161324872   dF: -3.973e-01   |Residual|: 1.130e-01   |deigs|: 5.102e-03  t[s]:   4182.55
	FillingsUpdate:  mu: +0.102473133  nElectrons: 320.000000
SCF: Cycle:  5   F: -1250.175513505795152   dF: -2.870e-02   |Residual|: 4.447e-02   |deigs|: 1.215e-03  t[s]:   4227.72
	FillingsUpdate:  mu: +0.103410058  nElectrons: 320.000000
SCF: Cycle:  6   F: -1250.178967501366060   dF: -3.454e-03   |Residual|: 3.526e-02   |deigs|: 8.391e-04  t[s]:   4270.29
	FillingsUpdate:  mu: +0.103226107  nElectrons: 320.000000
SCF: Cycle:  7   F: -1250.180650160962387   dF: -1.683e-03   |Residual|: 1.431e-02   |deigs|: 5.021e-04  t[s]:   4315.41
	FillingsUpdate:  mu: +0.103127560  nElectrons: 320.000000
SCF: Cycle:  8   F: -1250.180971824393964   dF: -3.217e-04   |Residual|: 8.038e-03   |deigs|: 2.276e-04  t[s]:   4344.61
	FillingsUpdate:  mu: +0.103298968  nElectrons: 320.000000
SCF: Cycle:  9   F: -1250.181045994105943   dF: -7.417e-05   |Residual|: 5.933e-03   |deigs|: 2.265e-04  t[s]:   4374.20
	FillingsUpdate:  mu: +0.103333206  nElectrons: 320.000000
SCF: Cycle: 10   F: -1250.181194181292085   dF: -1.482e-04   |Residual|: 3.037e-03   |deigs|: 1.695e-04  t[s]:   4404.30
	FillingsUpdate:  mu: +0.103303808  nElectrons: 320.000000
SCF: Cycle: 11   F: -1250.181226269546414   dF: -3.209e-05   |Residual|: 1.477e-03   |deigs|: 1.157e-04  t[s]:   4433.77
	FillingsUpdate:  mu: +0.103279581  nElectrons: 320.000000
SCF: Cycle: 12   F: -1250.181233692794422   dF: -7.423e-06   |Residual|: 1.197e-03   |deigs|: 6.156e-05  t[s]:   4463.45
	FillingsUpdate:  mu: +0.103249129  nElectrons: 320.000000
SCF: Cycle: 13   F: -1250.181238603572410   dF: -4.911e-06   |Residual|: 5.395e-04   |deigs|: 6.368e-05  t[s]:   4493.12
	FillingsUpdate:  mu: +0.103237852  nElectrons: 320.000000
SCF: Cycle: 14   F: -1250.181239223249577   dF: -6.197e-07   |Residual|: 4.516e-04   |deigs|: 3.352e-05  t[s]:   4522.88
	FillingsUpdate:  mu: +0.103234943  nElectrons: 320.000000
SCF: Cycle: 15   F: -1250.181239729029812   dF: -5.058e-07   |Residual|: 2.271e-04   |deigs|: 1.533e-05  t[s]:   4552.43
	FillingsUpdate:  mu: +0.103232273  nElectrons: 320.000000
SCF: Cycle: 16   F: -1250.181239814020955   dF: -8.499e-08   |Residual|: 1.280e-04   |deigs|: 1.010e-05  t[s]:   4581.78
	FillingsUpdate:  mu: +0.103231208  nElectrons: 320.000000
SCF: Cycle: 17   F: -1250.181239853521674   dF: -3.950e-08   |Residual|: 7.461e-05   |deigs|: 4.371e-06  t[s]:   4610.94
	FillingsUpdate:  mu: +0.103229721  nElectrons: 320.000000
SCF: Cycle: 18   F: -1250.181239864980398   dF: -1.146e-08   |Residual|: 4.456e-05   |deigs|: 3.393e-06  t[s]:   4640.90
	FillingsUpdate:  mu: +0.103229919  nElectrons: 320.000000
SCF: Cycle: 19   F: -1250.181239866771648   dF: -1.791e-09   |Residual|: 3.359e-05   |deigs|: 1.163e-06  t[s]:   4670.53
	FillingsUpdate:  mu: +0.103230200  nElectrons: 320.000000
SCF: Cycle: 20   F: -1250.181239869031288   dF: -2.260e-09   |Residual|: 2.260e-05   |deigs|: 1.019e-06  t[s]:   4700.86
SCF: Converged (|Delta E|<1.000000e-08 for 2 iters).

Setting wave functions to eigenvectors of Hamiltonian

# Ionic positions in lattice coordinates:
ion Os   0.357656241233838   0.372880100075012   0.245745091643706 1
ion Os   0.119957127321188   0.136461991113236   0.747102760432332 1
ion Os   0.364914674923214   0.875184996444436   0.250608250490575 1
ion Os   0.127219468844681   0.639435907492965   0.749913523790389 1
ion Os   0.879265823848262   0.373866132021304   0.250252558768621 1
ion Os   0.635234232671392   0.124220314042081   0.753606483116625 1
ion Os   0.862847121089171   0.867182310476260   0.251502790305533 1
ion Os   0.628153122684713   0.626536764315293   0.744245287687970 1
ion O   0.427408982908267   0.029204118888134   0.206468515147561 1
ion O   0.031025988866040   0.210451249376411   0.292448148353368 1
ion O   0.101731685150456   0.486280164482739   0.813302973037935 1
ion O   0.470516444784372   0.263399379373218   0.687721543340729 1
ion O   0.206372769421480   0.399262862683511   0.429331626973186 1
ion O   0.306979278329559   0.339876391827826   0.074414990200339 1
ion O   0.290880320287676   0.100718594253507   0.575775494409972 1
ion O   0.167317840410715   0.153561745978509   0.929461578989013 1
ion O   0.430556840182162   0.529777102673929   0.194579438632246 1
ion O   0.030990412349630   0.723867811967380   0.316046310045897 1
ion O   0.064743339366959   0.987574012152450   0.808661630217835 1
ion O   0.471378564366887   0.784784703768063   0.691737108205414 1
ion O   0.203214597651015   0.890492830193462   0.425138732265422 1
ion O   0.325002607302099   0.831057833136263   0.082729048027240 1
ion O   0.302427485485552   0.604906390303966   0.593575708221764 1
ion O   0.169987415809982   0.656453277249036   0.932427365728175 1
ion O   0.919685917213314   0.005299544512233   0.190430644988747 1
ion O   0.531785811407558   0.250968501496330   0.309922334572106 1
ion O   0.584681376315362   0.479240580091430   0.796067989112084 1
ion O   0.952662859560891   0.279571343931832   0.685111721192305 1
ion O   0.710712907402167   0.405112142596471   0.415919020450818 1
ion O   0.821147276887576   0.369628022969695   0.074529355824522 1
ion O   0.792841114145273   0.126823204653558   0.585169431397908 1
ion O   0.679656455520775   0.160307078347234   0.922098208809365 1
ion O   0.927218409686656   0.521107397106532   0.188605702346395 1
ion O   0.542450162963189   0.721286408726688   0.287776077244493 1
ion O   0.586783947043264   0.978901375290752   0.811178696515401 1
ion O   0.952955236649124   0.770063390911937   0.678950700513160 1
ion O   0.703746003164854   0.911586000283470   0.428407947781949 1
ion O   0.809242706751341   0.855782924856448   0.070818723604120 1
ion O   0.799262525567255   0.590585244495554   0.579758638607345 1
ion O   0.678724904432091   0.648259855440846   0.918677849007435 1

# Forces in Lattice coordinates:
force Os   1.569885877409019   2.420523228779157   0.326691460762053 1
force Os  -0.462754233335668  -1.181746911316355  -0.085364747568720 1
force Os   1.421812984836718   0.645116914340948   0.256643969816157 1
force Os  -0.193959182356049  -0.145102043291608   0.021636038832213 1
force Os  -0.031409502041197   0.278392636027449  -0.098535899093761 1
force Os  -0.202441192464041   0.384600566863051  -0.080772602825828 1
force Os   0.362169333695392   0.123552339349382   0.217049904417500 1
force Os   0.220893384834248   0.286494003911038   0.083751120335693 1
force O  -1.385050019540161  -2.245756610143104  -0.240783015419736 1
force O  -0.003420516897352   0.559474987251443   0.023073561012285 1
force O  -0.230149468783148  -0.137450426697189  -0.223651059739045 1
force O   0.111408575487491  -0.192810991664961   0.242890595402626 1
force O   0.032579394341813  -0.073754380671741  -0.409664133725670 1
force O   0.474677643816058   0.416129774346217   0.677239713996709 1
force O  -0.508068443888167   0.061318717734620   0.515278840638278 1
force O  -0.304014337243464  -0.119021001218864  -0.619957085054764 1
force O  -1.660250136417687  -2.383800288098719  -0.310201512389103 1
force O  -0.592616044355797   0.211812316039943  -0.385571026693502 1
force O   0.778660043325923   1.449645140003348  -0.097588537829315 1
force O   0.142287580747672  -0.619682561774807   0.048555583131662 1
force O   0.410055430967812   0.162283567450011  -0.327978636271222 1
force O   0.237116343869303   0.639332872267083   0.384667590330464 1
force O  -0.151220434610096   0.115349732339665   0.028614137004057 1
force O  -0.087032562389929   0.319425642982432  -0.225942615026710 1
force O   0.024176477623630  -0.032414499768539   0.059135017586648 1
force O  -0.390948019627984  -0.369380431173155  -0.293686628198043 1
force O   0.017447206998039   0.419528745460498  -0.042074836023839 1
force O   0.508521454605312  -0.230770442015823   0.282195127148126 1
force O   0.250017944699572   0.040725087528707  -0.097861709213991 1
force O  -0.156114818856896  -0.266459421270065  -0.082295687077799 1
force O  -0.102380969778107  -0.466937378421849  -0.009862961317873 1
force O  -0.178729180048967  -0.134384168071954  -0.066503996771214 1
force O  -0.060478494994194  -0.604545072775736   0.269632483998584 1
force O  -0.659939588947905   0.860545207772468  -0.068609738786670 1
force O   0.327195482064928   0.362349265014327  -0.080401585101408 1
force O   0.644794134797138  -0.163559545960050   0.401266058785763 1
force O   0.076791246033700  -0.232384331054482  -0.385190302497815 1
force O   0.152764091454568  -0.076264397846128   0.489654351022001 1
force O  -0.255047305857042   0.069186175610122   0.160508523047395 1
force O  -0.147670911041496  -0.149631068896730  -0.257420540339375 1

# Energy components:
   Eewald =     -672.8480996355792740
       EH =      452.1358538771505096
     Eloc =    -1193.1702120811132772
      Enl =     -114.5401460542208838
      Exc =     -259.9103854586298894
 Exc_core =       58.6442399481105383
       KE =      479.5220192186991426
-------------------------------------
     Etot =    -1250.1667301855832193
       TS =        0.0145096834480727
-------------------------------------
        F =    -1250.1812398690312875

IonicMinimize: Iter:   4  F: -1250.181239869031288  |grad|_K:  2.873e-02  alpha:  1.728e-01  linmin: -9.748e-01  t[s]:   4711.32

#--- Lowdin population analysis ---
# oxidation-state Os +0.967 +1.002 +0.973 +1.025 +1.019 +1.028 +1.020 +1.021
# oxidation-state O -0.280 -0.240 -0.178 -0.205 -0.182 -0.214 -0.207 -0.201 -0.268 -0.230 -0.226 -0.236 -0.187 -0.165 -0.201 -0.211 -0.175 -0.144 -0.211 -0.206 -0.196 -0.169 -0.209 -0.211 -0.239 -0.193 -0.231 -0.257 -0.215 -0.226 -0.215 -0.187


-------- Electronic minimization -----------
Will mix electronic density at each iteration.
	FillingsUpdate:  mu: +0.103230200  nElectrons: 320.000000
	FillingsUpdate:  mu: +0.097436747  nElectrons: 320.000000
SCF: Cycle:  0   F: -1248.150523179474249   dF: +1.234e+00   |Residual|: 9.035e-01   |deigs|: 5.989e-03  t[s]:   4777.97
	FillingsUpdate:  mu: +0.109878899  nElectrons: 320.000000
SCF: Cycle:  1   F: -1249.018428926457545   dF: -8.679e-01   |Residual|: 8.788e-01   |deigs|: 2.032e-02  t[s]:   4824.61
	FillingsUpdate:  mu: +0.101559697  nElectrons: 320.000000
SCF: Cycle:  2   F: -1250.145604954033161   dF: -1.127e+00   |Residual|: 2.067e-01   |deigs|: 1.313e-02  t[s]:   4872.31
	FillingsUpdate:  mu: +0.105471262  nElectrons: 320.000000
SCF: Cycle:  3   F: -1250.056800276826834   dF: +8.880e-02   |Residual|: 2.836e-01   |deigs|: 4.651e-03  t[s]:   4920.99
	FillingsUpdate:  mu: +0.102787695  nElectrons: 320.000000
SCF: Cycle:  4   F: -1250.232522108329476   dF: -1.757e-01   |Residual|: 5.995e-02   |deigs|: 3.341e-03  t[s]:   4968.45
	FillingsUpdate:  mu: +0.103353432  nElectrons: 320.000000
SCF: Cycle:  5   F: -1250.237199252449273   dF: -4.677e-03   |Residual|: 4.419e-02   |deigs|: 9.149e-04  t[s]:   5014.48
	FillingsUpdate:  mu: +0.103357327  nElectrons: 320.000000
SCF: Cycle:  6   F: -1250.239706134564585   dF: -2.507e-03   |Residual|: 2.310e-02   |deigs|: 4.249e-04  t[s]:   5059.14
	FillingsUpdate:  mu: +0.103459077  nElectrons: 320.000000
SCF: Cycle:  7   F: -1250.240657954751896   dF: -9.518e-04   |Residual|: 7.676e-03   |deigs|: 4.297e-04  t[s]:   5099.43
	FillingsUpdate:  mu: +0.103523259  nElectrons: 320.000000
SCF: Cycle:  8   F: -1250.240683260763490   dF: -2.531e-05   |Residual|: 6.789e-03   |deigs|: 1.554e-04  t[s]:   5129.20
	FillingsUpdate:  mu: +0.103633110  nElectrons: 320.000000
SCF: Cycle:  9   F: -1250.240839831653602   dF: -1.566e-04   |Residual|: 2.357e-03   |deigs|: 2.027e-04  t[s]:   5158.19
	FillingsUpdate:  mu: +0.103627596  nElectrons: 320.000000
SCF: Cycle: 10   F: -1250.240850654512087   dF: -1.082e-05   |Residual|: 1.894e-03   |deigs|: 7.711e-05  t[s]:   5187.69
	FillingsUpdate:  mu: +0.103609863  nElectrons: 320.000000
SCF: Cycle: 11   F: -1250.240859691263267   dF: -9.037e-06   |Residual|: 9.801e-04   |deigs|: 5.351e-05  t[s]:   5217.35
	FillingsUpdate:  mu: +0.103588206  nElectrons: 320.000000
SCF: Cycle: 12   F: -1250.240863780501968   dF: -4.089e-06   |Residual|: 5.972e-04   |deigs|: 6.574e-05  t[s]:   5247.13
	FillingsUpdate:  mu: +0.103580402  nElectrons: 320.000000
SCF: Cycle: 13   F: -1250.240864906111483   dF: -1.126e-06   |Residual|: 3.838e-04   |deigs|: 2.761e-05  t[s]:   5276.66
	FillingsUpdate:  mu: +0.103577912  nElectrons: 320.000000
SCF: Cycle: 14   F: -1250.240865345174598   dF: -4.391e-07   |Residual|: 2.358e-04   |deigs|: 2.750e-05  t[s]:   5306.35
	FillingsUpdate:  mu: +0.103578564  nElectrons: 320.000000
SCF: Cycle: 15   F: -1250.240865473451777   dF: -1.283e-07   |Residual|: 1.753e-04   |deigs|: 9.448e-06  t[s]:   5335.62
	FillingsUpdate:  mu: +0.103576893  nElectrons: 320.000000
SCF: Cycle: 16   F: -1250.240865542193205   dF: -6.874e-08   |Residual|: 8.289e-05   |deigs|: 5.982e-06  t[s]:   5365.11
	FillingsUpdate:  mu: +0.103576099  nElectrons: 320.000000
SCF: Cycle: 17   F: -1250.240865547582189   dF: -5.389e-09   |Residual|: 6.925e-05   |deigs|: 3.532e-06  t[s]:   5394.83
	FillingsUpdate:  mu: +0.103575730  nElectrons: 320.000000
SCF: Cycle: 18   F: -1250.240865558170071   dF: -1.059e-08   |Residual|: 3.104e-05   |deigs|: 2.275e-06  t[s]:   5425.02
	FillingsUpdate:  mu: +0.103575694  nElectrons: 320.000000
SCF: Cycle: 19   F: -1250.240865560340580   dF: -2.171e-09   |Residual|: 1.513e-05   |deigs|: 1.095e-06  t[s]:   5454.27
	FillingsUpdate:  mu: +0.103575876  nElectrons: 320.000000
SCF: Cycle: 20   F: -1250.240865560682550   dF: -3.420e-10   |Residual|: 1.035e-05   |deigs|: 8.406e-07  t[s]:   5484.03
SCF: Converged (|Delta E|<1.000000e-08 for 2 iters).

Setting wave functions to eigenvectors of Hamiltonian

# Ionic positions in lattice coordinates:
ion Os   0.359795143389098   0.376699724438850   0.245898708275513 1
ion Os   0.119905992883315   0.134933399796193   0.747395399613193 1
ion Os   0.367445116428570   0.875703372304827   0.251089849824145 1
ion Os   0.126865510907109   0.639135156748142   0.750348599173670 1
ion Os   0.878946999335358   0.374382882902902   0.250140873183391 1
ion Os   0.634253512145328   0.125015434240667   0.753797974857636 1
ion Os   0.863393927308164   0.867273803056836   0.251850781076334 1
ion Os   0.628593292157645   0.627039307643127   0.744218658834142 1
ion O   0.425792022025177   0.025765175268466   0.207268282016461 1
ion O   0.030534290474841   0.211613359785727   0.292373720689291 1
ion O   0.101291976391172   0.486218070940659   0.812770029542145 1
ion O   0.470561856337390   0.263069104249727   0.688388003032909 1
ion O   0.206943660851453   0.399251435114604   0.427803612538222 1
ion O   0.307449013600325   0.340117144376235   0.075474816309318 1
ion O   0.289113036066997   0.101121851279465   0.577617756968537 1
ion O   0.166951755989940   0.153784743239597   0.927765521982143 1
ion O   0.427991510239672   0.526115947176921   0.195455932830139 1
ion O   0.029590059504548   0.724751135737595   0.315224227969550 1
ion O   0.065508392552526   0.989511114724824   0.807546482773129 1
ion O   0.472184422803354   0.783447449988688   0.691910664316576 1
ion O   0.204662808147071   0.890537742766298   0.423686966947531 1
ion O   0.324833204237935   0.831905627659386   0.082769678622854 1
ion O   0.302014195725910   0.605282746373073   0.593546399227140 1
ion O   0.169543631965119   0.657376358209173   0.931724723160769 1
ion O   0.919822488977752   0.005287391939452   0.190580900886844 1
ion O   0.531242581838266   0.250582878262846   0.309312387290828 1
ion O   0.584207925987481   0.479859503069552   0.795904263855858 1
ion O   0.954151908582662   0.278480485319526   0.685760499429389 1
ion O   0.711400047796489   0.405001653192235   0.415509570290899 1
ion O   0.820891359207488   0.369226438484485   0.074137386466486 1
ion O   0.793347493322634   0.125905501346642   0.584952292239263 1
ion O   0.679303131871008   0.160249053860292   0.922130762273448 1
ion O   0.927582255342835   0.519953651221479   0.189641733297672 1
ion O   0.540255494802270   0.723423760867773   0.287883873065136 1
ion O   0.587468482113637   0.979348783965891   0.810571561397628 1
ion O   0.954563619601506   0.769113705376900   0.679801693259451 1
ion O   0.704363407607446   0.911119965673179   0.427278771565883 1
ion O   0.809428864025079   0.855251831657445   0.072244063268801 1
ion O   0.798479549197386   0.590922339199478   0.580256560368553 1
ion O   0.678666058258044   0.648180968540843   0.918186017279125 1

[...]
force O  -0.005014741881345  -0.003431349303652  -0.007177980241256 1
force O  -0.006725522242569   0.001610589061218   0.006522597071126 1
force O  -0.007116726421780  -0.005723679774803  -0.009011966885197 1
force O  -0.010856820181573  -0.022706528033140  -0.003378306902620 1
force O  -0.007107891242573   0.007144935565221  -0.002052374842391 1
force O  -0.009017812415001  -0.017381403017087   0.001624919915091 1
force O  -0.006728103307413   0.002287459597018  -0.003565534960595 1
force O   0.002780916870165   0.002225146716002   0.008176173756856 1
force O   0.017308386904840   0.012576203399798   0.018762161939131 1
force O  -0.002927772779641  -0.001011049099383   0.000178126580183 1
force O   0.008789901885667   0.012151145525515   0.014372247683069 1
force O  -0.001733823922907   0.002175432020982  -0.001747384600444 1
force O   0.000776144263581  -0.002662255014535   0.002088337390690 1
force O  -0.000490516120081   0.000980903876041   0.001829460534848 1
force O  -0.009170421611785   0.003992273624300  -0.005726129771627 1
force O  -0.003289982978281  -0.002163878897570   0.005189099865271 1
force O   0.001066536602412   0.002112443190908   0.001541700429250 1
force O   0.003549467035681  -0.002383491210410  -0.000350914796064 1
force O   0.007363262802013   0.008979597013083   0.010560077011565 1
force O   0.001062540785181  -0.005851146365107  -0.001182296183926 1
force O  -0.003473932386370  -0.001739245195123   0.003760523088351 1
force O   0.004000587032930   0.005993859761793  -0.001885237325760 1
force O   0.000840023498386   0.001854933362832   0.003075888846396 1
force O  -0.008950431265972  -0.002523663869938   0.004166516976854 1
force O  -0.005598227877780  -0.001202037616624  -0.008395618356836 1
force O   0.004890303994948  -0.000226049120301  -0.003867244836336 1
force O  -0.005052833961198  -0.004219440105306  -0.002269345481658 1

# Energy components:
   Eewald =     -656.7571672291171581
       EH =      466.9474348838874675
     Eloc =    -1225.3546902879888876
      Enl =     -114.7629888696456391
      Exc =     -260.6943934334424853
 Exc_core =       58.6443172664105745
       KE =      481.6334258013673661
-------------------------------------
     Etot =    -1250.3440618685287973
       TS =        0.0044669391106324
-------------------------------------
        F =    -1250.3485288076394681

IonicMinimize: Iter:  39  F: -1250.348528807639468  |grad|_K:  5.049e-04  alpha:  1.000e+00  linmin: -4.763e-04  t[s]:  21985.68

#--- Lowdin population analysis ---
# oxidation-state Os +1.048 +1.048 +1.047 +1.047 +1.047 +1.048 +1.047 +1.047
# oxidation-state O -0.216 -0.217 -0.217 -0.217 -0.217 -0.217 -0.218 -0.217 -0.217 -0.216 -0.216 -0.217 -0.217 -0.218 -0.217 -0.217 -0.217 -0.216 -0.217 -0.216 -0.217 -0.218 -0.216 -0.217 -0.216 -0.217 -0.216 -0.217 -0.217 -0.217 -0.217 -0.217


-------- Electronic minimization -----------
Will mix electronic density at each iteration.
	FillingsUpdate:  mu: +0.107587875  nElectrons: 320.000000
	FillingsUpdate:  mu: +0.107589752  nElectrons: 320.000000
SCF: Cycle:  0   F: -1250.348149039661621   dF: +1.653e-04   |Residual|: 1.235e-02   |deigs|: 3.632e-06  t[s]:  22046.11
	FillingsUpdate:  mu: +0.107585482  nElectrons: 320.000000
SCF: Cycle:  1   F: -1250.348194757145848   dF: -4.572e-05   |Residual|: 1.437e-02   |deigs|: 7.478e-05  t[s]:  22074.83
	FillingsUpdate:  mu: +0.107583405  nElectrons: 320.000000
SCF: Cycle:  2   F: -1250.348537398296457   dF: -3.426e-04   |Residual|: 1.721e-03   |deigs|: 4.452e-05  t[s]:  22103.41
	FillingsUpdate:  mu: +0.107582789  nElectrons: 320.000000
SCF: Cycle:  3   F: -1250.348540383775344   dF: -2.985e-06   |Residual|: 4.547e-04   |deigs|: 5.903e-06  t[s]:  22132.96
	FillingsUpdate:  mu: +0.107581973  nElectrons: 320.000000
SCF: Cycle:  4   F: -1250.348540587180196   dF: -2.034e-07   |Residual|: 3.128e-04   |deigs|: 4.314e-06  t[s]:  22162.34
	FillingsUpdate:  mu: +0.107582231  nElectrons: 320.000000
SCF: Cycle:  5   F: -1250.348540847596723   dF: -2.604e-07   |Residual|: 1.422e-04   |deigs|: 2.288e-06  t[s]:  22192.39
	FillingsUpdate:  mu: +0.107582320  nElectrons: 320.000000
SCF: Cycle:  6   F: -1250.348540870297711   dF: -2.270e-08   |Residual|: 7.729e-05   |deigs|: 1.948e-06  t[s]:  22221.83
	FillingsUpdate:  mu: +0.107581971  nElectrons: 320.000000
SCF: Cycle:  7   F: -1250.348540886392811   dF: -1.610e-08   |Residual|: 5.130e-05   |deigs|: 1.927e-06  t[s]:  22251.35
	FillingsUpdate:  mu: +0.107582052  nElectrons: 320.000000
SCF: Cycle:  8   F: -1250.348540894591451   dF: -8.199e-09   |Residual|: 1.916e-05   |deigs|: 1.392e-06  t[s]:  22282.37
	FillingsUpdate:  mu: +0.107582052  nElectrons: 320.000000
SCF: Cycle:  9   F: -1250.348540895887481   dF: -1.296e-09   |Residual|: 1.423e-05   |deigs|: 8.672e-07  t[s]:  22312.57
SCF: Converged (|Delta E|<1.000000e-08 for 2 iters).

Setting wave functions to eigenvectors of Hamiltonian

# Ionic positions in lattice coordinates:
ion Os   0.373451115708125   0.377853528522316   0.252760687897244 1
ion Os   0.124865368388285   0.127139625027969   0.747286080349733 1
ion Os   0.373591553366272   0.876168726315763   0.247023948237717 1
ion Os   0.125318023417112   0.627287317333743   0.751466015414981 1
ion Os   0.873596733537622   0.375683803999889   0.248701266182307 1
ion Os   0.624210244126945   0.127544283700711   0.752159843677453 1
ion Os   0.872999212207999   0.876061201974647   0.251349697000426 1
ion Os   0.625857510963694   0.628588134166692   0.747408493203142 1
ion O   0.420187146042369   0.019986303518819   0.195265310729429 1
ion O   0.037479066281920   0.231931916820578   0.302325008104596 1
ion O   0.075934131621766   0.484877894707456   0.805603710721170 1
ion O   0.459853510289757   0.270748573890439   0.698682881618010 1
ion O   0.210692723492065   0.406026231124992   0.421918539835103 1
ion O   0.323146231382259   0.349586812726269   0.083868765997076 1
ion O   0.287348038925087   0.098023837943138   0.577742863118701 1
ion O   0.176662985900639   0.153762139582201   0.916179486001204 1
ion O   0.422015162795953   0.520713069804206   0.198523230911542 1
ion O   0.036819143610827   0.732604879769076   0.305381275247184 1
ion O   0.073865804820356   0.985561312382176   0.801151467935056 1
ion O   0.461117884690174   0.771912975872364   0.694815606638859 1
ion O   0.210742909139330   0.902231023461900   0.415953941137086 1
ion O   0.324202035349301   0.848641747455906   0.077004761041855 1
ion O   0.290015806525387   0.597863917137282   0.584213958258518 1
ion O   0.173411269749102   0.656255728545833   0.921467170239857 1
ion O   0.923736310283287   0.017769415661166   0.194419920462342 1
ion O   0.537875035443655   0.235025210997426   0.306719818855662 1
ion O   0.576467849005756   0.486128174760061   0.802900664451870 1
ion O   0.961427340916696   0.271306562071438   0.693809152739287 1
ion O   0.710595556473600   0.403637304869291   0.417497404369964 1
ion O   0.823191496553060   0.349125018344405   0.078743557040187 1
ion O   0.786625422976586   0.099835303309954   0.582611271580104 1
ion O   0.675119889860342   0.155021258517665   0.921116732536331 1
ion O   0.922786942951166   0.518206867982953   0.196479014302173 1
ion O   0.539044766770054   0.733876034735157   0.300020614472583 1
ion O   0.575330039008827   0.984841779833666   0.806035689197076 1
ion O   0.962339283374683   0.770107557763596   0.694539697706093 1
ion O   0.710993468886056   0.906232473983515   0.421457656559069 1
ion O   0.820487352624590   0.847486589829302   0.084221857613931 1
ion O   0.787054263000850   0.600085601579233   0.576635934197510 1
ion O   0.678881369538446   0.656219859976804   0.914757004417571 1

# Forces in Lattice coordinates:
force Os  -0.005858849820275  -0.003737293588025  -0.002619492855483 1
force Os  -0.002054445277799  -0.004691918832961  -0.006266701946355 1
force Os  -0.004186314802326  -0.012276928271633   0.002248957456688 1
force Os   0.018085507360872   0.008870332336172   0.000490332376211 1
force Os   0.007128981500700   0.001130786294124  -0.000651413081354 1
force Os   0.003149891496402   0.005345141945480  -0.007192900013702 1
force Os  -0.005589570872179  -0.008692598254828   0.002896924622699 1
force Os  -0.011630818529011  -0.004182474164031  -0.009221073502974 1
force O   0.005176363546347   0.010449070770486  -0.001955788278613 1
force O  -0.002636940027091   0.007531490567898  -0.001456850710206 1
force O  -0.003321025654092  -0.005472054684272  -0.001369721164964 1
force O  -0.001658990525032  -0.002716455732302   0.001125231678293 1
force O  -0.000159952080878  -0.001461019162955   0.000622590516199 1
force O   0.001552758010522   0.002119119082064   0.001364971834811 1
force O  -0.000284703497163   0.001920284773885   0.002988047770870 1
force O   0.001151646027328   0.002345517590562   0.001705970653019 1
force O   0.002544728789019   0.004146989169461  -0.001624794518390 1
force O   0.002056016947918   0.000470598550238   0.001086443030171 1
force O   0.002280081920436   0.000949015771388   0.002140154153364 1
force O   0.002453319038896  -0.005691781154153   0.001948363266463 1
force O   0.004428692019760   0.001674053702549   0.001192723100843 1
force O   0.002929992873314  -0.000665878780747   0.000227416378078 1
force O  -0.009730074010356  -0.002494498736519   0.005144637370179 1
force O  -0.003830940058439  -0.000976591289213  -0.004196096141506 1
force O   0.001613650211073   0.005852887231461  -0.000861095035808 1
force O   0.001731338435629  -0.001360904838500   0.001567712087373 1
force O   0.001272483177420   0.003925842310828   0.003063276821046 1
force O  -0.002143403441081   0.000992614016292  -0.002016946814051 1
force O  -0.003423041175829  -0.000328715209344   0.003781374150478 1
force O   0.001890620669485   0.001094511985554   0.001198036638241 1
force O  -0.003545272157666  -0.003838091373205   0.003710340747586 1
force O   0.001674101984960   0.002969470404892   0.004057686844673 1
force O   0.000983208108520  -0.004856518919201  -0.002423355462777 1
force O  -0.005135263030887   0.001306542235113   0.001019281500225 1
force O  -0.000073397576324  -0.001615094882615  -0.001504276667844 1
force O  -0.001943695153251  -0.000726574243444   0.001239029417597 1
force O   0.001960175575222  -0.000709907478714  -0.004283223155218 1
force O   0.002018313936249   0.003947175111454   0.000851583248219 1
force O   0.004463564722627   0.000107599081402   0.000211540982692 1
force O  -0.000636815718826   0.000545256637306   0.002979995403228 1

# Energy components:
   Eewald =     -656.7664203833298870
       EH =      466.9401095929849816
     Eloc =    -1225.3362658856192411
      Enl =     -114.7627034850879539
      Exc =     -260.6933014326443754
 Exc_core =       58.6443165285306236
       KE =      481.6301952580708985
-------------------------------------
     Etot =    -1250.3440698070949111
       TS =        0.0044710887924916
-------------------------------------
        F =    -1250.3485408958874814

IonicMinimize: Iter:  40  F: -1250.348540895887481  |grad|_K:  2.338e-04  alpha:  1.000e+00  linmin:  6.598e-02  t[s]:  22323.05

#--- Lowdin population analysis ---
# oxidation-state Os +1.048 +1.048 +1.047 +1.047 +1.047 +1.048 +1.047 +1.047
# oxidation-state O -0.216 -0.217 -0.216 -0.217 -0.217 -0.217 -0.217 -0.217 -0.217 -0.216 -0.217 -0.217 -0.217 -0.217 -0.217 -0.217 -0.217 -0.216 -0.217 -0.216 -0.216 -0.218 -0.217 -0.217 -0.216 -0.217 -0.217 -0.216 -0.217 -0.217 -0.217 -0.217


-------- Electronic minimization -----------
Will mix electronic density at each iteration.
	FillingsUpdate:  mu: +0.107582052  nElectrons: 320.000000
	FillingsUpdate:  mu: +0.107582977  nElectrons: 320.000000
SCF: Cycle:  0   F: -1250.348509227803106   dF: +1.137e-07   |Residual|: 3.863e-03   |deigs|: 5.133e-07  t[s]:  22372.88
	FillingsUpdate:  mu: +0.107583343  nElectrons: 320.000000
SCF: Cycle:  1   F: -1250.348512793242890   dF: -3.565e-06   |Residual|: 4.427e-03   |deigs|: 2.754e-05  t[s]:  22417.62
	FillingsUpdate:  mu: +0.107583390  nElectrons: 320.000000
SCF: Cycle:  2   F: -1250.348545290939228   dF: -3.250e-05   |Residual|: 5.648e-04   |deigs|: 1.384e-05  t[s]:  22446.97
	FillingsUpdate:  mu: +0.107583658  nElectrons: 320.000000
SCF: Cycle:  3   F: -1250.348545554054908   dF: -2.631e-07   |Residual|: 1.343e-04   |deigs|: 1.520e-06  t[s]:  22476.26
	FillingsUpdate:  mu: +0.107583689  nElectrons: 320.000000
SCF: Cycle:  4   F: -1250.348545562721711   dF: -8.667e-09   |Residual|: 7.822e-05   |deigs|: 8.611e-07  t[s]:  22505.85
	FillingsUpdate:  mu: +0.107583772  nElectrons: 320.000000
SCF: Cycle:  5   F: -1250.348545577995992   dF: -1.527e-08   |Residual|: 4.687e-05   |deigs|: 6.398e-07  t[s]:  22535.11
	FillingsUpdate:  mu: +0.107583811  nElectrons: 320.000000
SCF: Cycle:  6   F: -1250.348545580640121   dF: -2.644e-09   |Residual|: 2.003e-05   |deigs|: 3.234e-07  t[s]:  22564.87
	FillingsUpdate:  mu: +0.107583814  nElectrons: 320.000000
SCF: Cycle:  7   F: -1250.348545581771305   dF: -1.131e-09   |Residual|: 1.146e-05   |deigs|: 4.349e-07  t[s]:  22595.18
SCF: Converged (|Delta E|<1.000000e-08 for 2 iters).

Setting wave functions to eigenvectors of Hamiltonian

# Ionic positions in lattice coordinates:
ion Os   0.373407091567794   0.377862677126765   0.252767906486779 1
ion Os   0.124823291580387   0.127171093838440   0.747257504553144 1
ion Os   0.373566700840569   0.876162947546149   0.247008061241717 1
ion Os   0.125452712838100   0.627238667947313   0.751504659079056 1
ion Os   0.873611164059389   0.375593448857662   0.248687614258434 1
ion Os   0.624297009543989   0.127567221583568   0.752134143520334 1
ion Os   0.872902792459275   0.876045940974213   0.251380321918951 1
ion Os   0.625855814110238   0.628693361410415   0.747341092215176 1
ion O   0.420324106604716   0.019933497986785   0.195141163543380 1
ion O   0.037394457168372   0.231936544241208   0.302576670679360 1
ion O   0.075904589217947   0.484886370117265   0.805786278329705 1
ion O   0.459904243514595   0.270693218148963   0.698641442564989 1
ion O   0.210751714780372   0.405943808441618   0.422012540438484 1
ion O   0.323045738242833   0.349576438611054   0.083937711814099 1
ion O   0.287349163913380   0.098012775085121   0.577807717433048 1
ion O   0.176598460370724   0.153781953851829   0.916193101631510 1
ion O   0.421843114078335   0.520801752202145   0.198489090603746 1
ion O   0.036764022412297   0.732585427886621   0.305328415304801 1
ion O   0.073765642149439   0.985616852337437   0.801115876273102 1
ion O   0.461125060767740   0.771904175335657   0.694639110854946 1
ion O   0.210682038707599   0.902346139092139   0.415874353462537 1
ion O   0.324262459320394   0.848553511260251   0.076985064537717 1
ion O   0.290078467452209   0.597674700475679   0.584292970638730 1
ion O   0.173521776994410   0.656336199461610   0.921415360310125 1
ion O   0.923644768333612   0.017778067416274   0.194316231520604 1
ion O   0.537934784175568   0.235052946543587   0.306572905009716 1
ion O   0.576479416921246   0.486243430238605   0.803138266057055 1
ion O   0.961434552125291   0.271401984618172   0.693766857763595 1
ion O   0.710494439879348   0.403780710033855   0.417413283106990 1
ion O   0.823307592053230   0.348758743173692   0.078840059262630 1
ion O   0.786708393598289   0.099743261500507   0.582626954954012 1
ion O   0.675137668343051   0.155154062000590   0.921100775645686 1
ion O   0.922935731434085   0.518043189706088   0.196172081412711 1
ion O   0.538885161224710   0.733879749883333   0.300209093088843 1
ion O   0.575454505933369   0.984830687167858   0.806139945911768 1
ion O   0.962477430134463   0.770060972261327   0.694482698231996 1
ion O   0.710952154522764   0.906282759364832   0.421491417294888 1
ion O   0.820277835598076   0.847466342592571   0.084342288447395 1
ion O   0.787165723011869   0.600045634366243   0.576649474454842 1
ion O   0.678818210015928   0.656518735312560   0.914639496143398 1

# Forces in Lattice coordinates:
force Os  -0.002334935045019  -0.002839082399273  -0.002560075458632 1
force Os  -0.004186380002984  -0.003363945844758  -0.001382719022842 1
force Os   0.000405715468040  -0.001841340399538   0.000896962228054 1
force Os   0.001482195795808   0.003476719550572   0.001162934663135 1
force Os   0.002403039577287   0.001117203228323   0.000196990255255 1
force Os   0.002195027392298   0.001099958345541   0.000549531042442 1
force Os  -0.000125555033200  -0.001301272493868  -0.000289081345436 1
force Os  -0.001503245072405  -0.000864945510799  -0.002864924722230 1
force O   0.001264445760224   0.004013369393167  -0.001882615704311 1
force O  -0.000168168364725   0.003723623465547   0.000091571511983 1
force O   0.000572339983847  -0.000296505040406  -0.000713872468307 1
force O  -0.002471609352174  -0.001089017491225  -0.000236360956875 1
force O  -0.001293009914709  -0.002094282691224   0.001323234262946 1
force O   0.000596805593108   0.001253583480482   0.000442359799798 1
force O   0.001685942041682   0.001600975112593   0.000115422302954 1
force O  -0.000375295927213   0.000286985930183  -0.000385421636992 1
force O   0.001738097651121   0.001550041972962  -0.001305093608545 1
force O   0.001585327455491   0.000966596708769   0.001479550412315 1
force O   0.002681073157806   0.002522066468554   0.001720326352449 1
force O  -0.000401372429280  -0.002026323294814  -0.000357509835892 1
force O   0.002088613715683   0.002091965646975   0.002519195250277 1
force O   0.002531228942797  -0.000281542103984   0.000259680378477 1
force O  -0.002325765750950  -0.001332440203375  -0.000186756339120 1
force O  -0.001616479487282   0.000401341279280  -0.001643710294747 1
force O  -0.000621387659697   0.001007777590818  -0.000523350473499 1
force O   0.001473381803887  -0.000497065689787   0.001849376762962 1
force O  -0.000719211566089  -0.000394448852830   0.001666912152272 1
force O  -0.001903492551580  -0.001220013305042  -0.002379185119304 1
force O  -0.001363513044330  -0.000437589813723   0.002484399494621 1
force O   0.001927447147871   0.001418206994066   0.001000419451735 1
force O  -0.000224217111910  -0.001898334091095   0.001182834658279 1
force O  -0.000052415038539   0.000797467022416   0.000002278110383 1
force O   0.000805613889826  -0.003468956500454  -0.002259352828549 1
force O  -0.002511952511341  -0.000795195405384   0.001750384301509 1
force O   0.001102506921367   0.001349656315996  -0.001736564423160 1
force O   0.001083392581123  -0.001654320655756   0.002238043846411 1
force O  -0.000640741238999  -0.001050025345010  -0.001028037482737 1
force O   0.001820117677962   0.003849788276943   0.000441613629890 1
force O   0.001705311692861  -0.000344983655930   0.000417563061443 1
force O  -0.003657599927024  -0.001853840717239  -0.001035414375274 1

# Energy components:
   Eewald =     -656.7630576389746011
       EH =      466.9427788922331501
     Eloc =    -1225.3429325732977304
      Enl =     -114.7627710764953974
      Exc =     -260.6936684865871712
 Exc_core =       58.6443170188089340
       KE =      481.6312578593768876
-------------------------------------
     Etot =    -1250.3440760049356868
       TS =        0.0044695768356631
-------------------------------------
        F =    -1250.3485455817713046

IonicMinimize: Iter:  41  F: -1250.348545581771305  |grad|_K:  9.240e-05  alpha:  1.000e+00  linmin: -1.266e-01  t[s]:  22605.59
IonicMinimize: Converged (|grad|_K<1.000000e-04).

#--- Lowdin population analysis ---
# oxidation-state Os +1.048 +1.047 +1.047 +1.047 +1.047 +1.048 +1.047 +1.047
# oxidation-state O -0.216 -0.217 -0.216 -0.217 -0.217 -0.217 -0.217 -0.217 -0.217 -0.216 -0.217 -0.217 -0.217 -0.217 -0.217 -0.217 -0.217 -0.217 -0.216 -0.216 -0.217 -0.217 -0.217 -0.217 -0.216 -0.217 -0.217 -0.216 -0.217 -0.217 -0.217 -0.217


Dumping '/data/rc652/OsO4/ion/OsO4_ion.Ecomponents' ... done
End date and time: Tue Jul 16 19:47:03 2024  (Duration: 0-6:16:50.17)
Done!
