--------------------------------------------------------------------------
[[16530,1],1]: A high-performance Open MPI point-to-point messaging module
was unable to find any relevant network interfaces:

Module: OpenFabrics (openib)
  Host: node3218

Another transport will be used instead, although this may result in
lower performance.
--------------------------------------------------------------------------

*************** JDFTx 1.7.0 (git hash 3664913) ***************

Start date and time: Tue Jul 16 13:30:21 2024
Executable jdftx with command-line: -i OsO4_vac.in
Running on hosts (process indices):  node3218.physics.cornell.edu (0-17)
Divided in process groups (process indices):  0 (0)  1 (1)  2 (2)  3 (3)  4 (4)  5 (5)  6 (6)  7 (7)  8 (8)  9 (9)  10 (10)  11 (11)  12 (12)  13 (13)  14 (14)  15 (15)  16 (16)  17 (17)
Resource initialization completed at t[s]:      0.01
Run totals: 18 processes, 36 threads, 0 GPUs


Input parsed successfully to the following command list (including defaults):

basis kpoint-dependent
coords-type Lattice
core-overlap-check vector
coulomb-interaction Periodic
davidson-band-ratio 1.1
dump End Ecomponents
dump-name /data/rc652/OsO4/vac/OsO4_vac.$VAR
elec-cutoff 20 100
elec-eigen-algo Davidson
elec-ex-corr gga-PBEsol
elec-smearing Fermi 0.01
electronic-minimize  \
	dirUpdateScheme      FletcherReeves \
	linminMethod         DirUpdateRecommended \
	nIterations          100 \
	history              15 \
	knormThreshold       0 \
	maxThreshold         no \
	energyDiffThreshold  1e-08 \
	nEnergyDiff          2 \
	alphaTstart          1 \
	alphaTmin            1e-10 \
	updateTestStepSize   yes \
	alphaTreduceFactor   0.1 \
	alphaTincreaseFactor 3 \
	nAlphaAdjustMax      3 \
	wolfeEnergy          0.0001 \
	wolfeGradient        0.9 \
	fdTest               no
electronic-scf  \
	nIterations	50 \
	energyDiffThreshold	1e-08 \
	residualThreshold	1e-07 \
	mixFraction	0.5 \
	qMetric	0.8 \
	history	10 \
	nEigSteps	2 \
	eigDiffThreshold	1e-08 \
	mixedVariable	Density \
	qKerker	0.8 \
	qKappa	-1 \
	verbose	no \
	mixFractionMag	1.5
exchange-regularization WignerSeitzTruncated
fluid None
fluid-ex-corr lda-TF lda-PZ
fluid-gummel-loop 10 1.000000e-05
fluid-minimize  \
	dirUpdateScheme      PolakRibiere \
	linminMethod         DirUpdateRecommended \
	nIterations          100 \
	history              15 \
	knormThreshold       0 \
	maxThreshold         no \
	energyDiffThreshold  0 \
	nEnergyDiff          2 \
	alphaTstart          1 \
	alphaTmin            1e-10 \
	updateTestStepSize   yes \
	alphaTreduceFactor   0.1 \
	alphaTincreaseFactor 3 \
	nAlphaAdjustMax      3 \
	wolfeEnergy          0.0001 \
	wolfeGradient        0.9 \
	fdTest               no
fluid-solvent H2O 55.338 ScalarEOS \
	epsBulk 78.4 \
	pMol 0.92466 \
	epsInf 1.77 \
	Pvap 1.06736e-10 \
	sigmaBulk 4.62e-05 \
	Rvdw 2.61727 \
	Res 1.42 \
	tauNuc 343133 \
	poleEl 15 7 1
forces-output-coords Positions
ion Os   0.348040000000000   0.363190000000000   0.236470000000000 1
ion Os   0.118580000000000   0.147050000000000   0.746380000000000 1
ion Os   0.347180000000000   0.875320000000000   0.242470000000000 1
ion Os   0.134330000000000   0.637320000000000   0.747210000000000 1
ion Os   0.880120000000000   0.368390000000000   0.246700000000000 1
ion Os   0.647170000000000   0.118510000000000   0.749640000000000 1
ion Os   0.858190000000000   0.869860000000000   0.246820000000000 1
ion Os   0.625310000000000   0.619410000000000   0.745920000000000 1
ion O   0.432990000000000   0.038970000000000   0.204330000000000 1
ion O   0.033070000000000   0.206870000000000   0.292970000000000 1
ion O   0.102500000000000   0.485800000000000   0.815240000000000 1
ion O   0.465580000000000   0.268280000000000   0.684300000000000 1
ion O   0.204920000000000   0.399970000000000   0.434150000000000 1
ion O   0.307990000000000   0.340920000000000   0.077770000000000 1
ion O   0.298820000000000   0.098240000000000   0.567810000000000 1
ion O   0.168740000000000   0.152580000000000   0.935490000000000 1
ion O   0.436290000000000   0.538420000000000   0.192880000000000 1
ion O   0.039230000000000   0.717700000000000   0.320080000000000 1
ion O   0.061270000000000   0.977680000000000   0.813290000000000 1
ion O   0.466180000000000   0.791890000000000   0.690060000000000 1
ion O   0.201140000000000   0.890380000000000   0.428520000000000 1
ion O   0.327580000000000   0.830660000000000   0.088440000000000 1
ion O   0.302090000000000   0.604220000000000   0.594740000000000 1
ion O   0.171030000000000   0.654220000000000   0.935630000000000 1
ion O   0.919920000000000   0.006130000000000   0.189810000000000 1
ion O   0.535810000000000   0.250340000000000   0.312850000000000 1
ion O   0.586410000000000   0.479380000000000   0.795900000000000 1
ion O   0.947960000000000   0.282530000000000   0.683210000000000 1
ion O   0.706530000000000   0.406150000000000   0.419360000000000 1
ion O   0.822580000000000   0.371000000000000   0.077990000000000 1
ion O   0.788090000000000   0.129420000000000   0.589090000000000 1
ion O   0.680410000000000   0.160930000000000   0.923110000000000 1
ion O   0.927200000000000   0.527680000000000   0.184590000000000 1
ion O   0.554030000000000   0.711540000000000   0.289030000000000 1
ion O   0.584050000000000   0.976710000000000   0.813450000000000 1
ion O   0.700190000000000   0.913230000000000   0.434020000000000 1
ion O   0.808790000000000   0.856910000000000   0.066550000000000 1
ion O   0.804500000000000   0.589400000000000   0.575410000000000 1
ion O   0.679990000000000   0.649220000000000   0.923240000000000 1
ion-species GBRV/$ID_pbesol.uspp
ion-width 0
ionic-minimize  \
	dirUpdateScheme      L-BFGS \
	linminMethod         DirUpdateRecommended \
	nIterations          50 \
	history              15 \
	knormThreshold       0.0001 \
	maxThreshold         no \
	energyDiffThreshold  1e-06 \
	nEnergyDiff          2 \
	alphaTstart          1 \
	alphaTmin            1e-10 \
	updateTestStepSize   yes \
	alphaTreduceFactor   0.1 \
	alphaTincreaseFactor 3 \
	nAlphaAdjustMax      3 \
	wolfeEnergy          0.0001 \
	wolfeGradient        0.9 \
	fdTest               no
kpoint   0.500000000000   0.500000000000   0.500000000000  1.00000000000000
kpoint-folding 3 3 3 
latt-move-scale 1 1 1
latt-scale 1 1 1 
lattice  \
	  16.831151964567216    7.857178447690984    0.039249236511508  \
	  -0.001396108441990   18.079569470173105    0.066400613931282  \
	   4.895589005873019    4.362885676205981   15.558827792736130 
lattice-minimize  \
	dirUpdateScheme      L-BFGS \
	linminMethod         DirUpdateRecommended \
	nIterations          0 \
	history              15 \
	knormThreshold       0 \
	maxThreshold         no \
	energyDiffThreshold  1e-06 \
	nEnergyDiff          2 \
	alphaTstart          1 \
	alphaTmin            1e-10 \
	updateTestStepSize   yes \
	alphaTreduceFactor   0.1 \
	alphaTincreaseFactor 3 \
	nAlphaAdjustMax      3 \
	wolfeEnergy          0.0001 \
	wolfeGradient        0.9 \
	fdTest               no
lcao-params -1 1e-06 0.01
pcm-variant GLSSA13
perturb-minimize  \
	nIterations            0 \
	algorithm              MINRES \
	residualTol            0.0001 \
	residualDiffThreshold  0.0001 \
	CGBypass               no \
	recomputeResidual      no
spintype no-spin
subspace-rotation-factor 1 yes
symmetries automatic
symmetry-threshold 0.0001



---------- Setting up symmetries ----------

Found 2 point-group symmetries of the bravais lattice
Found 1 space-group symmetries with basis
Applied RMS atom displacement 0 bohrs to make symmetries exact.

---------- Initializing the Grid ----------
R = 
[      16.8312      7.85718    0.0392492  ]
[  -0.00139611      18.0796    0.0664006  ]
[      4.89559      4.36289      15.5588  ]
unit cell volume = 4728.93
G =
[   0.373366    -0.1622 -0.000249641  ]
[ 0.000460772   0.347688 -0.00148499  ]
[  -0.117609 -0.0464595   0.404329  ]
Minimum fftbox size, Smin = [  80  92  72  ]
Chosen fftbox size, S = [  80  96  72  ]

---------- Initializing tighter grid for wavefunction operations ----------
R = 
[      16.8312      7.85718    0.0392492  ]
[  -0.00139611      18.0796    0.0664006  ]
[      4.89559      4.36289      15.5588  ]
unit cell volume = 4728.93
G =
[   0.373366    -0.1622 -0.000249641  ]
[ 0.000460772   0.347688 -0.00148499  ]
[  -0.117609 -0.0464595   0.404329  ]
Minimum fftbox size, Smin = [  72  84  64  ]
Chosen fftbox size, S = [  72  84  64  ]

---------- Exchange Correlation functional ----------
Initalized PBEsol GGA exchange.
Initalized PBEsol GGA correlation.

---------- Setting up pseudopotentials ----------
Width of ionic core gaussian charges (only for fluid interactions / plotting) set to 0

Reading pseudopotential file '/home/rc652/build/pseudopotentials/GBRV/os_pbesol.uspp':
  Title: Os.  Created by USPP 7.3.6 on 3-2-2014
  Reference state energy: -98.687589.  16 valence electrons in orbitals:
    |500>  occupation: 2  eigenvalue: -3.559978
    |510>  occupation: 6  eigenvalue: -2.060221
    |520>  occupation: 5.5  eigenvalue: -0.405934
    |600>  occupation: 2  eigenvalue: -0.369345
    |610>  occupation: 0  eigenvalue: -0.156692
  lMax: 3  lLocal: 3  QijEcut: 6
  8 projectors sampled on a log grid with 745 points:
    l: 0  eig: -0.369345  rCut: 1.35
    l: 0  eig: -3.559978  rCut: 1.35
    l: 1  eig: -2.060221  rCut: 1.45
    l: 1  eig: -0.156692  rCut: 1.45
    l: 2  eig: -0.405934  rCut: 1.45
    l: 2  eig: 1.000000  rCut: 1.45
    l: 3  eig: 0.500000  rCut: 2
    l: 3  eig: -0.500000  rCut: 2
  Partial core density with radius 1.2
  Transforming core density to a uniform radial grid of dG=0.02 with 1617 points.
  Transforming local potential to a uniform radial grid of dG=0.02 with 1617 points.
  Transforming nonlocal projectors to a uniform radial grid of dG=0.02 with 432 points.
  Transforming density augmentations to a uniform radial grid of dG=0.02 with 1617 points.
  Transforming atomic orbitals to a uniform radial grid of dG=0.02 with 432 points.
  Core radius for overlap checks: 2.00 bohrs.

Reading pseudopotential file '/home/rc652/build/pseudopotentials/GBRV/o_pbesol.uspp':
  Title: O.  Created by USPP 7.3.6 on 3-2-2014
  Reference state energy: -15.849885.  6 valence electrons in orbitals:
    |200>  occupation: 2  eigenvalue: -0.873214
    |210>  occupation: 4  eigenvalue: -0.330058
  lMax: 2  lLocal: 2  QijEcut: 6
  5 projectors sampled on a log grid with 511 points:
    l: 0  eig: -0.873214  rCut: 1.25
    l: 0  eig: 0.000000  rCut: 1.25
    l: 1  eig: -0.330058  rCut: 1.25
    l: 1  eig: 0.000000  rCut: 1.25
    l: 2  eig: 1.000000  rCut: 1.25
  Partial core density with radius 0.7
  Transforming core density to a uniform radial grid of dG=0.02 with 1617 points.
  Transforming local potential to a uniform radial grid of dG=0.02 with 1617 points.
  Transforming nonlocal projectors to a uniform radial grid of dG=0.02 with 432 points.
  Transforming density augmentations to a uniform radial grid of dG=0.02 with 1617 points.
  Transforming atomic orbitals to a uniform radial grid of dG=0.02 with 432 points.
  Core radius for overlap checks: 1.25 bohrs.

Initialized 2 species with 39 total atoms.

Folded 1 k-points by 3x3x3 to 27 k-points.

---------- Setting up k-points, bands, fillings ----------
Adding inversion symmetry to k-mesh for non-inversion-symmetric unit cell.
Reduced to 14 k-points under symmetry. 
Computing the number of bands and number of electrons
Calculating initial fillings.
nElectrons: 314.000000   nBands: 228   nStates: 14

----- Setting up reduced wavefunction bases (one per k-point) -----
average nbasis = 20203.852 , ideal nbasis = 20202.331

---------- Setting up ewald sum ----------
Optimum gaussian width for ewald sums = 3.647451 bohr.
Real space sum over 567 unit cells with max indices [  4  3  4  ]
Reciprocal space sum over 6783 terms with max indices [  9  10  8  ]

---------- Allocating electronic variables ----------
Initializing wave functions:  linear combination of atomic orbitals
Os pseudo-atom occupations:   s ( 2 0 )  p ( 6 0 )  d ( 8 )
O pseudo-atom occupations:   s ( 2 )  p ( 4 )
	FillingsUpdate:  mu: +0.396687260  nElectrons: 314.000000
LCAOMinimize: Iter:   0  F: -1197.9396110348141065  |grad|_K:  1.178e-02  alpha:  1.000e+00
	FillingsUpdate:  mu: +0.207187947  nElectrons: 314.000000
LCAOMinimize: Iter:   1  F: -1224.2532447137323288  |grad|_K:  1.597e-02  alpha:  2.917e-01  linmin:  1.695e-01  cgtest: -1.528e-01  t[s]:     46.19
LCAOMinimize: 	Bad step direction: g.d > 0.
LCAOMinimize: 	Undoing step.
LCAOMinimize: 	Step failed: resetting search direction.
	FillingsUpdate:  mu: +0.207187947  nElectrons: 314.000000
LCAOMinimize: Iter:   2  F: -1224.2532447137323288  |grad|_K:  1.597e-02  alpha:  0.000e+00
	FillingsUpdate:  mu: +0.151286968  nElectrons: 314.000000
LCAOMinimize: Iter:   3  F: -1228.4038553066759505  |grad|_K:  1.086e-02  alpha:  1.319e-01  linmin:  1.332e-01  cgtest: -1.002e+00  t[s]:     73.43
	FillingsUpdate:  mu: +0.133494154  nElectrons: 314.000000
LCAOMinimize: Iter:   4  F: -1228.8544274898101776  |grad|_K:  6.926e-03  alpha:  5.479e-02  linmin:  6.183e-02  cgtest:  7.135e-01  t[s]:     89.01
LCAOMinimize: Encountered beta<0, resetting CG.
	FillingsUpdate:  mu: +0.108513442  nElectrons: 314.000000
LCAOMinimize: Iter:   5  F: -1231.0440383907280193  |grad|_K:  5.162e-03  alpha:  1.437e-01  linmin:  9.787e-02  cgtest: -5.059e-01  t[s]:    104.41
	FillingsUpdate:  mu: +0.105779074  nElectrons: 314.000000
LCAOMinimize: Iter:   6  F: -1231.1185767390875299  |grad|_K:  5.016e-03  alpha:  8.050e-03  linmin: -8.200e-02  cgtest:  9.598e-01  t[s]:    119.66
LCAOMinimize: 	Predicted alpha/alphaT>3.000000, increasing alphaT to 2.415079e-02.
	FillingsUpdate:  mu: +0.110659043  nElectrons: 314.000000
LCAOMinimize: Iter:   7  F: -1231.7198673596965364  |grad|_K:  1.832e-03  alpha:  5.764e-02  linmin: -2.523e-01  cgtest:  2.443e-01  t[s]:    138.38
	FillingsUpdate:  mu: +0.094416886  nElectrons: 314.000000
LCAOMinimize: Iter:   8  F: -1231.8368590622385454  |grad|_K:  1.111e-03  alpha:  1.009e-01  linmin:  1.358e-01  cgtest: -2.648e-01  t[s]:    153.81
	FillingsUpdate:  mu: +0.092185647  nElectrons: 314.000000
LCAOMinimize: Iter:   9  F: -1231.8486518560064269  |grad|_K:  7.996e-04  alpha:  4.142e-02  linmin: -6.184e-03  cgtest:  7.730e-01  t[s]:    169.24
LCAOMinimize: Encountered beta<0, resetting CG.
	FillingsUpdate:  mu: +0.096499387  nElectrons: 314.000000
LCAOMinimize: Iter:  10  F: -1231.8656337787738266  |grad|_K:  3.399e-04  alpha:  7.166e-02  linmin: -2.771e-02  cgtest:  9.774e-03  t[s]:    184.79
	FillingsUpdate:  mu: +0.092318196  nElectrons: 314.000000
LCAOMinimize: Iter:  11  F: -1231.8713665631394178  |grad|_K:  3.926e-04  alpha:  1.389e-01  linmin:  2.124e-02  cgtest: -4.266e-02  t[s]:    200.43
	FillingsUpdate:  mu: +0.095029957  nElectrons: 314.000000
LCAOMinimize: Iter:  12  F: -1231.8786971718632230  |grad|_K:  3.774e-04  alpha:  1.446e-01  linmin:  4.671e-03  cgtest:  3.623e-01  t[s]:    216.52
	FillingsUpdate:  mu: +0.100314263  nElectrons: 314.000000
LCAOMinimize: Iter:  13  F: -1231.8829435483576162  |grad|_K:  1.449e-04  alpha:  8.089e-02  linmin: -4.694e-03  cgtest:  8.083e-03  t[s]:    231.98
	FillingsUpdate:  mu: +0.098301681  nElectrons: 314.000000
LCAOMinimize: Iter:  14  F: -1231.8835152497008494  |grad|_K:  7.863e-05  alpha:  7.347e-02  linmin:  3.603e-03  cgtest: -2.392e-02  t[s]:    247.50
	FillingsUpdate:  mu: +0.098736315  nElectrons: 314.000000
LCAOMinimize: Iter:  15  F: -1231.8836811934788784  |grad|_K:  4.433e-05  alpha:  7.359e-02  linmin:  5.233e-04  cgtest:  9.983e-03  t[s]:    262.87
	FillingsUpdate:  mu: +0.098927675  nElectrons: 314.000000
LCAOMinimize: Iter:  16  F: -1231.8837741741645004  |grad|_K:  2.864e-05  alpha:  1.290e-01  linmin: -2.961e-04  cgtest: -6.012e-03  t[s]:    278.03
	FillingsUpdate:  mu: +0.098487985  nElectrons: 314.000000
LCAOMinimize: Iter:  17  F: -1231.8838060918171777  |grad|_K:  2.382e-05  alpha:  1.059e-01  linmin:  2.542e-04  cgtest: -8.315e-04  t[s]:    293.23
	FillingsUpdate:  mu: +0.098947972  nElectrons: 314.000000
LCAOMinimize: Iter:  18  F: -1231.8838269855889394  |grad|_K:  1.992e-05  alpha:  1.004e-01  linmin:  1.335e-05  cgtest:  1.898e-03  t[s]:    309.57
	FillingsUpdate:  mu: +0.099161783  nElectrons: 314.000000
LCAOMinimize: Iter:  19  F: -1231.8838438435504941  |grad|_K:  1.168e-05  alpha:  1.158e-01  linmin:  3.088e-05  cgtest: -5.292e-04  t[s]:    324.86
	FillingsUpdate:  mu: +0.098980184  nElectrons: 314.000000
LCAOMinimize: Iter:  20  F: -1231.8838483547458509  |grad|_K:  5.497e-06  alpha:  9.012e-02  linmin:  1.099e-04  cgtest:  1.492e-03  t[s]:    340.37
	FillingsUpdate:  mu: +0.099024399  nElectrons: 314.000000
LCAOMinimize: Iter:  21  F: -1231.8838490831885792  |grad|_K:  3.070e-06  alpha:  6.570e-02  linmin: -1.446e-05  cgtest:  5.360e-04  t[s]:    356.01
	FillingsUpdate:  mu: +0.099003354  nElectrons: 314.000000
LCAOMinimize: Iter:  22  F: -1231.8838493932546498  |grad|_K:  1.883e-06  alpha:  8.962e-02  linmin: -5.857e-06  cgtest: -1.208e-04  t[s]:    371.30
LCAOMinimize: Converged (|Delta F|<1.000000e-06 for 2 iters).


---- Citations for features of the code used in this run ----

   Software package:
      R. Sundararaman, K. Letchworth-Weaver, K.A. Schwarz, D. Gunceler, Y. Ozhabes and T.A. Arias, 'JDFTx: software for joint density-functional theory', SoftwareX 6, 278 (2017)

   gga-PBEsol exchange-correlation functional:
      J.P. Perdew et al., Phys. Rev. Lett. 100, 136406 (2008)

   Pseudopotentials:
      KF Garrity, JW Bennett, KM Rabe and D Vanderbilt, Comput. Mater. Sci. 81, 446 (2014)

This list may not be complete. Please suggest additional citations or
report any other bugs at https://github.com/shankar1729/jdftx/issues

Initialization completed successfully at t[s]:    377.48


-------- Electronic minimization -----------
Will mix electronic density at each iteration.
	FillingsUpdate:  mu: +0.099003354  nElectrons: 314.000000
	FillingsUpdate:  mu: +0.094103235  nElectrons: 314.000000
SCF: Cycle:  0   F: -1233.102108281917481   dF: -1.218e+00   |Residual|: 5.887e-01   |deigs|: 2.388e-02  t[s]:    435.21
	FillingsUpdate:  mu: +0.099671089  nElectrons: 314.000000
SCF: Cycle:  1   F: -1232.995140269306148   dF: +1.070e-01   |Residual|: 5.385e-01   |deigs|: 2.512e-02  t[s]:    482.23
	FillingsUpdate:  mu: +0.108075354  nElectrons: 314.000000
SCF: Cycle:  2   F: -1232.817555605929556   dF: +1.776e-01   |Residual|: 4.987e-01   |deigs|: 1.400e-02  t[s]:    528.29
	FillingsUpdate:  mu: +0.102497889  nElectrons: 314.000000
SCF: Cycle:  3   F: -1233.236439280607556   dF: -4.189e-01   |Residual|: 3.775e-01   |deigs|: 6.355e-03  t[s]:    575.53
	FillingsUpdate:  mu: +0.102802649  nElectrons: 314.000000
SCF: Cycle:  4   F: -1233.496221080681380   dF: -2.598e-01   |Residual|: 1.798e-01   |deigs|: 4.343e-03  t[s]:    621.75
	FillingsUpdate:  mu: +0.104205465  nElectrons: 314.000000
SCF: Cycle:  5   F: -1233.561351246997219   dF: -6.513e-02   |Residual|: 1.100e-01   |deigs|: 2.141e-03  t[s]:    666.32
	FillingsUpdate:  mu: +0.104909985  nElectrons: 314.000000
SCF: Cycle:  6   F: -1233.598115392372165   dF: -3.676e-02   |Residual|: 3.478e-02   |deigs|: 9.211e-04  t[s]:    709.95
	FillingsUpdate:  mu: +0.105675469  nElectrons: 314.000000
SCF: Cycle:  7   F: -1233.597358689493376   dF: +7.567e-04   |Residual|: 3.837e-02   |deigs|: 7.183e-04  t[s]:    749.76
	FillingsUpdate:  mu: +0.106013620  nElectrons: 314.000000
SCF: Cycle:  8   F: -1233.596906183555575   dF: +4.525e-04   |Residual|: 3.483e-02   |deigs|: 5.381e-04  t[s]:    793.21
	FillingsUpdate:  mu: +0.105986956  nElectrons: 314.000000
SCF: Cycle:  9   F: -1233.600498104836333   dF: -3.592e-03   |Residual|: 1.072e-02   |deigs|: 3.367e-04  t[s]:    823.07
	FillingsUpdate:  mu: +0.106061329  nElectrons: 314.000000
SCF: Cycle: 10   F: -1233.600698450706659   dF: -2.003e-04   |Residual|: 6.074e-03   |deigs|: 1.657e-04  t[s]:    853.68
	FillingsUpdate:  mu: +0.106146312  nElectrons: 314.000000
SCF: Cycle: 11   F: -1233.600744308101184   dF: -4.586e-05   |Residual|: 2.882e-03   |deigs|: 1.430e-04  t[s]:    882.27
	FillingsUpdate:  mu: +0.106219061  nElectrons: 314.000000
SCF: Cycle: 12   F: -1233.600758910874902   dF: -1.460e-05   |Residual|: 2.393e-03   |deigs|: 7.759e-05  t[s]:    911.06
	FillingsUpdate:  mu: +0.106295026  nElectrons: 314.000000
SCF: Cycle: 13   F: -1233.600768068803973   dF: -9.158e-06   |Residual|: 1.425e-03   |deigs|: 7.455e-05  t[s]:    940.23
	FillingsUpdate:  mu: +0.106306366  nElectrons: 314.000000
SCF: Cycle: 14   F: -1233.600771788102520   dF: -3.719e-06   |Residual|: 7.744e-04   |deigs|: 2.904e-05  t[s]:    969.41
	FillingsUpdate:  mu: +0.106312167  nElectrons: 314.000000
SCF: Cycle: 15   F: -1233.600773018069731   dF: -1.230e-06   |Residual|: 5.379e-04   |deigs|: 1.847e-05  t[s]:    998.50
	FillingsUpdate:  mu: +0.106318761  nElectrons: 314.000000
SCF: Cycle: 16   F: -1233.600773375305380   dF: -3.572e-07   |Residual|: 3.669e-04   |deigs|: 1.323e-05  t[s]:   1027.28
	FillingsUpdate:  mu: +0.106320546  nElectrons: 314.000000
SCF: Cycle: 17   F: -1233.600773786746686   dF: -4.114e-07   |Residual|: 1.387e-04   |deigs|: 9.088e-06  t[s]:   1055.49
	FillingsUpdate:  mu: +0.106321639  nElectrons: 314.000000
SCF: Cycle: 18   F: -1233.600773782667829   dF: +4.079e-09   |Residual|: 1.458e-04   |deigs|: 4.366e-06  t[s]:   1084.58
	FillingsUpdate:  mu: +0.106321080  nElectrons: 314.000000
SCF: Cycle: 19   F: -1233.600773830485423   dF: -4.782e-08   |Residual|: 7.859e-05   |deigs|: 3.715e-06  t[s]:   1112.96
	FillingsUpdate:  mu: +0.106321347  nElectrons: 314.000000
SCF: Cycle: 20   F: -1233.600773773953961   dF: +5.653e-08   |Residual|: 1.679e-04   |deigs|: 3.555e-06  t[s]:   1141.71
	FillingsUpdate:  mu: +0.106321745  nElectrons: 314.000000
SCF: Cycle: 21   F: -1233.600773847655546   dF: -7.370e-08   |Residual|: 4.311e-05   |deigs|: 3.065e-06  t[s]:   1170.44
	FillingsUpdate:  mu: +0.106321609  nElectrons: 314.000000
SCF: Cycle: 22   F: -1233.600773853147302   dF: -5.492e-09   |Residual|: 2.181e-05   |deigs|: 2.244e-06  t[s]:   1199.62
	FillingsUpdate:  mu: +0.106321659  nElectrons: 314.000000
SCF: Cycle: 23   F: -1233.600773853214832   dF: -6.753e-11   |Residual|: 1.901e-05   |deigs|: 1.943e-06  t[s]:   1228.41
SCF: Converged (|Delta E|<1.000000e-08 for 2 iters).

Setting wave functions to eigenvectors of Hamiltonian

# Ionic positions in lattice coordinates:
ion Os   0.348040000000000   0.363190000000000   0.236470000000000 1
ion Os   0.118580000000000   0.147050000000000   0.746380000000000 1
ion Os   0.347180000000000   0.875320000000000   0.242470000000000 1
ion Os   0.134330000000000   0.637320000000000   0.747210000000000 1
ion Os   0.880120000000000   0.368390000000000   0.246700000000000 1
ion Os   0.647170000000000   0.118510000000000   0.749640000000000 1
ion Os   0.858190000000000   0.869860000000000   0.246820000000000 1
ion Os   0.625310000000000   0.619410000000000   0.745920000000000 1
ion O   0.432990000000000   0.038970000000000   0.204330000000000 1
ion O   0.033070000000000   0.206870000000000   0.292970000000000 1
ion O   0.102500000000000   0.485800000000000   0.815240000000000 1
ion O   0.465580000000000   0.268280000000000   0.684300000000000 1
ion O   0.204920000000000   0.399970000000000   0.434150000000000 1
ion O   0.307990000000000   0.340920000000000   0.077770000000000 1
ion O   0.298820000000000   0.098240000000000   0.567810000000000 1
ion O   0.168740000000000   0.152580000000000   0.935490000000000 1
ion O   0.436290000000000   0.538420000000000   0.192880000000000 1
ion O   0.039230000000000   0.717700000000000   0.320080000000000 1
ion O   0.061270000000000   0.977680000000000   0.813290000000000 1
ion O   0.466180000000000   0.791890000000000   0.690060000000000 1
ion O   0.201140000000000   0.890380000000000   0.428520000000000 1
ion O   0.327580000000000   0.830660000000000   0.088440000000000 1
ion O   0.302090000000000   0.604220000000000   0.594740000000000 1
ion O   0.171030000000000   0.654220000000000   0.935630000000000 1
ion O   0.919920000000000   0.006130000000000   0.189810000000000 1
ion O   0.535810000000000   0.250340000000000   0.312850000000000 1
ion O   0.586410000000000   0.479380000000000   0.795900000000000 1
ion O   0.947960000000000   0.282530000000000   0.683210000000000 1
ion O   0.706530000000000   0.406150000000000   0.419360000000000 1
ion O   0.822580000000000   0.371000000000000   0.077990000000000 1
ion O   0.788090000000000   0.129420000000000   0.589090000000000 1
ion O   0.680410000000000   0.160930000000000   0.923110000000000 1
ion O   0.927200000000000   0.527680000000000   0.184590000000000 1
ion O   0.554030000000000   0.711540000000000   0.289030000000000 1
ion O   0.584050000000000   0.976710000000000   0.813450000000000 1
ion O   0.700190000000000   0.913230000000000   0.434020000000000 1
ion O   0.808790000000000   0.856910000000000   0.066550000000000 1
ion O   0.804500000000000   0.589400000000000   0.575410000000000 1
ion O   0.679990000000000   0.649220000000000   0.923240000000000 1

# Forces in Lattice coordinates:
force Os   4.761628730277122   4.523146159627077   5.471030352544577 1
force Os  -0.377030761858531  -2.608703614815134  -0.402832416714017 1
force Os   5.481734108819799   4.048198363655426   4.924118892387863 1
force Os   0.162846596950539  -0.718120910888922   1.404469865688740 1
force Os   1.267728873502979   2.587833439893447   2.065590125825694 1
force Os  -3.229017947502184   0.100735000816528   1.131979537409437 1
force Os   1.018446418634928  -0.106364123783899   1.309609263135487 1
force Os   2.267331442207556   4.172656914878157   0.261426690021038 1
force O  -1.513000954586763  -2.212602860182669  -0.355004126261726 1
force O  -0.089489490205215   0.456377410183899  -0.070297925306514 1
force O  -0.303002288375493   0.208259065480449  -0.382447207550628 1
force O   1.009733721855962  -0.829762472376580   0.638097642071308 1
force O  -0.010692368527449  -0.313536257405274  -0.849913187610428 1
force O  -2.341487812931375  -2.263771371361434  -3.469260566962419 1
force O  -0.959699517569338   0.283625168555571   0.986138323605203 1
force O  -0.429330621071670  -0.098115400165813  -0.830740160387265 1
force O  -1.255493412472958  -1.798993858538770  -0.340019371988094 1
force O  -1.247084343618412   0.743786077444491  -0.747859170469027 1
force O   1.228137747128812   2.404103375794495  -0.075878464191086 1
force O   0.465071880908328  -1.465685983786761   0.267675265350268 1
force O  -0.115240952326782  -0.071829076456283  -0.257507954445090 1
force O  -2.516655093050159  -2.738534813523636  -3.878477381440664 1
force O   0.365825785579432   0.244131722484612  -0.518983944276179 1
force O  -0.247661358438759   0.268949937510511  -0.546498597410316 1
force O  -0.149926344110080  -0.249172363113122   0.006555452734572 1
force O  -1.104047186343905  -0.149210167925685  -0.805070446337220 1
force O  -1.061173494507988  -1.726528349643184  -0.072218489977499 1
force O   0.526221262145761  -0.063250706381791   0.292738184168265 1
force O   0.668503242584784  -0.095393129271553  -0.573338758118331 1
force O  -1.203908092144415  -1.060033519614578  -1.620628438434581 1
force O   1.569020484113542   0.153664997065487  -1.337373735571699 1
force O  -0.183665940562988  -0.299140670464309  -0.291154073554246 1
force O  -0.657955409012044  -1.868520624194835   0.216902192196855 1
force O  -1.308063199398752   1.051814426006751  -0.416087585756697 1
force O   0.783595743957850   0.838051036799026  -0.131826415965551 1
force O   0.362681690070509  -0.282130821317516  -0.856228049699020 1
force O   0.039065422951057  -0.107396490376026   0.316590952385891 1
force O  -0.882406785458262  -0.120214888049057   0.610610670450223 1
force O  -0.789652848339201  -0.835503012942121  -1.075365064010159 1

# Energy components:
   Eewald =     -666.1851002748283008
       EH =      442.7097094278606164
     Eloc =    -1167.8384236799884093
      Enl =     -116.6768722358475401
      Exc =     -256.0065021622176573
 Exc_core =       58.5813615997785462
       KE =      471.8901248975614067
-------------------------------------
     Etot =    -1233.5257024276811535
       TS =        0.0750714255336260
-------------------------------------
        F =    -1233.6007738532148323

IonicMinimize: Iter:   0  F: -1233.600773853214832  |grad|_K:  8.338e-02  t[s]:   1238.56

#--- Lowdin population analysis ---
# oxidation-state Os +0.876 +0.912 +0.888 +0.789 +0.990 +0.992 +0.977 +0.965
# oxidation-state O -0.321 -0.241 -0.144 -0.251 -0.213 -0.061 -0.196 -0.204 -0.288 -0.279 -0.295 -0.254 -0.194 +0.000 -0.095 -0.167 -0.164 -0.201 -0.137 -0.184 -0.208 -0.096 -0.124 -0.212 -0.278 -0.247 -0.250 -0.208 -0.193 -0.229 -0.212


-------- Electronic minimization -----------
Will mix electronic density at each iteration.
	FillingsUpdate:  mu: +0.106321659  nElectrons: 314.000000
	FillingsUpdate:  mu: +0.103812436  nElectrons: 314.000000
SCF: Cycle:  0   F: -1230.377112205507274   dF: +1.973e+00   |Residual|: 1.172e+00   |deigs|: 1.013e-02  t[s]:   1303.87
	FillingsUpdate:  mu: +0.119884764  nElectrons: 314.000000
SCF: Cycle:  1   F: -1230.815414652461641   dF: -4.383e-01   |Residual|: 1.207e+00   |deigs|: 1.718e-02  t[s]:   1349.78
	FillingsUpdate:  mu: +0.109916638  nElectrons: 314.000000
SCF: Cycle:  2   F: -1233.020796261241230   dF: -2.205e+00   |Residual|: 5.131e-01   |deigs|: 1.915e-02  t[s]:   1396.27
	FillingsUpdate:  mu: +0.111959346  nElectrons: 314.000000
SCF: Cycle:  3   F: -1232.914643118911044   dF: +1.062e-01   |Residual|: 5.152e-01   |deigs|: 1.191e-02  t[s]:   1442.71
	FillingsUpdate:  mu: +0.105374155  nElectrons: 314.000000
SCF: Cycle:  4   F: -1233.489296486148760   dF: -5.747e-01   |Residual|: 3.240e-01   |deigs|: 4.891e-03  t[s]:   1488.58
	FillingsUpdate:  mu: +0.104980406  nElectrons: 314.000000
SCF: Cycle:  5   F: -1233.679545067389654   dF: -1.902e-01   |Residual|: 1.618e-01   |deigs|: 2.172e-03  t[s]:   1534.61
	FillingsUpdate:  mu: +0.105937579  nElectrons: 314.000000
SCF: Cycle:  6   F: -1233.747172476425476   dF: -6.763e-02   |Residual|: 7.176e-02   |deigs|: 1.688e-03  t[s]:   1578.37
	FillingsUpdate:  mu: +0.106406080  nElectrons: 314.000000
SCF: Cycle:  7   F: -1233.761705145605902   dF: -1.453e-02   |Residual|: 3.966e-02   |deigs|: 1.148e-03  t[s]:   1621.07
	FillingsUpdate:  mu: +0.106616276  nElectrons: 314.000000
SCF: Cycle:  8   F: -1233.759911987130636   dF: +1.793e-03   |Residual|: 4.335e-02   |deigs|: 6.282e-04  t[s]:   1664.48
	FillingsUpdate:  mu: +0.106606017  nElectrons: 314.000000
SCF: Cycle:  9   F: -1233.763415356787164   dF: -3.503e-03   |Residual|: 2.126e-02   |deigs|: 4.094e-04  t[s]:   1704.05
	FillingsUpdate:  mu: +0.106586180  nElectrons: 314.000000
SCF: Cycle: 10   F: -1233.764521830631793   dF: -1.106e-03   |Residual|: 9.405e-03   |deigs|: 2.075e-04  t[s]:   1732.61
	FillingsUpdate:  mu: +0.106614588  nElectrons: 314.000000
SCF: Cycle: 11   F: -1233.764782357945478   dF: -2.605e-04   |Residual|: 4.873e-03   |deigs|: 1.802e-04  t[s]:   1761.53
	FillingsUpdate:  mu: +0.106638254  nElectrons: 314.000000
SCF: Cycle: 12   F: -1233.764795222974726   dF: -1.287e-05   |Residual|: 3.596e-03   |deigs|: 1.136e-04  t[s]:   1790.69
	FillingsUpdate:  mu: +0.106622045  nElectrons: 314.000000
SCF: Cycle: 13   F: -1233.764831908251381   dF: -3.669e-05   |Residual|: 1.973e-03   |deigs|: 9.148e-05  t[s]:   1819.36
	FillingsUpdate:  mu: +0.106628435  nElectrons: 314.000000
SCF: Cycle: 14   F: -1233.764840797337911   dF: -8.889e-06   |Residual|: 1.266e-03   |deigs|: 4.747e-05  t[s]:   1848.35
	FillingsUpdate:  mu: +0.106628502  nElectrons: 314.000000
SCF: Cycle: 15   F: -1233.764842425601501   dF: -1.628e-06   |Residual|: 8.715e-04   |deigs|: 2.658e-05  t[s]:   1877.08
	FillingsUpdate:  mu: +0.106624469  nElectrons: 314.000000
SCF: Cycle: 16   F: -1233.764844139494926   dF: -1.714e-06   |Residual|: 5.193e-04   |deigs|: 2.359e-05  t[s]:   1905.88
	FillingsUpdate:  mu: +0.106625215  nElectrons: 314.000000
SCF: Cycle: 17   F: -1233.764844454490458   dF: -3.150e-07   |Residual|: 4.232e-04   |deigs|: 1.238e-05  t[s]:   1934.65
	FillingsUpdate:  mu: +0.106628289  nElectrons: 314.000000
SCF: Cycle: 18   F: -1233.764844827323941   dF: -3.728e-07   |Residual|: 1.877e-04   |deigs|: 7.595e-06  t[s]:   1963.48
	FillingsUpdate:  mu: +0.106629287  nElectrons: 314.000000
SCF: Cycle: 19   F: -1233.764844915797312   dF: -8.847e-08   |Residual|: 8.058e-05   |deigs|: 6.537e-06  t[s]:   1992.95
	FillingsUpdate:  mu: +0.106628356  nElectrons: 314.000000
SCF: Cycle: 20   F: -1233.764844881224235   dF: +3.457e-08   |Residual|: 1.267e-04   |deigs|: 2.940e-06  t[s]:   2021.31
	FillingsUpdate:  mu: +0.106628903  nElectrons: 314.000000
SCF: Cycle: 21   F: -1233.764844924153977   dF: -4.293e-08   |Residual|: 7.025e-05   |deigs|: 2.142e-06  t[s]:   2050.51
	FillingsUpdate:  mu: +0.106629257  nElectrons: 314.000000
SCF: Cycle: 22   F: -1233.764844931886955   dF: -7.733e-09   |Residual|: 3.906e-05   |deigs|: 1.020e-06  t[s]:   2078.99
	FillingsUpdate:  mu: +0.106629401  nElectrons: 314.000000
SCF: Cycle: 23   F: -1233.764844934769371   dF: -2.882e-09   |Residual|: 2.321e-05   |deigs|: 1.066e-06  t[s]:   2108.18
SCF: Converged (|Delta E|<1.000000e-08 for 2 iters).

Setting wave functions to eigenvectors of Hamiltonian

# Ionic positions in lattice coordinates:
ion Os   0.350140781398836   0.364362810148068   0.241059083448687 1
ion Os   0.119199727627905   0.145248690505207   0.746287944081619 1
ion Os   0.350321081829258   0.875936816219944   0.246329292810332 1
ion Os   0.134431063792991   0.636570514838382   0.748828304795940 1
ion Os   0.880052507227110   0.369686386449366   0.248461106177947 1
ion Os   0.643522004602489   0.119604872913368   0.751640971269068 1
ion Os   0.858985810645653   0.869282528243198   0.248071549589439 1
ion Os   0.626134704802810   0.621744995982750   0.745256206589739 1
ion O   0.432279391238573   0.037864061649140   0.204509719611975 1
ion O   0.032832275827908   0.207254686017521   0.292863368204218 1
ion O   0.102199314942148   0.486104812605643   0.814857196933774 1
ion O   0.466775191519776   0.267228234589938   0.684874395885411 1
ion O   0.205213650281918   0.399825700213382   0.433229507621282 1
ion O   0.307148925757800   0.340395305448704   0.074641435127536 1
ion O   0.297497825433992   0.098689148502067   0.569108848126843 1
ion O   0.168518557385321   0.152744419802671   0.934664089082231 1
ion O   0.435697666948603   0.537535125994868   0.192974132762517 1
ion O   0.037843617728335   0.718781739694531   0.319445580875383 1
ion O   0.061715708139804   0.979076722258529   0.812670674440214 1
ion O   0.467118274243377   0.790587357813488   0.690409235880909 1
ion O   0.201104458669504   0.890393270582486   0.428264315604468 1
ion O   0.326817847068778   0.829880421063709   0.084941186610449 1
ion O   0.302502537117333   0.604330695076346   0.594046928122085 1
ion O   0.170802911187916   0.654568577882865   0.935043617775044 1
ion O   0.919850556709103   0.005993305771930   0.189877960152138 1
ion O   0.534899929520640   0.250700758127947   0.312212598545132 1
ion O   0.585932729223552   0.478453345861254   0.796243310592279 1
ion O   0.948461865670923   0.282265766649972   0.683425708428906 1
ion O   0.707388967374595   0.405902512783562   0.418572356764612 1
ion O   0.822073619611133   0.370791749641310   0.076553996216808 1
ion O   0.789971158265128   0.129124383048818   0.587210818159598 1
ion O   0.680391184074132   0.160798697170323   0.922856057994735 1
ion O   0.927125450534178   0.526473218128101   0.185181304313361 1
ion O   0.552395893156939   0.712841663697135   0.288750266808219 1
ion O   0.584598639288083   0.977082697195323   0.813034347397526 1
ion O   0.700861815539584   0.912978591524125   0.433003735963110 1
ion O   0.808796006034690   0.856781469017134   0.066908562332571 1
ion O   0.803486259133744   0.589555490726011   0.576311306689479 1
ion O   0.679710090445439   0.648978456160884   0.922298978214414 1

# Forces in Lattice coordinates:
force Os   3.289496591147124   3.341279464356462   2.875795215042392 1
force Os  -0.507186341695865  -2.493275523816377  -0.344294010554875 1
force Os   4.077268232910887   2.251506114412095   2.437326481256488 1
force Os   0.309197412803752  -0.634457007243284   1.128250071461963 1
force Os   0.776908969829861   1.963771756462229   1.173488652841360 1
force Os  -2.146052062659495   0.485801513983558   0.427711108275926 1
force Os   0.919000105352526  -0.106617029652575   1.035498123934581 1
force Os   1.496419260886401   2.731259901919111   0.225080936054539 1
force O  -1.595871329701648  -2.373504694100856  -0.327018350396540 1
force O  -0.080954070961699   0.514438770969317  -0.040514403584189 1
force O  -0.363420491013987   0.068504847000245  -0.362107614726952 1
force O   0.858634207241390  -0.752921622595203   0.602516599922811 1
force O  -0.031480524195763  -0.258099056857005  -0.664149108973028 1
force O  -0.881626523079211  -0.892846584179628  -1.223374325676829 1
force O  -0.888219387074909   0.251277687325610   0.917595319538404 1
force O  -0.418776509157779  -0.108235918069789  -0.825439966223499 1
force O  -1.382085924544111  -1.996184230848973  -0.322954034377084 1
force O  -1.174302165949479   0.684069405194528  -0.695329968701053 1
force O   1.231082679774268   2.381640600157660  -0.081814393193514 1
force O   0.442297034044460  -1.302526671070144   0.235307449497698 1
force O  -0.046895668595068  -0.017275068984077  -0.208114790788091 1
force O  -1.112399960758064  -0.919730724145776  -1.533758581369584 1
force O   0.207897385970631   0.237214907323170  -0.400323636100866 1
force O  -0.175431049256400   0.329843414819285  -0.401726564733115 1
force O  -0.138719245031627  -0.242359047947026   0.021245111681429 1
force O  -0.949413017873924  -0.193784852550082  -0.663065418515254 1
force O  -0.541210022190402  -0.678859353416421  -0.061953103694986 1
force O   0.571905346622348  -0.108198978340009   0.310616294387667 1
force O   0.585968019572453  -0.056593681019109  -0.453416877110064 1
force O  -0.729672088488108  -0.734288360885698  -0.915038944868218 1
force O   0.780719928028864  -0.192898944091124  -0.683874831973895 1
force O  -0.198019537610189  -0.274974178331469  -0.228918903408307 1
force O  -0.565224209619140  -1.670814099176878   0.251474766140427 1
force O  -1.294041059474782   1.135173146418855  -0.354171049491975 1
force O   0.657929839545778   0.698009013683116  -0.107505838078991 1
force O   0.311008810654057  -0.271621336999941  -0.759800126033401 1
force O   0.107658611112155  -0.064873405923437   0.422453725854576 1
force O  -0.745011335389847  -0.046440058835000   0.532022292396491 1
force O  -0.657066457013398  -0.679647740345214  -0.935470288387476 1

# Energy components:
   Eewald =     -666.4933243894515726
       EH =      442.6256294858312685
     Eloc =    -1167.3599974529101928
      Enl =     -116.6754811873877316
      Exc =     -255.9533389367164204
 Exc_core =       58.5813334764183011
       KE =      471.5736934258562769
-------------------------------------
     Etot =    -1233.7014855783600069
       TS =        0.0633593564094320
-------------------------------------
        F =    -1233.7648449347693713

IonicMinimize: Iter:   1  F: -1233.764844934769371  |grad|_K:  5.693e-02  alpha:  2.474e-01  linmin: -9.488e-01  t[s]:   2118.35

#--- Lowdin population analysis ---
# oxidation-state Os +0.896 +0.925 +0.899 +0.786 +0.994 +1.000 +0.985 +0.977
# oxidation-state O -0.315 -0.240 -0.137 -0.241 -0.195 -0.130 -0.200 -0.198 -0.284 -0.273 -0.286 -0.248 -0.179 -0.068 -0.110 -0.155 -0.162 -0.178 -0.163 -0.188 -0.201 -0.121 -0.160 -0.205 -0.271 -0.238 -0.242 -0.210 -0.203 -0.227 -0.202


-------- Electronic minimization -----------
Will mix electronic density at each iteration.
	FillingsUpdate:  mu: +0.106629401  nElectrons: 314.000000
	FillingsUpdate:  mu: +0.103849150  nElectrons: 314.000000
SCF: Cycle:  0   F: -1229.730321945564128   dF: +2.539e+00   |Residual|: 1.276e+00   |deigs|: 1.128e-02  t[s]:   2184.65
	FillingsUpdate:  mu: +0.117830547  nElectrons: 314.000000
SCF: Cycle:  1   F: -1230.156969490519486   dF: -4.266e-01   |Residual|: 1.350e+00   |deigs|: 2.176e-02  t[s]:   2230.80
	FillingsUpdate:  mu: +0.112982133  nElectrons: 314.000000
SCF: Cycle:  2   F: -1233.268036058317875   dF: -3.111e+00   |Residual|: 4.924e-01   |deigs|: 1.927e-02  t[s]:   2277.66
	FillingsUpdate:  mu: +0.111470995  nElectrons: 314.000000
SCF: Cycle:  3   F: -1233.192968888060932   dF: +7.507e-02   |Residual|: 4.903e-01   |deigs|: 1.154e-02  t[s]:   2325.04
	FillingsUpdate:  mu: +0.105861346  nElectrons: 314.000000
SCF: Cycle:  4   F: -1233.706180469934907   dF: -5.132e-01   |Residual|: 2.638e-01   |deigs|: 5.039e-03  t[s]:   2371.56
	FillingsUpdate:  mu: +0.106585500  nElectrons: 314.000000
SCF: Cycle:  5   F: -1233.836275686857789   dF: -1.301e-01   |Residual|: 1.352e-01   |deigs|: 2.157e-03  t[s]:   2418.19
	FillingsUpdate:  mu: +0.107497956  nElectrons: 314.000000
SCF: Cycle:  6   F: -1233.894521264683817   dF: -5.825e-02   |Residual|: 4.315e-02   |deigs|: 1.767e-03  t[s]:   2462.69
	FillingsUpdate:  mu: +0.107751577  nElectrons: 314.000000
SCF: Cycle:  7   F: -1233.892163909924648   dF: +2.357e-03   |Residual|: 6.059e-02   |deigs|: 1.221e-03  t[s]:   2506.25
	FillingsUpdate:  mu: +0.107756218  nElectrons: 314.000000
SCF: Cycle:  8   F: -1233.899162908252038   dF: -6.999e-03   |Residual|: 2.679e-02   |deigs|: 6.050e-04  t[s]:   2550.26
	FillingsUpdate:  mu: +0.107757254  nElectrons: 314.000000
SCF: Cycle:  9   F: -1233.900697846047251   dF: -1.535e-03   |Residual|: 1.076e-02   |deigs|: 3.157e-04  t[s]:   2578.80
	FillingsUpdate:  mu: +0.107848384  nElectrons: 314.000000
SCF: Cycle: 10   F: -1233.900735000325085   dF: -3.715e-05   |Residual|: 8.532e-03   |deigs|: 2.118e-04  t[s]:   2607.25
	FillingsUpdate:  mu: +0.108015268  nElectrons: 314.000000
SCF: Cycle: 11   F: -1233.900936422842733   dF: -2.014e-04   |Residual|: 7.215e-03   |deigs|: 2.268e-04  t[s]:   2636.22
	FillingsUpdate:  mu: +0.107979750  nElectrons: 314.000000
SCF: Cycle: 12   F: -1233.901032316684450   dF: -9.589e-05   |Residual|: 2.841e-03   |deigs|: 1.339e-04  t[s]:   2664.93
	FillingsUpdate:  mu: +0.107952324  nElectrons: 314.000000
SCF: Cycle: 13   F: -1233.901049140510622   dF: -1.682e-05   |Residual|: 2.536e-03   |deigs|: 9.097e-05  t[s]:   2693.64
	FillingsUpdate:  mu: +0.107963452  nElectrons: 314.000000
SCF: Cycle: 14   F: -1233.901066301379160   dF: -1.716e-05   |Residual|: 9.266e-04   |deigs|: 4.630e-05  t[s]:   2721.92
	FillingsUpdate:  mu: +0.107962040  nElectrons: 314.000000
SCF: Cycle: 15   F: -1233.901068119762385   dF: -1.818e-06   |Residual|: 6.746e-04   |deigs|: 3.589e-05  t[s]:   2750.15
	FillingsUpdate:  mu: +0.107955181  nElectrons: 314.000000
SCF: Cycle: 16   F: -1233.901068764827869   dF: -6.451e-07   |Residual|: 4.025e-04   |deigs|: 1.915e-05  t[s]:   2779.14
	FillingsUpdate:  mu: +0.107956227  nElectrons: 314.000000
SCF: Cycle: 17   F: -1233.901069116810959   dF: -3.520e-07   |Residual|: 2.767e-04   |deigs|: 1.053e-05  t[s]:   2808.06
	FillingsUpdate:  mu: +0.107957374  nElectrons: 314.000000
SCF: Cycle: 18   F: -1233.901069248005115   dF: -1.312e-07   |Residual|: 1.463e-04   |deigs|: 7.547e-06  t[s]:   2836.96
	FillingsUpdate:  mu: +0.107958264  nElectrons: 314.000000
SCF: Cycle: 19   F: -1233.901069265879869   dF: -1.787e-08   |Residual|: 1.274e-04   |deigs|: 3.577e-06  t[s]:   2866.08
	FillingsUpdate:  mu: +0.107958387  nElectrons: 314.000000
SCF: Cycle: 20   F: -1233.901069294850231   dF: -2.897e-08   |Residual|: 7.418e-05   |deigs|: 2.330e-06  t[s]:   2895.08
	FillingsUpdate:  mu: +0.107958038  nElectrons: 314.000000
SCF: Cycle: 21   F: -1233.901069300899962   dF: -6.050e-09   |Residual|: 6.322e-05   |deigs|: 1.721e-06  t[s]:   2923.86
	FillingsUpdate:  mu: +0.107958147  nElectrons: 314.000000
SCF: Cycle: 22   F: -1233.901069306975160   dF: -6.075e-09   |Residual|: 2.983e-05   |deigs|: 1.050e-06  t[s]:   2952.45
SCF: Converged (|Delta E|<1.000000e-08 for 2 iters).

Setting wave functions to eigenvectors of Hamiltonian

# Ionic positions in lattice coordinates:
ion Os   0.352798400899616   0.366274686198118   0.243823546853705 1
ion Os   0.119900974978983   0.142239783592640   0.746310593477385 1
ion Os   0.355486986251187   0.875679150076056   0.248149731889238 1
ion Os   0.135042754000786   0.635291042006021   0.750983026343972 1
ion Os   0.879731695376101   0.371589178000473   0.249792395360633 1
ion Os   0.639478170017164   0.121575236790427   0.752826677720867 1
ion Os   0.860351204203342   0.868370645631124   0.249708978225588 1
ion Os   0.626992945740027   0.624148622106795   0.744699046419323 1
ion O   0.430895216030407   0.035617773524247   0.204993499800148 1
ion O   0.032354533469107   0.208046519304479   0.292726102432383 1
ion O   0.101606770325047   0.486464188789020   0.814273506992644 1
ion O   0.468561654792443   0.265565439333490   0.685895532696744 1
ion O   0.205559950187898   0.399629601585956   0.432019773436555 1
ion O   0.306801153124505   0.340094450948134   0.073611168754761 1
ion O   0.295307730292540   0.099414664037160   0.571281962010222 1
ion O   0.168143488521559   0.153018280266673   0.933160944355782 1
ion O   0.434461052839830   0.535668819757169   0.193304599664740 1
ion O   0.035497554517590   0.720588513495610   0.318394664304879 1
ion O   0.062560925219489   0.981596167398887   0.811524053048414 1
ion O   0.468668451986357   0.788510401324720   0.690937821306489 1
ion O   0.201132400518814   0.890445246650581   0.427874013608219 1
ion O   0.326067788888111   0.829912821522888   0.083408574490966 1
ion O   0.302825308034730   0.604620587023615   0.593167690396724 1
ion O   0.170433908685184   0.655219815307244   0.934290103824196 1
ion O   0.919736951158442   0.005742040053439   0.190032639847840 1
ion O   0.533562690250002   0.251124808469700   0.311340698516952 1
ion O   0.585445234206387   0.478154819766596   0.796372271835357 1
ion O   0.949517613608586   0.281662060591456   0.683853793050667 1
ion O   0.708671971157742   0.405554267731474   0.417472438371940 1
ion O   0.821642852886556   0.370422455028822   0.075417030187067 1
ion O   0.791475824459074   0.128459472243180   0.585952611790282 1
ion O   0.680270390639234   0.160596684406012   0.922552884933824 1
ion O   0.927032015846575   0.524522375533570   0.186257389399796 1
ion O   0.549335038929687   0.715345651228342   0.288369793421010 1
ion O   0.585405005597935   0.977617803509732   0.812435066579202 1
ion O   0.701910694664271   0.912554651173170   0.431414829088079 1
ion O   0.808880764338307   0.856538802290943   0.067792502126958 1
ion O   0.801937972892690   0.589876611477642   0.577669707546356 1
ion O   0.679313960463693   0.648665861824392   0.920828335890092 1

# Forces in Lattice coordinates:
force Os   2.506826568595233   2.961284326269940   1.542774475726340 1
force Os  -0.643339314292967  -2.212717063724865  -0.257917852163042 1
force Os   3.134834405168871   1.470139662806456   1.438957128370409 1
force Os   0.409867991682462  -0.535421307953403   0.746549407113016 1
force Os   0.390313690497779   1.208249886591697   0.466735578945508 1
force Os  -1.197397471293846   0.582077086449038   0.079232842050582 1
force Os   0.728363600901868  -0.061126065396095   0.664390905806596 1
force Os   0.818431168328112   1.464280829865281   0.158036473890314 1
force O  -1.622477188771063  -2.485219589236173  -0.311163683740082 1
force O  -0.075353809987176   0.589870161469563  -0.017826566227370 1
force O  -0.441975757075955  -0.125748846939956  -0.329608089870536 1
force O   0.579465400451779  -0.558322278649777   0.484969905618422 1
force O  -0.041533962946605  -0.203752231248654  -0.523579304015282 1
force O  -0.199452643866062  -0.254164955318682  -0.207192454383803 1
force O  -0.763990215671853   0.190756042395354   0.793536888168326 1
force O  -0.389075250009283  -0.120306246261248  -0.786100095744800 1
force O  -1.526985973320963  -2.214867616588450  -0.320649727613487 1
force O  -1.008977811217386   0.553490180658423  -0.593970803873798 1
force O   1.183965965771640   2.252144909824112  -0.089963490495349 1
force O   0.358715948636720  -1.052934076188603   0.175616727271493 1
force O   0.157201588343604   0.049608394578115  -0.307257228606552 1
force O  -0.454306439351349  -0.109478420671632  -0.518067637656376 1
force O   0.062348010985737   0.226268820761745  -0.282158839057049 1
force O  -0.051007638043280   0.429825879977924  -0.165641466957812 1
force O  -0.099284201293655  -0.202632249504532   0.040637419954488 1
force O  -0.702299581035092  -0.283627062976099  -0.494302719242072 1
force O  -0.181951947663609   0.041788192253950  -0.052956075182961 1
force O   0.605226664400377  -0.173479814847330   0.323254879702274 1
force O   0.454327595115604  -0.008233912227035  -0.298571937599945 1
force O  -0.386978219567350  -0.474554681629615  -0.409400035569718 1
force O   0.263864531735916  -0.389720353079154  -0.276301125917598 1
force O  -0.216745499360107  -0.239958386684698  -0.183307373390889 1
force O  -0.391172544577421  -1.300362173423366   0.273820046589841 1
force O  -1.187732542332155   1.146527935275509  -0.288687903604200 1
force O   0.528162515082359   0.568332938754306  -0.094258406056795 1
force O   0.230267756201731  -0.256811801909240  -0.613199890913380 1
force O   0.173787126574089  -0.035197995004483   0.519854195157446 1
force O  -0.549442979177524   0.026872192546834   0.403371385322807 1
force O  -0.453913626737883  -0.459989318999328  -0.687631728586135 1

# Energy components:
   Eewald =     -663.6858849603348744
       EH =      445.3288927712545160
     Eloc =    -1173.0135687487597806
      Enl =     -116.7110746603975286
      Exc =     -256.0505912604221521
 Exc_core =       58.5813315254103912
       KE =      471.6998032847167224
-------------------------------------
     Etot =    -1233.8510920485327915
       TS =        0.0499772584424400
-------------------------------------
        F =    -1233.9010693069751596

IonicMinimize: Iter:   2  F: -1233.901069306975160  |grad|_K:  4.354e-02  alpha:  3.917e-01  linmin: -9.815e-01  t[s]:   2962.65

#--- Lowdin population analysis ---
# oxidation-state Os +0.915 +0.948 +0.917 +0.781 +1.001 +1.010 +0.996 +0.992
# oxidation-state O -0.309 -0.241 -0.133 -0.225 -0.188 -0.173 -0.202 -0.197 -0.287 -0.262 -0.273 -0.243 -0.185 -0.110 -0.128 -0.146 -0.163 -0.161 -0.188 -0.195 -0.196 -0.144 -0.187 -0.204 -0.261 -0.226 -0.240 -0.212 -0.216 -0.225 -0.195


-------- Electronic minimization -----------
Will mix electronic density at each iteration.
	FillingsUpdate:  mu: +0.107958147  nElectrons: 314.000000
	FillingsUpdate:  mu: +0.105451730  nElectrons: 314.000000
SCF: Cycle:  0   F: -1230.179377776777073   dF: +2.310e+00   |Residual|: 1.220e+00   |deigs|: 1.049e-02  t[s]:   3028.32
	FillingsUpdate:  mu: +0.112471253  nElectrons: 314.000000
SCF: Cycle:  1   F: -1230.988722708001433   dF: -8.093e-01   |Residual|: 1.247e+00   |deigs|: 2.340e-02  t[s]:   3075.75
	FillingsUpdate:  mu: +0.112876815  nElectrons: 314.000000
SCF: Cycle:  2   F: -1233.607243884380523   dF: -2.619e+00   |Residual|: 3.941e-01   |deigs|: 1.747e-02  t[s]:   3121.98
	FillingsUpdate:  mu: +0.112126687  nElectrons: 314.000000
SCF: Cycle:  3   F: -1233.322347277593508   dF: +2.849e-01   |Residual|: 4.947e-01   |deigs|: 9.526e-03  t[s]:   3168.24
	FillingsUpdate:  mu: +0.108139353  nElectrons: 314.000000
SCF: Cycle:  4   F: -1233.901903390927828   dF: -5.796e-01   |Residual|: 1.948e-01   |deigs|: 5.424e-03  t[s]:   3215.27
	FillingsUpdate:  mu: +0.108911632  nElectrons: 314.000000
SCF: Cycle:  5   F: -1233.981221827908939   dF: -7.932e-02   |Residual|: 8.889e-02   |deigs|: 1.700e-03  t[s]:   3260.30
	FillingsUpdate:  mu: +0.109480331  nElectrons: 314.000000
SCF: Cycle:  6   F: -1234.009216615546848   dF: -2.799e-02   |Residual|: 3.582e-02   |deigs|: 1.564e-03  t[s]:   3304.15
	FillingsUpdate:  mu: +0.109065246  nElectrons: 314.000000
SCF: Cycle:  7   F: -1234.007971482421681   dF: +1.245e-03   |Residual|: 3.838e-02   |deigs|: 7.959e-04  t[s]:   3347.85
	FillingsUpdate:  mu: +0.109367723  nElectrons: 314.000000
SCF: Cycle:  8   F: -1234.010949757261869   dF: -2.978e-03   |Residual|: 1.140e-02   |deigs|: 4.560e-04  t[s]:   3391.95
	FillingsUpdate:  mu: +0.109577341  nElectrons: 314.000000
SCF: Cycle:  9   F: -1234.011071035496570   dF: -1.213e-04   |Residual|: 7.059e-03   |deigs|: 2.241e-04  t[s]:   3421.27
	FillingsUpdate:  mu: +0.109742840  nElectrons: 314.000000
SCF: Cycle: 10   F: -1234.011184390635663   dF: -1.134e-04   |Residual|: 7.415e-03   |deigs|: 2.639e-04  t[s]:   3449.90
	FillingsUpdate:  mu: +0.109819605  nElectrons: 314.000000
SCF: Cycle: 11   F: -1234.011305984697174   dF: -1.216e-04   |Residual|: 3.856e-03   |deigs|: 1.675e-04  t[s]:   3478.31
	FillingsUpdate:  mu: +0.109802391  nElectrons: 314.000000
SCF: Cycle: 12   F: -1234.011338663203105   dF: -3.268e-05   |Residual|: 2.406e-03   |deigs|: 9.636e-05  t[s]:   3507.99
	FillingsUpdate:  mu: +0.109792790  nElectrons: 314.000000
SCF: Cycle: 13   F: -1234.011348947432452   dF: -1.028e-05   |Residual|: 1.454e-03   |deigs|: 5.443e-05  t[s]:   3536.87
	FillingsUpdate:  mu: +0.109785389  nElectrons: 314.000000
SCF: Cycle: 14   F: -1234.011353737786521   dF: -4.790e-06   |Residual|: 7.605e-04   |deigs|: 4.064e-05  t[s]:   3565.85
	FillingsUpdate:  mu: +0.109795080  nElectrons: 314.000000
SCF: Cycle: 15   F: -1234.011355435324731   dF: -1.698e-06   |Residual|: 5.542e-04   |deigs|: 3.413e-05  t[s]:   3594.48
	FillingsUpdate:  mu: +0.109790666  nElectrons: 314.000000
SCF: Cycle: 16   F: -1234.011355882825910   dF: -4.475e-07   |Residual|: 3.548e-04   |deigs|: 1.617e-05  t[s]:   3623.53
	FillingsUpdate:  mu: +0.109790918  nElectrons: 314.000000
SCF: Cycle: 17   F: -1234.011356116507159   dF: -2.337e-07   |Residual|: 1.945e-04   |deigs|: 8.806e-06  t[s]:   3652.92
	FillingsUpdate:  mu: +0.109793303  nElectrons: 314.000000
SCF: Cycle: 18   F: -1234.011356183431872   dF: -6.692e-08   |Residual|: 1.140e-04   |deigs|: 6.099e-06  t[s]:   3682.21
	FillingsUpdate:  mu: +0.109794660  nElectrons: 314.000000
SCF: Cycle: 19   F: -1234.011356211764451   dF: -2.833e-08   |Residual|: 7.551e-05   |deigs|: 3.964e-06  t[s]:   3711.09
	FillingsUpdate:  mu: +0.109795605  nElectrons: 314.000000
SCF: Cycle: 20   F: -1234.011356222836412   dF: -1.107e-08   |Residual|: 3.870e-05   |deigs|: 2.192e-06  t[s]:   3740.21
	FillingsUpdate:  mu: +0.109795429  nElectrons: 314.000000
SCF: Cycle: 21   F: -1234.011356224575820   dF: -1.739e-09   |Residual|: 2.725e-05   |deigs|: 9.330e-07  t[s]:   3768.80
	FillingsUpdate:  mu: +0.109795610  nElectrons: 314.000000
SCF: Cycle: 22   F: -1234.011356226128555   dF: -1.553e-09   |Residual|: 2.066e-05   |deigs|: 7.559e-07  t[s]:   3797.44
SCF: Converged (|Delta E|<1.000000e-08 for 2 iters).

Setting wave functions to eigenvectors of Hamiltonian

# Ionic positions in lattice coordinates:
ion Os   0.355450672870886   0.369205363189926   0.245218319125103 1
ion Os   0.120145335750667   0.139036781788702   0.746582332213013 1
ion Os   0.360880573179552   0.875301832079339   0.249595675323289 1
ion Os   0.136179398369608   0.633855443054949   0.752598883870537 1
ion Os   0.879458874502206   0.373084468867902   0.250179081104792 1
ion Os   0.636596880011595   0.123441806358818   0.753230278955808 1
ion Os   0.861746424865535   0.867579146107471   0.250866908137745 1
ion Os   0.627560988328772   0.625646433283879   0.744427893031135 1
ion O   0.429159949786802   0.032553358564937   0.205678865284070 1
ion O   0.031672081179235   0.209202195107571   0.292580928083292 1
ion O   0.100792511563325   0.486613750859123   0.813713350444381 1
ion O   0.469977553301002   0.264127647098554   0.686950845765536 1
ion O   0.205877188052076   0.399446956053443   0.430784886239159 1
ion O   0.306751719085184   0.339919629054836   0.073642183833489 1
ion O   0.292956939171410   0.100146695776089   0.573655251076195 1
ion O   0.167729962867847   0.153307415100512   0.931337346858363 1
ion O   0.432686848833266   0.532986405264184   0.193861578313766 1
ion O   0.033005743071148   0.722460348696607   0.317279567124294 1
ion O   0.063637864464765   0.984611730615174   0.810095370013640 1
ion O   0.470228015288867   0.786422590775261   0.691426972695092 1
ion O   0.201784170660619   0.890470791973369   0.426842100103854 1
ion O   0.325407355711192   0.830344265004692   0.082697376405060 1
ion O   0.302842782953888   0.605060927119849   0.592424258402669 1
ion O   0.170065633347062   0.656077405106147   0.933911171422753 1
ion O   0.919654972136080   0.005461439106669   0.190249176410403 1
ion O   0.532498608619299   0.251216779213740   0.310560959586375 1
ion O   0.585054836400814   0.478616359541696   0.796241037634352 1
ion O   0.951004407630197   0.280729306078062   0.684436984040766 1
ion O   0.709838831036536   0.405276377727505   0.416556160194061 1
ion O   0.821388413831635   0.370011875046872   0.074904090300033 1
ion O   0.792303124696315   0.127609508731308   0.585480520295198 1
ion O   0.680012273340737   0.160410721999682   0.922270389887017 1
ion O   0.927035950062058   0.522588504659036   0.187483715541628 1
ion O   0.545686866628480   0.718429465834183   0.287985433265402 1
ion O   0.586225079357755   0.978188875620174   0.811789922163947 1
ion O   0.702945317305490   0.912070516336380   0.429836396114695 1
ion O   0.809077123078738   0.856194192647004   0.069141514245066 1
ion O   0.800476799134903   0.590280199793207   0.578910159872097 1
ion O   0.679001929524456   0.648432490763147   0.919492116621926 1

# Forces in Lattice coordinates:
force Os   1.976425383864529   2.761959012363267   0.774363739058887 1
force Os  -0.628198700543435  -1.744019349716504  -0.153421516936849 1
force Os   2.208558672248788   0.984085498327197   0.736305924503616 1
force Os   0.410301698161182  -0.478878365292489   0.498490130832526 1
force Os   0.142358554731593   0.617082413095813   0.116044820567904 1
force Os  -0.566216001357654   0.447034827694926   0.003633786503283 1
force Os   0.511761699662874   0.040468181000709   0.375487226890837 1
force Os   0.439962231750779   0.723457125954575   0.108079839474876 1
force O  -1.550867469592840  -2.458475619164254  -0.279925871162674 1
force O  -0.049308221339624   0.603775830282391   0.001073009284264 1
force O  -0.484423261587357  -0.250359094791055  -0.301267111956236 1
force O   0.277288033719209  -0.322582718498300   0.331947174250979 1
force O  -0.014386455314582  -0.142481308636301  -0.445129312068445 1
force O   0.203263417218097   0.134670146672385   0.342712711969410 1
force O  -0.625075718243584   0.120603009992198   0.645833192423497 1
force O  -0.353241271931737  -0.130475576383610  -0.720056145168460 1
force O  -1.646920697193822  -2.388545671459255  -0.320940307423650 1
force O  -0.782926115577007   0.377343869789318  -0.466792953738484 1
force O   1.024946548948249   1.924213895256516  -0.097948503522283 1
force O   0.239535710538199  -0.808008157671871   0.105311726300248 1
force O   0.324308317875394   0.111590066383209  -0.349780557158644 1
force O  -0.009352640710285   0.386506408279837   0.088572560996678 1
force O   0.011118413591268   0.216254505864035  -0.232360597574885 1
force O   0.041881275474458   0.497805824650752   0.008201324648757 1
force O  -0.040215099145007  -0.127834711326763   0.053975941610849 1
force O  -0.486167783446014  -0.359919514114387  -0.356444425598805 1
force O  -0.048736599710599   0.304824758467934  -0.048194551253543 1
force O   0.580580128909480  -0.220291024960208   0.311941237577020 1
force O   0.337796567426562   0.024944277414441  -0.179006003963831 1
force O  -0.238243648411286  -0.344148226409504  -0.198035982437446 1
force O   0.026041787330504  -0.452251267543407  -0.101993300286339 1
force O  -0.210989451114367  -0.189204186379285  -0.134416012176384 1
force O  -0.196880324979499  -0.890733613282062   0.274820731468356 1
force O  -0.950481945036028   1.045078337739654  -0.184380178478564 1
force O   0.433494926008640   0.479303895717797  -0.089356138248437 1
force O   0.150441625772880  -0.241796290556398  -0.476910287727446 1
force O   0.185143311058328  -0.046844411034513   0.528515233449601 1
force O  -0.372230373856574   0.069201866289255   0.273621006236446 1
force O  -0.267993121018494  -0.270868459646696  -0.441612790451982 1

# Energy components:
   Eewald =     -659.3288103358333956
       EH =      449.4227571646340493
     Eloc =    -1181.7371468402134269
      Enl =     -116.7660642744517929
      Exc =     -256.2270375306719643
 Exc_core =       58.5813373278692282
       KE =      472.0819908189007492
-------------------------------------
     Etot =    -1233.9729736697665885
       TS =        0.0383825563620573
-------------------------------------
        F =    -1234.0113562261285551

IonicMinimize: Iter:   3  F: -1234.011356226128555  |grad|_K:  3.515e-02  alpha:  2.262e-01  linmin: -9.813e-01  t[s]:   3807.80

#--- Lowdin population analysis ---
# oxidation-state Os +0.934 +0.973 +0.940 +0.772 +1.010 +1.020 +1.008 +1.006
# oxidation-state O -0.298 -0.242 -0.133 -0.211 -0.190 -0.204 -0.204 -0.200 -0.288 -0.250 -0.257 -0.239 -0.195 -0.145 -0.141 -0.144 -0.167 -0.152 -0.202 -0.204 -0.197 -0.160 -0.203 -0.207 -0.252 -0.212 -0.241 -0.216 -0.226 -0.224 -0.192


-------- Electronic minimization -----------
Will mix electronic density at each iteration.
	FillingsUpdate:  mu: +0.109795610  nElectrons: 314.000000
	FillingsUpdate:  mu: +0.108017284  nElectrons: 314.000000
SCF: Cycle:  0   F: -1231.349677394969831   dF: +1.611e+00   |Residual|: 1.033e+00   |deigs|: 8.029e-03  t[s]:   3873.11
	FillingsUpdate:  mu: +0.106792366  nElectrons: 314.000000
SCF: Cycle:  1   F: -1232.226291531240804   dF: -8.766e-01   |Residual|: 1.011e+00   |deigs|: 2.049e-02  t[s]:   3919.62
	FillingsUpdate:  mu: +0.110939105  nElectrons: 314.000000
SCF: Cycle:  2   F: -1233.888732790416270   dF: -1.662e+00   |Residual|: 2.769e-01   |deigs|: 1.416e-02  t[s]:   3967.22
	FillingsUpdate:  mu: +0.112293997  nElectrons: 314.000000
SCF: Cycle:  3   F: -1233.713711658627744   dF: +1.750e-01   |Residual|: 3.822e-01   |deigs|: 6.718e-03  t[s]:   4013.68
	FillingsUpdate:  mu: +0.110948778  nElectrons: 314.000000
SCF: Cycle:  4   F: -1234.063318250056682   dF: -3.496e-01   |Residual|: 1.002e-01   |deigs|: 4.802e-03  t[s]:   4060.03
	FillingsUpdate:  mu: +0.111116182  nElectrons: 314.000000
SCF: Cycle:  5   F: -1234.086845295394824   dF: -2.353e-02   |Residual|: 4.272e-02   |deigs|: 1.275e-03  t[s]:   4104.90
	FillingsUpdate:  mu: +0.110936261  nElectrons: 314.000000
SCF: Cycle:  6   F: -1234.090782235374036   dF: -3.937e-03   |Residual|: 3.042e-02   |deigs|: 7.862e-04  t[s]:   4147.49
	FillingsUpdate:  mu: +0.111021656  nElectrons: 314.000000
SCF: Cycle:  7   F: -1234.091781386478715   dF: -9.992e-04   |Residual|: 1.484e-02   |deigs|: 5.302e-04  t[s]:   4191.44
	FillingsUpdate:  mu: +0.111367940  nElectrons: 314.000000
SCF: Cycle:  8   F: -1234.092211621864408   dF: -4.302e-04   |Residual|: 7.011e-03   |deigs|: 2.974e-04  t[s]:   4220.34
	FillingsUpdate:  mu: +0.111610120  nElectrons: 314.000000
SCF: Cycle:  9   F: -1234.092218839881753   dF: -7.218e-06   |Residual|: 6.127e-03   |deigs|: 2.358e-04  t[s]:   4249.74
	FillingsUpdate:  mu: +0.111633612  nElectrons: 314.000000
SCF: Cycle: 10   F: -1234.092353012102194   dF: -1.342e-04   |Residual|: 3.792e-03   |deigs|: 1.508e-04  t[s]:   4278.63
	FillingsUpdate:  mu: +0.111639210  nElectrons: 314.000000
SCF: Cycle: 11   F: -1234.092396693933324   dF: -4.368e-05   |Residual|: 1.534e-03   |deigs|: 1.102e-04  t[s]:   4307.16
	FillingsUpdate:  mu: +0.111671183  nElectrons: 314.000000
SCF: Cycle: 12   F: -1234.092404796224855   dF: -8.102e-06   |Residual|: 1.156e-03   |deigs|: 5.173e-05  t[s]:   4336.31
	FillingsUpdate:  mu: +0.111663868  nElectrons: 314.000000
SCF: Cycle: 13   F: -1234.092408206538039   dF: -3.410e-06   |Residual|: 5.244e-04   |deigs|: 4.437e-05  t[s]:   4365.94
	FillingsUpdate:  mu: +0.111663587  nElectrons: 314.000000
SCF: Cycle: 14   F: -1234.092408778260733   dF: -5.717e-07   |Residual|: 3.333e-04   |deigs|: 2.601e-05  t[s]:   4395.31
	FillingsUpdate:  mu: +0.111671353  nElectrons: 314.000000
SCF: Cycle: 15   F: -1234.092409123104972   dF: -3.448e-07   |Residual|: 2.221e-04   |deigs|: 1.175e-05  t[s]:   4424.10
	FillingsUpdate:  mu: +0.111673834  nElectrons: 314.000000
SCF: Cycle: 16   F: -1234.092409195870914   dF: -7.277e-08   |Residual|: 1.338e-04   |deigs|: 7.990e-06  t[s]:   4452.71
	FillingsUpdate:  mu: +0.111674110  nElectrons: 314.000000
SCF: Cycle: 17   F: -1234.092409223144159   dF: -2.727e-08   |Residual|: 8.795e-05   |deigs|: 4.488e-06  t[s]:   4482.33
	FillingsUpdate:  mu: +0.111674566  nElectrons: 314.000000
SCF: Cycle: 18   F: -1234.092409238990285   dF: -1.585e-08   |Residual|: 4.282e-05   |deigs|: 1.775e-06  t[s]:   4511.34
	FillingsUpdate:  mu: +0.111675063  nElectrons: 314.000000
SCF: Cycle: 19   F: -1234.092409243447946   dF: -4.458e-09   |Residual|: 2.194e-05   |deigs|: 1.957e-06  t[s]:   4540.81
	FillingsUpdate:  mu: +0.111675492  nElectrons: 314.000000
SCF: Cycle: 20   F: -1234.092409244670762   dF: -1.223e-09   |Residual|: 1.491e-05   |deigs|: 7.881e-07  t[s]:   4569.99
SCF: Converged (|Delta E|<1.000000e-08 for 2 iters).

Setting wave functions to eigenvectors of Hamiltonian

# Ionic positions in lattice coordinates:
ion Os   0.357689940062922   0.372853310309918   0.245754510560820 1
ion Os   0.120016618618478   0.136530163155097   0.747030495839727 1
ion Os   0.364925579127726   0.875310323576606   0.250516119744382 1
ion Os   0.137407789961127   0.632441966397100   0.753784009769894 1
ion Os   0.879277464934241   0.373858686447092   0.250303632480431 1
ion Os   0.634983681789148   0.124487518412199   0.753675696058786 1
ion Os   0.862667201655845   0.867273108781167   0.251447191950704 1
ion Os   0.628011173743168   0.626509783503645   0.744285117475308 1
ion O   0.427450857925378   0.029192845052542   0.206456603978925 1
ion O   0.031006222936198   0.210434844763303   0.292451813003141 1
ion O   0.099879998593728   0.486588340858250   0.813223283519304 1
ion O   0.470480355581467   0.263443422794388   0.687710617407698 1
ion O   0.206262742437718   0.399320580131134   0.429510846437023 1
ion O   0.306939505829716   0.339894981388432   0.074199222417050 1
ion O   0.290941491710138   0.100704076634197   0.575725764594060 1
ion O   0.167342310656960   0.153547563965595   0.929529175832320 1
ion O   0.430541420751377   0.529772576176300   0.194590615234479 1
ion O   0.031076808713717   0.723832652319903   0.316372662924846 1
ion O   0.064651908526306   0.987306448441264   0.808729925938667 1
ion O   0.471371150429322   0.784777788967317   0.691747782362370 1
ion O   0.202950574620281   0.890475969701544   0.425458682921263 1
ion O   0.325026925979936   0.831013610393327   0.082580855725446 1
ion O   0.302825006839332   0.605536311867850   0.591672816224138 1
ion O   0.169742290420825   0.657029047544124   0.933907841836510 1
ion O   0.919666733472640   0.005270322760700   0.190455278618742 1
ion O   0.531914178744907   0.250917206414738   0.309975648576548 1
ion O   0.584645366272940   0.479195330314035   0.796076241476347 1
ion O   0.952575661182386   0.279656134639766   0.685064322448170 1
ion O   0.710714171529009   0.405105465754898   0.415936094691209 1
ion O   0.821151009091723   0.369626816567071   0.074494402297455 1
ion O   0.792911358582460   0.126754875315220   0.585177112756000 1
ion O   0.679680434626835   0.160296149009724   0.922079030753299 1
ion O   0.927219143078566   0.521154795116130   0.188562807521470 1
ion O   0.542549327748976   0.721221013904106   0.287786015384067 1
ion O   0.586977899914466   0.978755650997955   0.811142735237266 1
ion O   0.703761829256600   0.911602998236524   0.428548443122457 1
ion O   0.809310834086625   0.855766448279970   0.070575179008462 1
ion O   0.799405946463698   0.590661190655333   0.579755163794341 1
ion O   0.678847084103114   0.648299680451535   0.918626240076874 1

# Forces in Lattice coordinates:
force Os   1.557499723176797   2.407089436895051   0.317831240583942 1
force Os  -0.471418270799156  -1.191359858256033  -0.085034191660538 1
force Os   1.404937817830296   0.645041125218755   0.256128944247158 1
force Os   0.406786662913823  -0.434705542990130   0.362637078213265 1
force Os  -0.032877714255885   0.271239639578711  -0.103600367462244 1
force Os  -0.192975690716379   0.385192721306279  -0.080490886982103 1
force Os   0.350975780386063   0.116770156366350   0.205093586478741 1
force Os   0.215911908070646   0.271180543856149   0.083396937065731 1
force O  -1.375500545209286  -2.236161814971307  -0.239930493634567 1
force O  -0.005998939608254   0.555553926507462   0.023000687086361 1
force O  -0.497177800298466  -0.311991508977442  -0.277712045185811 1
force O   0.096203886517598  -0.176630665622229   0.235656749532060 1
force O   0.031408954036594  -0.067688479198083  -0.397517464982679 1
force O   0.471570326728894   0.418584379470946   0.667086958666093 1
force O  -0.501481542249037   0.062791088649323   0.511578807600669 1
force O  -0.301650999094240  -0.119013396368921  -0.618094871776055 1
force O  -1.657668450755789  -2.381557985065214  -0.308178316279373 1
force O  -0.583293370130949   0.225947495594060  -0.358236365979407 1
force O   0.770146570045842   1.434674058756862  -0.100622187971389 1
force O   0.136859072003368  -0.616216407892427   0.047747559798328 1
force O   0.399982725457008   0.155614371823584  -0.323896296495432 1
force O   0.239428035240664   0.637846532111213   0.383675670224694 1
force O  -0.015559646464645   0.204957008389272  -0.201972477879913 1
force O   0.084267398372146   0.517433308498394   0.092614922454196 1
force O   0.020452614112131  -0.036489764330963   0.059151324428218 1
force O  -0.374878187427139  -0.367598153981810  -0.284138273750483 1
force O   0.010139943174142   0.411973261628539  -0.043998049702798 1
force O   0.507614706777312  -0.226549966502846   0.280117410711638 1
force O   0.247423538827181   0.040795635769278  -0.093337577616517 1
force O  -0.151717555476855  -0.263366118317652  -0.078979662063112 1
force O  -0.109129047102886  -0.475332466849944  -0.000517869902747 1
force O  -0.175542767912559  -0.130780284562974  -0.064036964149643 1
force O  -0.057307403503660  -0.594466839470593   0.267829544950384 1
force O  -0.653638084653343   0.857603918962707  -0.068358237523073 1
force O   0.343028899649699   0.360108275340238  -0.081627529500055 1
force O   0.080847382133213  -0.224844536121423  -0.368476223632587 1
force O   0.156133723294740  -0.077155601506206   0.475605754133600 1
force O  -0.237304740167932   0.091193588795415   0.170870898483343 1
force O  -0.134983488828407  -0.138812676509065  -0.260420400603280 1

# Energy components:
   Eewald =     -655.0350459071149771
       EH =      453.4365945113487442
     Eloc =    -1190.3317609494827138
      Enl =     -116.8209632127617255
      Exc =     -256.4088239344380327
 Exc_core =       58.5813411560770447
       KE =      472.5168996698148476
-------------------------------------
     Etot =    -1234.0617586665566705
       TS =        0.0306505781141669
-------------------------------------
        F =    -1234.0924092446707618

IonicMinimize: Iter:   4  F: -1234.092409244670762  |grad|_K:  2.897e-02  alpha:  1.698e-01  linmin: -9.728e-01  t[s]:   4580.23

#--- Lowdin population analysis ---
# oxidation-state Os +0.955 +0.995 +0.962 +0.763 +1.017 +1.027 +1.018 +1.015
# oxidation-state O -0.284 -0.240 -0.134 -0.203 -0.194 -0.226 -0.208 -0.204 -0.280 -0.242 -0.242 -0.237 -0.205 -0.172 -0.151 -0.147 -0.170 -0.152 -0.211 -0.211 -0.199 -0.172 -0.214 -0.208 -0.246 -0.200 -0.241 -0.220 -0.232 -0.223 -0.191


-------- Electronic minimization -----------
Will mix electronic density at each iteration.
	FillingsUpdate:  mu: +0.111675492  nElectrons: 314.000000
	FillingsUpdate:  mu: +0.110845019  nElectrons: 314.000000
SCF: Cycle:  0   F: -1231.962450749481377   dF: +1.291e+00   |Residual|: 9.152e-01   |deigs|: 6.281e-03  t[s]:   4646.85
	FillingsUpdate:  mu: +0.102519564  nElectrons: 314.000000
SCF: Cycle:  1   F: -1232.873684557225715   dF: -9.112e-01   |Residual|: 8.635e-01   |deigs|: 1.785e-02  t[s]:   4694.07
	FillingsUpdate:  mu: +0.110096497  nElectrons: 314.000000
SCF: Cycle:  2   F: -1234.055270220492730   dF: -1.182e+00   |Residual|: 2.016e-01   |deigs|: 1.240e-02  t[s]:   4740.86
	FillingsUpdate:  mu: +0.112851830  nElectrons: 314.000000
SCF: Cycle:  3   F: -1233.999700153771983   dF: +5.557e-02   |Residual|: 2.585e-01   |deigs|: 4.462e-03  t[s]:   4787.46
	FillingsUpdate:  mu: +0.112959515  nElectrons: 314.000000
SCF: Cycle:  4   F: -1234.145748119658265   dF: -1.460e-01   |Residual|: 5.116e-02   |deigs|: 3.141e-03  t[s]:   4833.94
	FillingsUpdate:  mu: +0.112696319  nElectrons: 314.000000
SCF: Cycle:  5   F: -1234.149413661528570   dF: -3.666e-03   |Residual|: 3.963e-02   |deigs|: 1.001e-03  t[s]:   4878.57
	FillingsUpdate:  mu: +0.112540821  nElectrons: 314.000000
SCF: Cycle:  6   F: -1234.151522553455607   dF: -2.109e-03   |Residual|: 1.756e-02   |deigs|: 4.018e-04  t[s]:   4922.82
	FillingsUpdate:  mu: +0.113060525  nElectrons: 314.000000
SCF: Cycle:  7   F: -1234.152177826834759   dF: -6.553e-04   |Residual|: 7.679e-03   |deigs|: 4.219e-04  t[s]:   4951.64
	FillingsUpdate:  mu: +0.113363989  nElectrons: 314.000000
SCF: Cycle:  8   F: -1234.152264264923588   dF: -8.644e-05   |Residual|: 5.624e-03   |deigs|: 2.164e-04  t[s]:   4980.53
	FillingsUpdate:  mu: +0.113517503  nElectrons: 314.000000
SCF: Cycle:  9   F: -1234.152380269557852   dF: -1.160e-04   |Residual|: 2.551e-03   |deigs|: 1.946e-04  t[s]:   5009.77
	FillingsUpdate:  mu: +0.113510114  nElectrons: 314.000000
SCF: Cycle: 10   F: -1234.152394036970918   dF: -1.377e-05   |Residual|: 1.905e-03   |deigs|: 8.646e-05  t[s]:   5038.33
	FillingsUpdate:  mu: +0.113551807  nElectrons: 314.000000
SCF: Cycle: 11   F: -1234.152404678133053   dF: -1.064e-05   |Residual|: 8.987e-04   |deigs|: 4.735e-05  t[s]:   5067.55
	FillingsUpdate:  mu: +0.113568667  nElectrons: 314.000000
SCF: Cycle: 12   F: -1234.152407890880568   dF: -3.213e-06   |Residual|: 5.365e-04   |deigs|: 5.202e-05  t[s]:   5096.65
	FillingsUpdate:  mu: +0.113567636  nElectrons: 314.000000
SCF: Cycle: 13   F: -1234.152408377873144   dF: -4.870e-07   |Residual|: 3.636e-04   |deigs|: 1.954e-05  t[s]:   5126.14
	FillingsUpdate:  mu: +0.113576699  nElectrons: 314.000000
SCF: Cycle: 14   F: -1234.152408856329203   dF: -4.785e-07   |Residual|: 1.594e-04   |deigs|: 1.846e-05  t[s]:   5155.09
	FillingsUpdate:  mu: +0.113580802  nElectrons: 314.000000
SCF: Cycle: 15   F: -1234.152408913827685   dF: -5.750e-08   |Residual|: 1.209e-04   |deigs|: 8.105e-06  t[s]:   5184.42
	FillingsUpdate:  mu: +0.113581994  nElectrons: 314.000000
SCF: Cycle: 16   F: -1234.152408945738671   dF: -3.191e-08   |Residual|: 6.770e-05   |deigs|: 3.605e-06  t[s]:   5214.00
	FillingsUpdate:  mu: +0.113582121  nElectrons: 314.000000
SCF: Cycle: 17   F: -1234.152408954301563   dF: -8.563e-09   |Residual|: 3.879e-05   |deigs|: 2.534e-06  t[s]:   5242.68
	FillingsUpdate:  mu: +0.113582273  nElectrons: 314.000000
SCF: Cycle: 18   F: -1234.152408958412025   dF: -4.110e-09   |Residual|: 1.861e-05   |deigs|: 1.580e-06  t[s]:   5271.08
SCF: Converged (|Delta E|<1.000000e-08 for 2 iters).

Setting wave functions to eigenvectors of Hamiltonian

# Ionic positions in lattice coordinates:
ion Os   0.359833195040663   0.376658172375049   0.245955809445575 1
ion Os   0.119941802685479   0.134947992349401   0.747346055272648 1
ion Os   0.367446528435738   0.875830165497554   0.251052208776373 1
ion Os   0.138822148348809   0.630885780960695   0.754931216812164 1
ion Os   0.878961689946043   0.374383292923870   0.250198803389526 1
ion Os   0.633976677288001   0.125293837863102   0.753887303315027 1
ion Os   0.863215714609554   0.867347494648074   0.251786241450062 1
ion Os   0.628460026272564   0.627010030923117   0.744254137590314 1
ion O   0.425843750328030   0.025760068819772   0.207250937641933 1
ion O   0.030510968662943   0.211595190121077   0.292379674214952 1
ion O   0.098815476633354   0.486473205449580   0.812726383452119 1
ion O   0.470483164919425   0.263151144746038   0.688366321600647 1
ion O   0.206834384089580   0.399314411304222   0.427989349443209 1
ion O   0.307399227285849   0.340143454178780   0.075209587611898 1
ion O   0.289170568625127   0.101113505090040   0.577574201921683 1
ion O   0.166976131655800   0.153769895148235   0.927812510923625 1
ion O   0.427977263665103   0.526107484566106   0.195471809514081 1
ion O   0.029639386667838   0.724754603839515   0.315613367437868 1
ion O   0.065424994225498   0.989269291724565   0.807593754783176 1
ion O   0.472170782545570   0.783436283114690   0.691925444950664 1
ion O   0.204379885709578   0.890517200485165   0.424014359214162 1
ion O   0.324857225237539   0.831852519188566   0.082589042705358 1
ion O   0.302803704424869   0.606073161434122   0.590821624285453 1
ion O   0.169391512823029   0.658123229746327   0.934047840521806 1
ion O   0.919796095286856   0.005254119324133   0.190608443741717 1
ion O   0.531382341342440   0.250530580611472   0.309370677767999 1
ion O   0.584153964652506   0.479799193500832   0.795916517748597 1
ion O   0.954081295524901   0.278560373235218   0.685713881149468 1
ion O   0.711400611811033   0.404993449246542   0.415533562298684 1
ion O   0.820894860832709   0.369223240001866   0.074088439695131 1
ion O   0.793431675277904   0.125819318692804   0.584963747314814 1
ion O   0.679331346992162   0.160241074281728   0.922119884125310 1
ion O   0.927582926978458   0.520001421994480   0.189599658647706 1
ion O   0.540342856569551   0.723371677636778   0.287886536126088 1
ion O   0.587719945260281   0.979183149643730   0.810517559215186 1
ion O   0.704382313821328   0.911140201747554   0.427451067134925 1
ion O   0.809516107458390   0.855232654838612   0.071968499869685 1
ion O   0.798632921480544   0.591028314716545   0.580280845171616 1
ion O   0.678814526584951   0.648229814030042   0.918102693718754 1

# Forces in Lattice coordinates:
force Os   1.031853166890697   1.723839748318367  -0.012088007798793 1
force Os  -0.329472095072674  -0.749805800310521  -0.040300701249073 1
force Os   0.753080508603035   0.240160248656638  -0.093356711969437 1
force Os   0.400658894687798  -0.394783189973086   0.257039386301058 1
force Os  -0.126192474360288   0.051950374077313  -0.235932953828138 1
force Os   0.037714757274323   0.336503459436873  -0.120254308422923 1
force Os   0.250602347968626   0.152234654029168   0.086585088953583 1
force Os   0.061727454662183  -0.021385671179292   0.062126547625042 1
force O  -1.105053324302354  -1.807050154832169  -0.193784026318588 1
force O   0.025076116526142   0.504245969758912   0.036876983803185 1
force O  -0.494639134932734  -0.345328205121064  -0.254293889577190 1
force O  -0.015536778421234  -0.080531218999626   0.169659821933648 1
force O   0.074613033324149   0.018052967874336  -0.345443486438546 1
force O   0.655467453004094   0.634844618973332   0.854093996873384 1
force O  -0.365582292105124   0.027564949056961   0.374296745411431 1
force O  -0.222960991179609  -0.073381537060721  -0.479151684997284 1
force O  -1.455869776586464  -2.030462977001680  -0.271766064768336 1
force O  -0.429276313825323   0.115368463861126  -0.274615842441816 1
force O   0.515094967716560   0.952508068527155  -0.099298701706084 1
force O   0.061544197121631  -0.471998612232905   0.007148812686490 1
force O   0.392702714877323   0.183451419187361  -0.253553084877217 1
force O   0.370607251893333   0.761896033884881   0.520736473719957 1
force O  -0.038341487044372   0.190982824454152  -0.172666498741078 1
[...]
force O  -0.019993205662681  -0.025210344485144  -0.001814237199218 1
force O  -0.005602212102961   0.006055550728640  -0.002971537439629 1
force O   0.003358554507598   0.001153256796332  -0.003604268764797 1
force O  -0.005710634186105  -0.005189562817350  -0.009698117481733 1
force O   0.002822554455111  -0.001819757949094  -0.002951157666980 1
force O  -0.001806601463489  -0.000222531128419  -0.000331569550134 1
force O   0.000336851392094   0.001400803380147  -0.000147754976674 1
force O  -0.001747249291897   0.004053342295641  -0.003097359168939 1
force O   0.001200158256159   0.001724552910549  -0.000421160005621 1
force O  -0.000843760262047  -0.000845396780396  -0.001567961032523 1
force O   0.003394934108128  -0.000300243542085  -0.003761469289681 1
force O  -0.003347320111496  -0.000541497849319  -0.003794070119140 1
force O  -0.001744554625033  -0.001270133812529   0.002112561005651 1
force O  -0.002319748784249  -0.004503483071069  -0.002507422352142 1
force O   0.005167478329312   0.010665901693466   0.001911444042042 1
force O  -0.008126955816293   0.002008158538879  -0.006005575188504 1
force O  -0.004529866067049  -0.004522565762265  -0.000019576278094 1
force O  -0.001037761181514  -0.001871483679709  -0.000256408874084 1
force O   0.001467979916203   0.001960424012489  -0.001839917075440 1
force O  -0.001108129738817  -0.000853108949293  -0.000369241998047 1
force O  -0.003758109460549  -0.001628016982786   0.005375075368301 1
force O  -0.000667814522011   0.002503751501351   0.000970639996970 1
force O   0.002583627997868   0.003828870737689  -0.001325900817231 1
force O  -0.005015642245635   0.004529681374252  -0.000820155652252 1
force O  -0.001369325060721  -0.004439694748150  -0.001443315815258 1
force O   0.000163476423086   0.000799524192916  -0.000970521836816 1
force O   0.000210930629141   0.001130505854530  -0.002843232437836 1
force O   0.003366860545000   0.000186684155829   0.000001019518344 1
force O   0.001949982260001   0.000602313487656   0.001460886747175 1

# Energy components:
   Eewald =     -636.9079356202848885
       EH =      470.1471637001039312
     Eloc =    -1226.2887594072285538
      Enl =     -117.0726108688927809
      Exc =     -257.1188360836924858
 Exc_core =       58.5813933842300827
       KE =      474.3949532459107559
-------------------------------------
     Etot =    -1234.2646316498539818
       TS =        0.0110126853898418
-------------------------------------
        F =    -1234.2756443352438964

IonicMinimize: Iter:  48  F: -1234.275644335243896  |grad|_K:  3.306e-04  alpha:  1.000e+00  linmin:  4.329e-02  t[s]:  27302.94

#--- Lowdin population analysis ---
# oxidation-state Os +1.044 +1.044 +1.045 +0.722 +1.045 +1.053 +1.049 +1.043
# oxidation-state O -0.220 -0.217 -0.194 -0.219 -0.211 -0.221 -0.219 -0.220 -0.213 -0.214 -0.214 -0.213 -0.215 -0.218 -0.192 -0.191 -0.218 -0.216 -0.224 -0.218 -0.222 -0.217 -0.218 -0.213 -0.213 -0.219 -0.216 -0.226 -0.216 -0.216 -0.214


-------- Electronic minimization -----------
Will mix electronic density at each iteration.
	FillingsUpdate:  mu: +0.109323343  nElectrons: 314.000000
	FillingsUpdate:  mu: +0.109319573  nElectrons: 314.000000
SCF: Cycle:  0   F: -1234.275631696011260   dF: +8.511e-06   |Residual|: 2.568e-03   |deigs|: 1.651e-07  t[s]:  27352.41
	FillingsUpdate:  mu: +0.109307319  nElectrons: 314.000000
SCF: Cycle:  1   F: -1234.275636120772106   dF: -4.425e-06   |Residual|: 2.895e-03   |deigs|: 3.085e-05  t[s]:  27381.87
	FillingsUpdate:  mu: +0.109312201  nElectrons: 314.000000
SCF: Cycle:  2   F: -1234.275650195998878   dF: -1.408e-05   |Residual|: 3.801e-04   |deigs|: 1.401e-05  t[s]:  27410.19
	FillingsUpdate:  mu: +0.109310404  nElectrons: 314.000000
SCF: Cycle:  3   F: -1234.275650355639073   dF: -1.596e-07   |Residual|: 1.332e-04   |deigs|: 3.063e-06  t[s]:  27439.25
	FillingsUpdate:  mu: +0.109311238  nElectrons: 314.000000
SCF: Cycle:  4   F: -1234.275650378249793   dF: -2.261e-08   |Residual|: 7.921e-05   |deigs|: 1.740e-06  t[s]:  27468.68
	FillingsUpdate:  mu: +0.109310192  nElectrons: 314.000000
SCF: Cycle:  5   F: -1234.275650402861402   dF: -2.461e-08   |Residual|: 3.400e-05   |deigs|: 1.628e-06  t[s]:  27497.88
	FillingsUpdate:  mu: +0.109309815  nElectrons: 314.000000
SCF: Cycle:  6   F: -1234.275650407619878   dF: -4.758e-09   |Residual|: 2.450e-05   |deigs|: 1.705e-06  t[s]:  27527.57
	FillingsUpdate:  mu: +0.109309576  nElectrons: 314.000000
SCF: Cycle:  7   F: -1234.275650410577555   dF: -2.958e-09   |Residual|: 1.856e-05   |deigs|: 1.333e-06  t[s]:  27556.19
SCF: Converged (|Delta E|<1.000000e-08 for 2 iters).

Setting wave functions to eigenvectors of Hamiltonian

# Ionic positions in lattice coordinates:
ion Os   0.372583820260705   0.375689958832456   0.250779655558997 1
ion Os   0.121812458137546   0.129544488527456   0.744992844069527 1
ion Os   0.372556943210679   0.877815472275743   0.247142328493255 1
ion Os   0.184417759069594   0.577498999930412   0.771257259285969 1
ion Os   0.870074141034718   0.375657529414709   0.253494720443894 1
ion Os   0.624572535227174   0.126453262556642   0.751696603723141 1
ion Os   0.871376522587254   0.878589185049087   0.252538519899444 1
ion Os   0.627301371916148   0.632768927677898   0.746304709304165 1
ion O   0.419956708325183   0.021328949484019   0.195570460550460 1
ion O   0.033849465800032   0.231478707328740   0.306380766975186 1
ion O   0.075092079894554   0.477372555540782   0.810223151315623 1
ion O   0.460329595066901   0.266072156536775   0.691133001731178 1
ion O   0.213565577039111   0.402917364368337   0.423552658002583 1
ion O   0.318063766828941   0.345259683986066   0.086030422888291 1
ion O   0.284608997365700   0.098601625534551   0.575706075490093 1
ion O   0.174195658818474   0.157371807080744   0.912792032481641 1
ion O   0.417538060731175   0.520387767210063   0.190726627201991 1
ion O   0.034435115745130   0.735489204385399   0.308465853844122 1
ion O   0.069541332734864   0.988706666481514   0.801267589641650 1
ion O   0.463874727425564   0.777413589073486   0.693857597340751 1
ion O   0.207695786019062   0.905260770924735   0.413774446490868 1
ion O   0.326165714370888   0.849184633050357   0.075773102417984 1
ion O   0.295199431062299   0.600673423411081   0.572975512187332 1
ion O   0.170412632355729   0.666618619642583   0.925832900216754 1
ion O   0.923199169677170   0.019741702568867   0.192620939766887 1
ion O   0.540444355489418   0.235171724445614   0.301627839183623 1
ion O   0.574415048676462   0.491966369989121   0.800282847243491 1
ion O   0.958955884239285   0.273671744063736   0.690178717743058 1
ion O   0.707001157331112   0.403262469915023   0.422415764655618 1
ion O   0.819434897938396   0.350199331442599   0.083031576897426 1
ion O   0.790323073146509   0.095788478210057   0.585739908436664 1
ion O   0.669216643544221   0.161479000543025   0.919836684317279 1
ion O   0.920059179219491   0.517657077042922   0.202202060841126 1
ion O   0.536428026827536   0.735514301107720   0.303285699969027 1
ion O   0.578997073025067   0.982058398180180   0.810388771627954 1
ion O   0.709711245520557   0.910673315482871   0.423269166486418 1
ion O   0.817734723025780   0.848924488509918   0.087058770962368 1
ion O   0.789022814325077   0.603665636745633   0.576073486061938 1
ion O   0.680636506986497   0.658490613449079   0.914638926252226 1

# Forces in Lattice coordinates:
force Os  -0.003237625493979  -0.004869408437107  -0.002142748822988 1
force Os   0.002383764949390   0.001458640171906   0.002604941112081 1
force Os   0.000042504120199   0.000284002524378  -0.002781370642192 1
force Os  -0.007057743373778  -0.006369598677008   0.000612735974661 1
force Os   0.002857551378208   0.000527718864610  -0.001675019171822 1
force Os  -0.001855248352342  -0.000986764672815   0.002187451925078 1
force Os  -0.002803231496093   0.002022775736586  -0.001672737680776 1
force Os   0.002430725190258   0.002078702060762   0.001299280643491 1
force O  -0.000660408369107  -0.002576005700131  -0.000660885810021 1
force O   0.000283609785155  -0.000551601916152  -0.000395126665615 1
force O   0.003652697869784   0.004066085960805   0.001511563030165 1
force O   0.000643214132079   0.000251213554296  -0.000837270291701 1
force O  -0.000166899989282   0.000810789547689  -0.000605671159468 1
force O   0.000022562318373   0.001431660917259  -0.001088016347371 1
force O  -0.000581933158777  -0.001604989638125   0.000433915690962 1
force O  -0.002585213353415  -0.001224123067191  -0.000971784808769 1
force O   0.002344398268707   0.004421859986898  -0.000153491860236 1
force O   0.002560117633779  -0.001211693339837  -0.000541773833656 1
force O  -0.001253013783668  -0.002583899115798   0.000013391253624 1
force O  -0.001073446884041   0.000471378582138  -0.001662917615755 1
force O  -0.000849656283499   0.000170832735352   0.001312301666207 1
force O   0.001119923316730   0.002320529249777   0.002516565903527 1
force O   0.001774375582174   0.002359051939591  -0.001306645663002 1
force O   0.001863103885000   0.004305895646286   0.004430620100980 1
force O   0.000675435462107   0.001086192412526   0.001496442062899 1
force O  -0.001081518301412  -0.002364610935283  -0.002287037531880 1
force O  -0.003443438856024  -0.003028573755547  -0.000165847917570 1
force O  -0.002669556225316  -0.000370714569252  -0.001123587327079 1
force O  -0.002113551122257   0.002095648529381   0.002730322824048 1
force O  -0.001095725641440  -0.000214748465269  -0.000557005085776 1
force O   0.004311850709504  -0.001249922314458  -0.001073781972249 1
force O   0.000779915601310   0.001318223367250   0.001698575443317 1
force O   0.001833888742913   0.002648080013898  -0.000914649233891 1
force O   0.001895011699684  -0.001160485606500   0.002391593936891 1
force O   0.000239289042335  -0.003244784304449  -0.001005939544124 1
force O   0.000107448958243  -0.001316435814807  -0.001413828754359 1
force O   0.000971886411405   0.001033428785782  -0.001791314045782 1
force O   0.001560197843407  -0.000297826020122   0.000170640797309 1
force O   0.000352776049613   0.000106908698076   0.000520775011889 1

# Energy components:
   Eewald =     -636.9053927348023763
       EH =      470.1495545535773317
     Eloc =    -1226.2940323118764354
      Enl =     -117.0726210461895818
      Exc =     -257.1190318653822260
 Exc_core =       58.5813933823199164
       KE =      474.3954924487186418
-------------------------------------
     Etot =    -1234.2646375736349000
       TS =        0.0110128369426611
-------------------------------------
        F =    -1234.2756504105775548

IonicMinimize: Iter:  49  F: -1234.275650410577555  |grad|_K:  1.129e-04  alpha:  1.000e+00  linmin:  1.226e-01  t[s]:  27566.33

#--- Lowdin population analysis ---
# oxidation-state Os +1.044 +1.044 +1.045 +0.722 +1.045 +1.053 +1.049 +1.043
# oxidation-state O -0.220 -0.218 -0.195 -0.219 -0.211 -0.222 -0.219 -0.220 -0.213 -0.213 -0.214 -0.213 -0.215 -0.218 -0.192 -0.191 -0.218 -0.216 -0.224 -0.218 -0.222 -0.217 -0.218 -0.213 -0.213 -0.219 -0.216 -0.226 -0.216 -0.216 -0.214


-------- Electronic minimization -----------
Will mix electronic density at each iteration.
	FillingsUpdate:  mu: +0.109309576  nElectrons: 314.000000
	FillingsUpdate:  mu: +0.109245486  nElectrons: 314.000000
SCF: Cycle:  0   F: -1234.275332905225696   dF: +2.040e-04   |Residual|: 1.081e-02   |deigs|: 2.266e-06  t[s]:  27625.57
	FillingsUpdate:  mu: +0.109252753  nElectrons: 314.000000
SCF: Cycle:  1   F: -1234.275385706752331   dF: -5.280e-05   |Residual|: 1.257e-02   |deigs|: 8.477e-05  t[s]:  27654.37
	FillingsUpdate:  mu: +0.109260832  nElectrons: 314.000000
SCF: Cycle:  2   F: -1234.275650010771187   dF: -2.643e-04   |Residual|: 1.402e-03   |deigs|: 4.616e-05  t[s]:  27683.21
	FillingsUpdate:  mu: +0.109270768  nElectrons: 314.000000
SCF: Cycle:  3   F: -1234.275652335835048   dF: -2.325e-06   |Residual|: 5.605e-04   |deigs|: 9.716e-06  t[s]:  27711.83
	FillingsUpdate:  mu: +0.109277440  nElectrons: 314.000000
SCF: Cycle:  4   F: -1234.275652828260036   dF: -4.924e-07   |Residual|: 2.967e-04   |deigs|: 5.702e-06  t[s]:  27741.20
	FillingsUpdate:  mu: +0.109281892  nElectrons: 314.000000
SCF: Cycle:  5   F: -1234.275653155776808   dF: -3.275e-07   |Residual|: 1.605e-04   |deigs|: 4.431e-06  t[s]:  27770.22
	FillingsUpdate:  mu: +0.109287328  nElectrons: 314.000000
SCF: Cycle:  6   F: -1234.275653203020283   dF: -4.724e-08   |Residual|: 8.376e-05   |deigs|: 4.824e-06  t[s]:  27799.26
	FillingsUpdate:  mu: +0.109290795  nElectrons: 314.000000
SCF: Cycle:  7   F: -1234.275653228572992   dF: -2.555e-08   |Residual|: 6.782e-05   |deigs|: 2.841e-06  t[s]:  27828.11
	FillingsUpdate:  mu: +0.109293496  nElectrons: 314.000000
SCF: Cycle:  8   F: -1234.275653243035094   dF: -1.446e-08   |Residual|: 2.443e-05   |deigs|: 2.765e-06  t[s]:  27857.30
	FillingsUpdate:  mu: +0.109294477  nElectrons: 314.000000
SCF: Cycle:  9   F: -1234.275653244700834   dF: -1.666e-09   |Residual|: 1.828e-05   |deigs|: 1.070e-06  t[s]:  27886.58
	FillingsUpdate:  mu: +0.109295399  nElectrons: 314.000000
SCF: Cycle: 10   F: -1234.275653245756303   dF: -1.055e-09   |Residual|: 7.836e-06   |deigs|: 1.008e-06  t[s]:  27916.52
SCF: Converged (|Delta E|<1.000000e-08 for 2 iters).

Setting wave functions to eigenvectors of Hamiltonian

# Ionic positions in lattice coordinates:
ion Os   0.372434947887985   0.375774173590209   0.250802292515648 1
ion Os   0.121741884695763   0.129604564190889   0.745123319572317 1
ion Os   0.372557424601607   0.877609289422358   0.247193404929229 1
ion Os   0.184291830193278   0.577829022155822   0.771439265817720 1
ion Os   0.870227277811203   0.375597296179328   0.253188230974281 1
ion Os   0.624825523414254   0.126592944044101   0.751717985299498 1
ion Os   0.871168567131714   0.878430457096827   0.252505995311618 1
ion Os   0.627449223305706   0.632621350080228   0.746308198273861 1
ion O   0.420023942702056   0.021082262169092   0.195607976685962 1
ion O   0.033783734073487   0.231227635312201   0.306162213461731 1
ion O   0.074863741733429   0.477803413522352   0.810200723994966 1
ion O   0.460391097364030   0.266131770142410   0.691394538584719 1
ion O   0.213399274001880   0.402949344516990   0.423553446895850 1
ion O   0.317989829250940   0.345338443228918   0.086009922300090 1
ion O   0.284658947561150   0.098599079253558   0.575960826822440 1
ion O   0.173924985955722   0.157441876314424   0.913053334230118 1
ion O   0.417257304614029   0.520544529695998   0.190812231896078 1
ion O   0.034113229057627   0.735235587577951   0.308477717869096 1
ion O   0.069443730506357   0.988780482084413   0.801259327159193 1
ion O   0.464104192766643   0.777245997148693   0.693658020155585 1
ion O   0.207682273827277   0.905104581148331   0.413816458685853 1
ion O   0.326061517081716   0.849118725940448   0.075815966007619 1
ion O   0.295279530635728   0.600893946638287   0.573226658688299 1
ion O   0.170215790133584   0.666986713505411   0.926024699055272 1
ion O   0.923178532330827   0.019486634659476   0.192562170275720 1
ion O   0.540338764608056   0.235271838580926   0.301589349104191 1
ion O   0.574423204531873   0.491887387769082   0.800308157508365 1
ion O   0.958972795170417   0.273755862746458   0.690150986556891 1
ion O   0.707118274245437   0.403479363497732   0.422090413650410 1
ion O   0.819460173480212   0.350265465301991   0.082729228337398 1
ion O   0.790505386265414   0.096214083925984   0.585683316836144 1
ion O   0.669399924838081   0.161540785471467   0.919962792566800 1
ion O   0.920582605374034   0.517395985425549   0.201879064221082 1
ion O   0.536414471665315   0.735282252550365   0.303341575892669 1
ion O   0.579602780259466   0.982019639274344   0.810112239293014 1
ion O   0.709514224724529   0.910648782748156   0.423245874639368 1
ion O   0.817436648500116   0.848787180152232   0.087071275898372 1
ion O   0.789296112910053   0.603425114201571   0.576198667618299 1
ion O   0.680666300789007   0.658416138735426   0.914682132414234 1

# Forces in Lattice coordinates:
force Os  -0.002675429439463  -0.003195405148617  -0.001999873825696 1
force Os   0.001326206379738   0.001963781349962   0.000679427718189 1
force Os   0.000376753550342   0.001530355702368  -0.001345060215252 1
force Os  -0.006380384170441  -0.006775161994781  -0.000664708003296 1
force Os   0.002219145231021  -0.000003894713879  -0.000925431598569 1
force Os  -0.002009620764620  -0.000126664288469   0.000522210605611 1
force Os  -0.002663884718309   0.002293226850894  -0.001237700536659 1
force Os   0.001804181235411   0.000116059057312   0.000642029960923 1
force O   0.000068544952804  -0.000779648129100  -0.000100486381981 1
force O   0.000567650284157   0.000582412023588  -0.000353891094388 1
force O   0.005031220088110   0.005352258715853   0.002089483573019 1
force O   0.000586051977155   0.000380791274270  -0.001250236517145 1
force O   0.000049078928761   0.000310748941120  -0.000182043743071 1
force O  -0.000946155844701   0.000735823261012  -0.001944475891889 1
force O  -0.000195004813946  -0.000630274628259   0.000585423372412 1
force O  -0.001494563157685  -0.000414714329365  -0.000446002483461 1
force O   0.002551637775067   0.003157512852926  -0.000029517043051 1
force O   0.003225005722634  -0.001159653845407  -0.000193104778531 1
force O  -0.001012128618243  -0.001869419624310   0.000357730930597 1
force O  -0.000482394547006   0.001281034506087  -0.001210951528325 1
force O  -0.000346385742972   0.000264442337336   0.001563302131218 1
force O   0.000567241526205  -0.000021630831808   0.000947122447517 1
force O   0.000600359250996   0.000926560122471  -0.000084479926304 1
force O   0.000948343987617   0.001845735492836   0.003088013909011 1
force O   0.000032807865873   0.000148975532014   0.001109926764957 1
force O  -0.000815951327061  -0.001244510464255  -0.001564761933306 1
force O  -0.002029627341365  -0.002126069397683   0.000077958027860 1
force O  -0.001927574981702  -0.000856385733970  -0.000901137289752 1
force O  -0.002561418777061   0.001163658944660   0.002238081814934 1
force O  -0.001305978323874   0.000098339755409  -0.000334517299269 1
force O   0.003507690592404  -0.000418467222145  -0.000793940324406 1
force O   0.000609020908520   0.001320053150851   0.001638413782448 1
force O   0.002358323597988   0.002912523867076  -0.000978166229881 1
force O   0.000849755338296  -0.001910877460706   0.001553939218786 1
force O  -0.000675908347372  -0.003475293348824  -0.000435481368613 1
force O   0.000035134750412  -0.001116433300045  -0.001289755947125 1
force O   0.001558759619106   0.002047523511710  -0.001133875915873 1
force O   0.000581204149986  -0.001056743823268   0.000183802317810 1
force O  -0.000535633898636  -0.000604611631242   0.000205856228348 1

# Energy components:
   Eewald =     -636.9589831128604374
       EH =      470.0966988057061826
     Eloc =    -1226.1869699770361422
      Enl =     -117.0725850013918290
      Exc =     -257.1186254008980541
 Exc_core =       58.5813946816705879
       KE =      474.3944295850541266
-------------------------------------
     Etot =    -1234.2646404197553238
       TS =        0.0110128260009657
-------------------------------------
        F =    -1234.2756532457563026

IonicMinimize: Iter:  50  F: -1234.275653245756303  |grad|_K:  9.536e-05  alpha:  1.000e+00  linmin: -4.774e-02  t[s]:  27926.86
IonicMinimize: Converged (|grad|_K<1.000000e-04).

#--- Lowdin population analysis ---
# oxidation-state Os +1.044 +1.044 +1.045 +0.722 +1.045 +1.053 +1.049 +1.043
# oxidation-state O -0.220 -0.218 -0.195 -0.219 -0.211 -0.222 -0.219 -0.220 -0.213 -0.213 -0.214 -0.213 -0.215 -0.218 -0.192 -0.191 -0.218 -0.216 -0.224 -0.218 -0.222 -0.217 -0.218 -0.213 -0.213 -0.219 -0.216 -0.226 -0.216 -0.216 -0.214


Dumping '/data/rc652/OsO4/vac/OsO4_vac.Ecomponents' ... done
End date and time: Tue Jul 16 21:15:52 2024  (Duration: 0-7:45:31.29)
Done!
