--------------------------------------------------------------------------
Initialization of PSM library failed.

  Error: PSM is in the finalized state
--------------------------------------------------------------------------

*************** JDFTx 1.7.0 (git hash 3664913) ***************

Start date and time: Mon Jun 24 13:05:00 2024
Executable jdftx with command-line: -i RhO2_ion.in
Running on hosts (process indices):  node3103.physics.cornell.edu (0-15)
Divided in process groups (process indices):  0 (0)  1 (1)  2 (2)  3 (3)  4 (4)  5 (5)  6 (6)  7 (7)  8 (8)  9 (9)  10 (10)  11 (11)  12 (12)  13 (13)  14 (14)  15 (15)
Resource initialization completed at t[s]:      0.00
Run totals: 16 processes, 32 threads, 0 GPUs


Input parsed successfully to the following command list (including defaults):

basis kpoint-dependent
coords-type Lattice
core-overlap-check vector
coulomb-interaction Periodic
davidson-band-ratio 1.1
dump End Ecomponents
dump-name /data/rc652/RhO2/ion/RhO2_ion.$VAR
elec-cutoff 20 100
elec-eigen-algo Davidson
elec-ex-corr gga-PBEsol
elec-smearing Fermi 0.01
electronic-minimize  \
	dirUpdateScheme      FletcherReeves \
	linminMethod         DirUpdateRecommended \
	nIterations          100 \
	history              15 \
	knormThreshold       0 \
	maxThreshold         no \
	energyDiffThreshold  1e-08 \
	nEnergyDiff          2 \
	alphaTstart          1 \
	alphaTmin            1e-10 \
	updateTestStepSize   yes \
	alphaTreduceFactor   0.1 \
	alphaTincreaseFactor 3 \
	nAlphaAdjustMax      3 \
	wolfeEnergy          0.0001 \
	wolfeGradient        0.9 \
	fdTest               no
electronic-scf  \
	nIterations	50 \
	energyDiffThreshold	1e-08 \
	residualThreshold	1e-07 \
	mixFraction	0.5 \
	qMetric	0.8 \
	history	10 \
	nEigSteps	2 \
	eigDiffThreshold	1e-08 \
	mixedVariable	Density \
	qKerker	0.8 \
	qKappa	-1 \
	verbose	no \
	mixFractionMag	1.5
exchange-regularization WignerSeitzTruncated
fluid None
fluid-ex-corr lda-TF lda-PZ
fluid-gummel-loop 10 1.000000e-05
fluid-minimize  \
	dirUpdateScheme      PolakRibiere \
	linminMethod         DirUpdateRecommended \
	nIterations          100 \
	history              15 \
	knormThreshold       0 \
	maxThreshold         no \
	energyDiffThreshold  0 \
	nEnergyDiff          2 \
	alphaTstart          1 \
	alphaTmin            1e-10 \
	updateTestStepSize   yes \
	alphaTreduceFactor   0.1 \
	alphaTincreaseFactor 3 \
	nAlphaAdjustMax      3 \
	wolfeEnergy          0.0001 \
	wolfeGradient        0.9 \
	fdTest               no
fluid-solvent H2O 55.338 ScalarEOS \
	epsBulk 78.4 \
	pMol 0.92466 \
	epsInf 1.77 \
	Pvap 1.06736e-10 \
	sigmaBulk 4.62e-05 \
	Rvdw 2.61727 \
	Res 1.42 \
	tauNuc 343133 \
	poleEl 15 7 1
forces-output-coords Positions
ion Rh   0.000000000000000  -0.000000000000000  -0.000000000000000 0
ion Rh   0.260460000000000   0.286320000000000   0.260710000000000 1
ion Rh  -0.010560000000000   0.008230000000000   0.523200000000000 1
ion Rh   0.245010000000000   0.239310000000000   0.743790000000000 1
ion Rh  -0.004520000000000   0.503560000000000  -0.008070000000000 1
ion Rh   0.250730000000000   0.745240000000000   0.239990000000000 1
ion Rh  -0.008620000000000   0.496400000000000   0.494300000000000 1
ion Rh   0.250830000000000   0.755070000000000   0.760130000000000 1
ion Rh   0.500310000000000   0.004520000000000   0.018510000000000 1
ion Rh   0.762650000000000   0.239560000000000   0.251790000000000 1
ion Rh   0.494770000000000   0.002860000000000   0.508510000000000 1
ion Rh   0.749110000000000   0.241140000000000   0.735670000000000 1
ion Rh   0.496390000000000   0.495630000000000  -0.005730000000000 1
ion Rh   0.749880000000000   0.742480000000000   0.251540000000000 1
ion Rh   0.501710000000000   0.512500000000000   0.503800000000000 1
ion Rh   0.741040000000000   0.752630000000000   0.741350000000000 1
ion O   0.148770000000000   0.140180000000000   0.007460000000000 1
ion O   0.107630000000000   0.394440000000000   0.258890000000000 1
ion O   0.393100000000000   0.092470000000000   0.250120000000000 1
ion O   0.342260000000000   0.335480000000000   0.007810000000000 1
ion O   0.151710000000000   0.159560000000000   0.505580000000000 1
ion O   0.092320000000000   0.410240000000000   0.748990000000000 1
ion O   0.398210000000000   0.096130000000000   0.767970000000000 1
ion O   0.356630000000000   0.353290000000000   0.491140000000000 1
ion O   0.169770000000000   0.650260000000000   0.007430000000000 1
ion O   0.098070000000000   0.909440000000000   0.232380000000000 1
ion O   0.398310000000000   0.601820000000000   0.242680000000000 1
ion O   0.344080000000000   0.838080000000000  -0.007680000000000 1
ion O   0.139710000000000   0.659570000000000   0.521920000000000 1
ion O   0.106730000000000   0.910390000000000   0.764060000000000 1
ion O   0.412410000000000   0.603890000000000   0.744070000000000 1
ion O   0.332800000000000   0.864720000000000   0.513080000000000 1
ion O   0.648870000000000   0.150410000000000  -0.001410000000000 1
ion O   0.587000000000000   0.406420000000000   0.255060000000000 1
ion O   0.904310000000000   0.100660000000000   0.243610000000000 1
ion O   0.839980000000000   0.335590000000000  -0.011320000000000 1
ion O   0.664460000000000   0.155230000000000   0.516490000000000 1
ion O   0.587860000000000   0.396510000000000   0.759030000000000 1
ion O   0.908960000000000   0.098070000000000   0.753460000000000 1
ion O   0.839800000000000   0.361460000000000   0.496700000000000 1
ion O   0.644510000000000   0.658600000000000   0.016870000000000 1
ion O   0.596730000000000   0.892130000000000   0.256690000000000 1
ion O   0.888190000000000   0.591720000000000   0.240040000000000 1
ion O   0.855340000000000   0.870230000000000   0.004130000000000 1
ion O   0.648310000000000   0.657390000000000   0.501910000000000 1
ion O   0.590120000000000   0.903430000000000   0.763230000000000 1
ion O   0.907020000000000   0.588710000000000   0.753140000000000 1
ion O   0.840680000000000   0.844070000000000   0.499820000000000 1
ion-species GBRV/$ID_pbesol.uspp
ion-width 0
ionic-minimize  \
	dirUpdateScheme      L-BFGS \
	linminMethod         DirUpdateRecommended \
	nIterations          30 \
	history              15 \
	knormThreshold       0.0001 \
	maxThreshold         no \
	energyDiffThreshold  1e-06 \
	nEnergyDiff          2 \
	alphaTstart          1 \
	alphaTmin            1e-10 \
	updateTestStepSize   yes \
	alphaTreduceFactor   0.1 \
	alphaTincreaseFactor 3 \
	nAlphaAdjustMax      3 \
	wolfeEnergy          0.0001 \
	wolfeGradient        0.9 \
	fdTest               no
kpoint   0.000000000000   0.000000000000   0.000000000000  1.00000000000000
kpoint-folding 4 4 4 
latt-move-scale 1 1 1
latt-scale 1 1 1 
lattice  \
	  16.940150528457778    0.000000171384084    0.000000000000000  \
	   0.000000171384084   16.940150528457778    0.000000000000000  \
	   0.000000000000000    0.000000000000000   11.666977246625491 
lattice-minimize  \
	dirUpdateScheme      L-BFGS \
	linminMethod         DirUpdateRecommended \
	nIterations          0 \
	history              15 \
	knormThreshold       0 \
	maxThreshold         no \
	energyDiffThreshold  1e-06 \
	nEnergyDiff          2 \
	alphaTstart          1 \
	alphaTmin            1e-10 \
	updateTestStepSize   yes \
	alphaTreduceFactor   0.1 \
	alphaTincreaseFactor 3 \
	nAlphaAdjustMax      3 \
	wolfeEnergy          0.0001 \
	wolfeGradient        0.9 \
	fdTest               no
lcao-params -1 1e-06 0.01
pcm-variant GLSSA13
perturb-minimize  \
	nIterations            0 \
	algorithm              MINRES \
	residualTol            0.0001 \
	residualDiffThreshold  0.0001 \
	CGBypass               no \
	recomputeResidual      no
spintype no-spin
subspace-rotation-factor 1 yes
symmetries automatic
symmetry-threshold 0.0001



---------- Setting up symmetries ----------

Found 16 point-group symmetries of the bravais lattice
Found 1 space-group symmetries with basis
Applied RMS atom displacement 0 bohrs to make symmetries exact.

---------- Initializing the Grid ----------
R = 
[      16.9402  1.71384e-07            0  ]
[  1.71384e-07      16.9402            0  ]
[            0            0       11.667  ]
unit cell volume = 3348.06
G =
[   0.370905 -3.75246e-09          0  ]
[ -3.75246e-09   0.370905          0  ]
[          0          0   0.538544  ]
Minimum fftbox size, Smin = [  80  80  56  ]
Chosen fftbox size, S = [  80  80  56  ]

---------- Initializing tighter grid for wavefunction operations ----------
R = 
[      16.9402  1.71384e-07            0  ]
[  1.71384e-07      16.9402            0  ]
[            0            0       11.667  ]
unit cell volume = 3348.06
G =
[   0.370905 -3.75246e-09          0  ]
[ -3.75246e-09   0.370905          0  ]
[          0          0   0.538544  ]
Minimum fftbox size, Smin = [  72  72  48  ]
Chosen fftbox size, S = [  72  72  48  ]

---------- Exchange Correlation functional ----------
Initalized PBEsol GGA exchange.
Initalized PBEsol GGA correlation.

---------- Setting up pseudopotentials ----------
Width of ionic core gaussian charges (only for fluid interactions / plotting) set to 0

Reading pseudopotential file '/home/rc652/build/pseudopotentials/GBRV/rh_pbesol.uspp':
  Title: Rh.  Created by USPP 7.3.6 on 22-9-15
  Reference state energy: -85.126402.  15 valence electrons in orbitals:
    |410>  occupation: 6  eigenvalue: -2.052761
    |420>  occupation: 7.5  eigenvalue: -0.406047
    |500>  occupation: 1  eigenvalue: -0.295592
    |510>  occupation: 0  eigenvalue: -0.135033
  lMax: 2  lLocal: 3  QijEcut: 6.5
  7 projectors sampled on a log grid with 711 points:
    l: 0  eig: -0.295592  rCut: 2.5
    l: 0  eig: 1.000000  rCut: 2.5
    l: 1  eig: -2.052761  rCut: 1.55
    l: 1  eig: -0.135033  rCut: 1.55
    l: 2  eig: -0.406047  rCut: 1.6
    l: 2  eig: 1.500000  rCut: 1.6
    l: 2  eig: -1.500000  rCut: 1.6
  Partial core density with radius 1
  Transforming core density to a uniform radial grid of dG=0.02 with 1297 points.
  Transforming local potential to a uniform radial grid of dG=0.02 with 1297 points.
  Transforming nonlocal projectors to a uniform radial grid of dG=0.02 with 432 points.
  Transforming density augmentations to a uniform radial grid of dG=0.02 with 1297 points.
  Transforming atomic orbitals to a uniform radial grid of dG=0.02 with 432 points.
  Core radius for overlap checks: 2.50 bohrs.

Reading pseudopotential file '/home/rc652/build/pseudopotentials/GBRV/o_pbesol.uspp':
  Title: O.  Created by USPP 7.3.6 on 3-2-2014
  Reference state energy: -15.849885.  6 valence electrons in orbitals:
    |200>  occupation: 2  eigenvalue: -0.873214
    |210>  occupation: 4  eigenvalue: -0.330058
  lMax: 2  lLocal: 2  QijEcut: 6
  5 projectors sampled on a log grid with 511 points:
    l: 0  eig: -0.873214  rCut: 1.25
    l: 0  eig: 0.000000  rCut: 1.25
    l: 1  eig: -0.330058  rCut: 1.25
    l: 1  eig: 0.000000  rCut: 1.25
    l: 2  eig: 1.000000  rCut: 1.25
  Partial core density with radius 0.7
  Transforming core density to a uniform radial grid of dG=0.02 with 1297 points.
  Transforming local potential to a uniform radial grid of dG=0.02 with 1297 points.
  Transforming nonlocal projectors to a uniform radial grid of dG=0.02 with 432 points.
  Transforming density augmentations to a uniform radial grid of dG=0.02 with 1297 points.
  Transforming atomic orbitals to a uniform radial grid of dG=0.02 with 432 points.
  Core radius for overlap checks: 1.25 bohrs.

Initialized 2 species with 48 total atoms.

Folded 1 k-points by 4x4x4 to 64 k-points.

---------- Setting up k-points, bands, fillings ----------
Adding inversion symmetry to k-mesh for non-inversion-symmetric unit cell.
Reduced to 36 k-points under symmetry. 
Computing the number of bands and number of electrons
Calculating initial fillings.
nElectrons: 432.000000   nBands: 320   nStates: 36

----- Setting up reduced wavefunction bases (one per k-point) -----
average nbasis = 14303.453 , ideal nbasis = 14303.156

---------- Setting up ewald sum ----------
Optimum gaussian width for ewald sums = 3.130647 bohr.
Real space sum over 441 unit cells with max indices [  3  3  4  ]
Reciprocal space sum over 6615 terms with max indices [  10  10  7  ]

---------- Allocating electronic variables ----------
Initializing wave functions:  linear combination of atomic orbitals
Rh pseudo-atom occupations:   s ( 0 )  p ( 6 0 )  d ( 9 )
O pseudo-atom occupations:   s ( 2 )  p ( 4 )
	FillingsUpdate:  mu: +0.735518102  nElectrons: 432.000000
LCAOMinimize: Iter:   0  F: -1793.3781854857118105  |grad|_K:  6.241e-03  alpha:  1.000e+00
	FillingsUpdate:  mu: +0.559381708  nElectrons: 432.000000
LCAOMinimize: Iter:   1  F: -1814.7150020033893725  |grad|_K:  4.379e-03  alpha:  3.529e-01  linmin:  7.968e-02  cgtest: -3.649e-01  t[s]:    114.93
	FillingsUpdate:  mu: +0.548173131  nElectrons: 432.000000
LCAOMinimize: Iter:   2  F: -1815.0981749612910789  |grad|_K:  2.955e-03  alpha:  3.078e-02  linmin:  3.993e-02  cgtest:  8.192e-01  t[s]:    152.34
LCAOMinimize: Encountered beta<0, resetting CG.
	FillingsUpdate:  mu: +0.498525142  nElectrons: 432.000000
LCAOMinimize: Iter:   3  F: -1816.3925414689038007  |grad|_K:  1.723e-03  alpha:  7.920e-02  linmin: -1.629e-02  cgtest:  2.210e-02  t[s]:    190.51
	FillingsUpdate:  mu: +0.467699994  nElectrons: 432.000000
LCAOMinimize: Iter:   4  F: -1816.9589607211387374  |grad|_K:  7.322e-04  alpha:  9.951e-02  linmin: -1.737e-02  cgtest:  7.591e-03  t[s]:    227.25
	FillingsUpdate:  mu: +0.460316391  nElectrons: 432.000000
LCAOMinimize: Iter:   5  F: -1817.0784011046141586  |grad|_K:  2.808e-04  alpha:  1.174e-01  linmin:  7.018e-03  cgtest: -1.083e-01  t[s]:    264.50
	FillingsUpdate:  mu: +0.460676998  nElectrons: 432.000000
LCAOMinimize: Iter:   6  F: -1817.0963126904946421  |grad|_K:  2.213e-04  alpha:  1.239e-01  linmin:  1.943e-03  cgtest:  4.288e-03  t[s]:    301.86
	FillingsUpdate:  mu: +0.463823412  nElectrons: 432.000000
LCAOMinimize: Iter:   7  F: -1817.1084034900925417  |grad|_K:  2.074e-04  alpha:  1.340e-01  linmin:  1.612e-03  cgtest:  1.941e-03  t[s]:    339.76
	FillingsUpdate:  mu: +0.466911280  nElectrons: 432.000000
LCAOMinimize: Iter:   8  F: -1817.1198728727933940  |grad|_K:  1.365e-04  alpha:  1.452e-01  linmin:  1.860e-03  cgtest:  5.786e-03  t[s]:    378.65
	FillingsUpdate:  mu: +0.468142833  nElectrons: 432.000000
LCAOMinimize: Iter:   9  F: -1817.1235035482081912  |grad|_K:  5.966e-05  alpha:  1.057e-01  linmin:  3.517e-04  cgtest:  3.891e-02  t[s]:    415.72
	FillingsUpdate:  mu: +0.468228743  nElectrons: 432.000000
LCAOMinimize: Iter:  10  F: -1817.1239601819681866  |grad|_K:  2.610e-05  alpha:  6.916e-02  linmin: -2.623e-05  cgtest:  9.029e-04  t[s]:    453.59
	FillingsUpdate:  mu: +0.468292697  nElectrons: 432.000000
LCAOMinimize: Iter:  11  F: -1817.1240725534360081  |grad|_K:  9.437e-06  alpha:  8.897e-02  linmin:  7.467e-04  cgtest:  2.112e-03  t[s]:    491.88
	FillingsUpdate:  mu: +0.468276773  nElectrons: 432.000000
LCAOMinimize: Iter:  12  F: -1817.1240933507178852  |grad|_K:  5.921e-06  alpha:  1.260e-01  linmin:  2.767e-05  cgtest:  1.648e-03  t[s]:    529.43
	FillingsUpdate:  mu: +0.468244053  nElectrons: 432.000000
LCAOMinimize: Iter:  13  F: -1817.1241002672247760  |grad|_K:  5.236e-06  alpha:  1.064e-01  linmin: -1.488e-06  cgtest: -3.199e-04  t[s]:    567.09
	FillingsUpdate:  mu: +0.468187112  nElectrons: 432.000000
LCAOMinimize: Iter:  14  F: -1817.1241097171277943  |grad|_K:  4.327e-06  alpha:  1.858e-01  linmin:  1.930e-05  cgtest:  1.274e-04  t[s]:    605.73
	FillingsUpdate:  mu: +0.468149654  nElectrons: 432.000000
LCAOMinimize: Iter:  15  F: -1817.1241136734183783  |grad|_K:  2.303e-06  alpha:  1.139e-01  linmin: -4.105e-06  cgtest:  6.246e-04  t[s]:    642.75
	FillingsUpdate:  mu: +0.468138108  nElectrons: 432.000000
LCAOMinimize: Iter:  16  F: -1817.1241146905229016  |grad|_K:  1.225e-06  alpha:  1.034e-01  linmin:  2.675e-06  cgtest: -9.536e-05  t[s]:    680.65
	FillingsUpdate:  mu: +0.468133195  nElectrons: 432.000000
LCAOMinimize: Iter:  17  F: -1817.1241148902734039  |grad|_K:  5.371e-07  alpha:  7.176e-02  linmin:  2.010e-04  cgtest: -8.885e-04  t[s]:    717.86
	FillingsUpdate:  mu: +0.468133425  nElectrons: 432.000000
LCAOMinimize: Iter:  18  F: -1817.1241149715895062  |grad|_K:  4.023e-07  alpha:  1.521e-01  linmin:  2.194e-04  cgtest: -3.292e-04  t[s]:    756.18
LCAOMinimize: Converged (|Delta F|<1.000000e-06 for 2 iters).


---- Citations for features of the code used in this run ----

   Software package:
      R. Sundararaman, K. Letchworth-Weaver, K.A. Schwarz, D. Gunceler, Y. Ozhabes and T.A. Arias, 'JDFTx: software for joint density-functional theory', SoftwareX 6, 278 (2017)

   gga-PBEsol exchange-correlation functional:
      J.P. Perdew et al., Phys. Rev. Lett. 100, 136406 (2008)

   Pseudopotentials:
      KF Garrity, JW Bennett, KM Rabe and D Vanderbilt, Comput. Mater. Sci. 81, 446 (2014)

This list may not be complete. Please suggest additional citations or
report any other bugs at https://github.com/shankar1729/jdftx/issues

Initialization completed successfully at t[s]:    777.30


-------- Electronic minimization -----------
Will mix electronic density at each iteration.
	FillingsUpdate:  mu: +0.468133425  nElectrons: 432.000000
	FillingsUpdate:  mu: +0.462335139  nElectrons: 432.000000
SCF: Cycle:  0   F: -1818.168171145692895   dF: -1.044e+00   |Residual|: 4.470e-01   |deigs|: 3.868e-02  t[s]:    953.99
	FillingsUpdate:  mu: +0.457231148  nElectrons: 432.000000
SCF: Cycle:  1   F: -1818.172153813995919   dF: -3.983e-03   |Residual|: 2.207e-01   |deigs|: 9.300e-03  t[s]:   1107.88
	FillingsUpdate:  mu: +0.453932006  nElectrons: 432.000000
SCF: Cycle:  2   F: -1818.056929669619194   dF: +1.152e-01   |Residual|: 2.410e-01   |deigs|: 6.843e-03  t[s]:   1261.72
	FillingsUpdate:  mu: +0.453792338  nElectrons: 432.000000
SCF: Cycle:  3   F: -1818.175462523001443   dF: -1.185e-01   |Residual|: 1.433e-01   |deigs|: 4.678e-03  t[s]:   1411.51
	FillingsUpdate:  mu: +0.454124250  nElectrons: 432.000000
SCF: Cycle:  4   F: -1818.252175435408390   dF: -7.671e-02   |Residual|: 3.453e-02   |deigs|: 2.041e-03  t[s]:   1563.59
	FillingsUpdate:  mu: +0.454492591  nElectrons: 432.000000
SCF: Cycle:  5   F: -1818.251668344986228   dF: +5.071e-04   |Residual|: 3.233e-02   |deigs|: 6.688e-04  t[s]:   1650.21
	FillingsUpdate:  mu: +0.454698590  nElectrons: 432.000000
SCF: Cycle:  6   F: -1818.255999055788152   dF: -4.331e-03   |Residual|: 1.451e-02   |deigs|: 4.991e-04  t[s]:   1740.53
	FillingsUpdate:  mu: +0.454755042  nElectrons: 432.000000
SCF: Cycle:  7   F: -1818.256651055812426   dF: -6.520e-04   |Residual|: 4.730e-03   |deigs|: 1.885e-04  t[s]:   1830.37
	FillingsUpdate:  mu: +0.454775689  nElectrons: 432.000000
SCF: Cycle:  8   F: -1818.256595010172987   dF: +5.605e-05   |Residual|: 5.328e-03   |deigs|: 1.129e-04  t[s]:   1920.38
	FillingsUpdate:  mu: +0.454795311  nElectrons: 432.000000
SCF: Cycle:  9   F: -1818.256707514687832   dF: -1.125e-04   |Residual|: 1.588e-03   |deigs|: 8.333e-05  t[s]:   2013.44
	FillingsUpdate:  mu: +0.454815055  nElectrons: 432.000000
SCF: Cycle: 10   F: -1818.256711006456271   dF: -3.492e-06   |Residual|: 1.082e-03   |deigs|: 3.098e-05  t[s]:   2109.38
	FillingsUpdate:  mu: +0.454829510  nElectrons: 432.000000
SCF: Cycle: 11   F: -1818.256713239418104   dF: -2.233e-06   |Residual|: 6.875e-04   |deigs|: 2.627e-05  t[s]:   2204.58
	FillingsUpdate:  mu: +0.454833219  nElectrons: 432.000000
SCF: Cycle: 12   F: -1818.256715046810541   dF: -1.807e-06   |Residual|: 2.427e-04   |deigs|: 1.437e-05  t[s]:   2296.78
	FillingsUpdate:  mu: +0.454836467  nElectrons: 432.000000
SCF: Cycle: 13   F: -1818.256715065196886   dF: -1.839e-08   |Residual|: 1.763e-04   |deigs|: 8.814e-06  t[s]:   2386.00
	FillingsUpdate:  mu: +0.454838729  nElectrons: 432.000000
SCF: Cycle: 14   F: -1818.256715128776477   dF: -6.358e-08   |Residual|: 1.036e-04   |deigs|: 7.208e-06  t[s]:   2477.30
	FillingsUpdate:  mu: +0.454839642  nElectrons: 432.000000
SCF: Cycle: 15   F: -1818.256715152331481   dF: -2.356e-08   |Residual|: 6.544e-05   |deigs|: 6.383e-06  t[s]:   2567.00
	FillingsUpdate:  mu: +0.454839951  nElectrons: 432.000000
SCF: Cycle: 16   F: -1818.256715163075114   dF: -1.074e-08   |Residual|: 3.542e-05   |deigs|: 5.493e-06  t[s]:   2658.90
	FillingsUpdate:  mu: +0.454839977  nElectrons: 432.000000
SCF: Cycle: 17   F: -1818.256715167821085   dF: -4.746e-09   |Residual|: 1.635e-05   |deigs|: 5.300e-06  t[s]:   2750.61
	FillingsUpdate:  mu: +0.454839935  nElectrons: 432.000000
SCF: Cycle: 18   F: -1818.256715167303582   dF: +5.175e-10   |Residual|: 1.780e-05   |deigs|: 5.727e-06  t[s]:   2840.78
	FillingsUpdate:  mu: +0.454840004  nElectrons: 432.000000
SCF: Cycle: 19   F: -1818.256715168914297   dF: -1.611e-09   |Residual|: 7.448e-06   |deigs|: 4.825e-06  t[s]:   2926.94
	FillingsUpdate:  mu: +0.454840022  nElectrons: 432.000000
SCF: Cycle: 20   F: -1818.256715168929532   dF: -1.523e-11   |Residual|: 3.655e-06   |deigs|: 3.247e-06  t[s]:   2997.67
SCF: Converged (|Delta E|<1.000000e-08 for 2 iters).

Setting wave functions to eigenvectors of Hamiltonian

# Ionic positions in lattice coordinates:
ion Rh   0.000000000000000   0.000000000000000   0.000000000000000 0
ion Rh   0.260460000000000   0.286320000000000   0.260710000000000 1
ion Rh  -0.010560000000000   0.008230000000000   0.523200000000000 1
ion Rh   0.245010000000000   0.239310000000000   0.743790000000000 1
ion Rh  -0.004520000000000   0.503560000000000  -0.008070000000000 1
ion Rh   0.250730000000000   0.745240000000000   0.239990000000000 1
ion Rh  -0.008620000000000   0.496400000000000   0.494300000000000 1
ion Rh   0.250830000000000   0.755070000000000   0.760130000000000 1
ion Rh   0.500310000000000   0.004520000000000   0.018510000000000 1
ion Rh   0.762650000000000   0.239560000000000   0.251790000000000 1
ion Rh   0.494770000000000   0.002860000000000   0.508510000000000 1
ion Rh   0.749110000000000   0.241140000000000   0.735670000000000 1
ion Rh   0.496390000000000   0.495630000000000  -0.005730000000000 1
ion Rh   0.749880000000000   0.742480000000000   0.251540000000000 1
ion Rh   0.501710000000000   0.512500000000000   0.503800000000000 1
ion Rh   0.741040000000000   0.752630000000000   0.741350000000000 1
ion O   0.148770000000000   0.140180000000000   0.007460000000000 1
ion O   0.107630000000000   0.394440000000000   0.258890000000000 1
ion O   0.393100000000000   0.092470000000000   0.250120000000000 1
ion O   0.342260000000000   0.335480000000000   0.007810000000000 1
ion O   0.151710000000000   0.159560000000000   0.505580000000000 1
ion O   0.092320000000000   0.410240000000000   0.748990000000000 1
ion O   0.398210000000000   0.096130000000000   0.767970000000000 1
ion O   0.356630000000000   0.353290000000000   0.491140000000000 1
ion O   0.169770000000000   0.650260000000000   0.007430000000000 1
ion O   0.098070000000000   0.909440000000000   0.232380000000000 1
ion O   0.398310000000000   0.601820000000000   0.242680000000000 1
ion O   0.344080000000000   0.838080000000000  -0.007680000000000 1
ion O   0.139710000000000   0.659570000000000   0.521920000000000 1
ion O   0.106730000000000   0.910390000000000   0.764060000000000 1
ion O   0.412410000000000   0.603890000000000   0.744070000000000 1
ion O   0.332800000000000   0.864720000000000   0.513080000000000 1
ion O   0.648870000000000   0.150410000000000  -0.001410000000000 1
ion O   0.587000000000000   0.406420000000000   0.255060000000000 1
ion O   0.904310000000000   0.100660000000000   0.243610000000000 1
ion O   0.839980000000000   0.335590000000000  -0.011320000000000 1
ion O   0.664460000000000   0.155230000000000   0.516490000000000 1
ion O   0.587860000000000   0.396510000000000   0.759030000000000 1
ion O   0.908960000000000   0.098070000000000   0.753460000000000 1
ion O   0.839800000000000   0.361460000000000   0.496700000000000 1
ion O   0.644510000000000   0.658600000000000   0.016870000000000 1
ion O   0.596730000000000   0.892130000000000   0.256690000000000 1
ion O   0.888190000000000   0.591720000000000   0.240040000000000 1
ion O   0.855340000000000   0.870230000000000   0.004130000000000 1
ion O   0.648310000000000   0.657390000000000   0.501910000000000 1
ion O   0.590120000000000   0.903430000000000   0.763230000000000 1
ion O   0.907020000000000   0.588710000000000   0.753140000000000 1
ion O   0.840680000000000   0.844070000000000   0.499820000000000 1

# Forces in Lattice coordinates:
force Rh   0.788796429244534   0.608046100504437   0.227786023289078 0
force Rh   0.148216645612175  -3.325775295129069  -0.212418067085875 1
force Rh   1.134187081754263  -0.915049680016862  -1.316307416509510 1
force Rh  -0.026483364666088   0.635533883913057   0.744441864908673 1
force Rh   0.358919097345460  -0.616067844104836   0.521679327383520 1
force Rh  -0.365077951371799   1.061407231708350   0.940232870103124 1
force Rh   0.874522096250215   0.576524435049356   0.305965124528320 1
force Rh  -0.154296217817356  -0.506406331276935  -0.683585637057164 1
force Rh  -0.185063614177763  -0.660073739439867  -0.365912493381846 1
force Rh  -1.385703027067923   1.146218116644480  -0.247028105147900 1
force Rh   0.261313247606246  -0.119074647262803   0.112642430402449 1
force Rh   0.445564238022490   1.184316613487255   1.338432611428180 1
force Rh  -0.071905878135323   0.293238841612760   0.535248959552417 1
force Rh  -0.062010644693140   0.875612618617221  -0.083212398192337 1
force Rh  -0.140918020317632  -0.739650072548601  -0.378485236203958 1
force Rh   0.546554476205256   0.060386525854389   0.792982560282572 1
force O   0.671623818086911   0.946049694315902  -0.185086033090358 1
force O  -2.115879035270409   1.694697141821701  -0.209706735491823 1
force O   0.037283846172261   0.332091973747702   0.284623484188362 1
force O   0.769925160723333   0.811441022385955  -0.685384254773812 1
force O  -0.266134789153195  -0.208729752353673  -0.206225808331705 1
force O   0.338093028665083  -0.428801932471136  -0.171440272362345 1
force O   0.193005523867611  -0.080619429865405  -0.230158772231778 1
force O   0.368343707431287   0.294852828097185   0.743333437653194 1
force O  -0.842092301191102  -0.724931865268543  -0.404343861979013 1
force O   0.097205634484154  -0.340155160702085   0.541883597689177 1
force O   0.423656954823127  -0.424791645990269   0.176034867146418 1
force O   0.708553543028733   0.675366821546765   0.511933616706301 1
force O   0.269643137018214   0.045833252123687  -0.466573572754091 1
force O  -0.393600094453316   0.140254618264232  -0.104092889667931 1
force O  -0.387149416002476   0.204196355460627   0.262147735455915 1
force O  -0.007695371556994  -0.336370266099235  -0.297668639849363 1
force O   0.300841368487545   0.144885507647964   0.153732231191833 1
force O   0.396000570174683  -0.306743172436811  -0.088924077999289 1
force O   0.566888597429048  -0.542080408056024   0.394000576027709 1
force O   0.409289139348904   0.429258367163039   0.122598794941201 1
force O  -0.973017027220254  -1.028604372633239  -1.146377726764311 1
force O   0.220994566136078  -0.081895137694808  -0.377012833391702 1
force O  -0.623376690509970   0.562889886938326   0.315070992317296 1
force O  -0.498920574429298  -0.795482027259619  -0.112334294476118 1
force O  -0.004858999525313  -0.158382906647930  -0.548696765092716 1
force O  -0.393414888193339   0.566504380512428   0.123716431569480 1
force O   0.633571429391320  -0.402673927105870   0.048795469559823 1
force O  -1.628682839177205  -1.698724267639853  -0.130249747980408 1
force O   0.181252892592918   0.035559050033661  -0.076406165348634 1
force O  -0.009701744869635   0.092808914966323  -0.181119974414982 1
force O  -0.865499713343201   0.798883314785280  -0.336683704823534 1
force O   0.256814610294383   0.220193644400796   0.048587133611974 1

# Energy components:
   Eewald =    -1411.4491347633984333
       EH =      414.9987002053493370
     Eloc =    -1150.9625698689187629
      Enl =     -102.4354191878243512
      Exc =     -352.1281830341824843
 Exc_core =       65.6368746255426032
       KE =      718.3165724335476625
-------------------------------------
     Etot =    -1818.0231595898844716
       TS =        0.2335555790450103
-------------------------------------
        F =    -1818.2567151689295315

IonicMinimize: Iter:   0  F: -1818.256715168929532  |grad|_K:  4.330e-02  t[s]:   3021.40

#--- Lowdin population analysis ---
# oxidation-state Rh +0.549 +0.549 +0.449 +0.446 +0.447 +0.475 +0.459 +0.500 +0.480 +0.458 +0.436 +0.488 +0.462 +0.489 +0.475 +0.437
# oxidation-state O -0.248 -0.176 -0.236 -0.200 -0.220 -0.234 -0.199 -0.186 -0.196 -0.256 -0.215 -0.190 -0.270 -0.218 -0.221 -0.229 -0.214 -0.263 -0.188 -0.244 -0.184 -0.228 -0.177 -0.203 -0.227 -0.236 -0.211 -0.227 -0.172 -0.217 -0.196 -0.216


-------- Electronic minimization -----------
Will mix electronic density at each iteration.
	FillingsUpdate:  mu: +0.454840022  nElectrons: 432.000000
	FillingsUpdate:  mu: +0.457826185  nElectrons: 432.000000
SCF: Cycle:  0   F: -1814.484115646847840   dF: +1.891e+00   |Residual|: 1.152e+00   |deigs|: 7.012e-03  t[s]:   3238.31
	FillingsUpdate:  mu: +0.460794851  nElectrons: 432.000000
SCF: Cycle:  1   F: -1813.753516600388593   dF: +7.306e-01   |Residual|: 1.248e+00   |deigs|: 1.577e-02  t[s]:   3388.52
	FillingsUpdate:  mu: +0.455614739  nElectrons: 432.000000
SCF: Cycle:  2   F: -1817.133443212398106   dF: -3.380e+00   |Residual|: 5.225e-01   |deigs|: 1.432e-02  t[s]:   3537.36
	FillingsUpdate:  mu: +0.453832545  nElectrons: 432.000000
SCF: Cycle:  3   F: -1817.714085324095322   dF: -5.806e-01   |Residual|: 4.018e-01   |deigs|: 3.378e-03  t[s]:   3690.92
	FillingsUpdate:  mu: +0.453100117  nElectrons: 432.000000
SCF: Cycle:  4   F: -1818.308470050330470   dF: -5.944e-01   |Residual|: 1.318e-01   |deigs|: 4.546e-03  t[s]:   3850.86
	FillingsUpdate:  mu: +0.453171334  nElectrons: 432.000000
SCF: Cycle:  5   F: -1818.359755906609735   dF: -5.129e-02   |Residual|: 6.172e-02   |deigs|: 1.158e-03  t[s]:   4012.10
	FillingsUpdate:  mu: +0.453253705  nElectrons: 432.000000
SCF: Cycle:  6   F: -1818.361489322237503   dF: -1.733e-03   |Residual|: 5.052e-02   |deigs|: 8.242e-04  t[s]:   4144.64
	FillingsUpdate:  mu: +0.453126519  nElectrons: 432.000000
SCF: Cycle:  7   F: -1818.370008610610739   dF: -8.519e-03   |Residual|: 1.819e-02   |deigs|: 5.777e-04  t[s]:   4237.63
	FillingsUpdate:  mu: +0.453104902  nElectrons: 432.000000
SCF: Cycle:  8   F: -1818.369823988421331   dF: +1.846e-04   |Residual|: 1.697e-02   |deigs|: 3.253e-04  t[s]:   4331.14
	FillingsUpdate:  mu: +0.453098052  nElectrons: 432.000000
SCF: Cycle:  9   F: -1818.371151930288534   dF: -1.328e-03   |Residual|: 4.409e-03   |deigs|: 2.088e-04  t[s]:   4420.76
	FillingsUpdate:  mu: +0.453108425  nElectrons: 432.000000
SCF: Cycle: 10   F: -1818.371175931596554   dF: -2.400e-05   |Residual|: 3.225e-03   |deigs|: 6.788e-05  t[s]:   4512.57
	FillingsUpdate:  mu: +0.453113675  nElectrons: 432.000000
SCF: Cycle: 11   F: -1818.371179025869878   dF: -3.094e-06   |Residual|: 2.661e-03   |deigs|: 6.695e-05  t[s]:   4607.36
	FillingsUpdate:  mu: +0.453111073  nElectrons: 432.000000
SCF: Cycle: 12   F: -1818.371203963627750   dF: -2.494e-05   |Residual|: 1.533e-03   |deigs|: 4.703e-05  t[s]:   4698.87
	FillingsUpdate:  mu: +0.453110907  nElectrons: 432.000000
SCF: Cycle: 13   F: -1818.371209267170570   dF: -5.304e-06   |Residual|: 4.773e-04   |deigs|: 1.865e-05  t[s]:   4788.35
	FillingsUpdate:  mu: +0.453110220  nElectrons: 432.000000
SCF: Cycle: 14   F: -1818.371209715744726   dF: -4.486e-07   |Residual|: 3.743e-04   |deigs|: 1.108e-05  t[s]:   4881.13
	FillingsUpdate:  mu: +0.453109437  nElectrons: 432.000000
SCF: Cycle: 15   F: -1818.371210036299772   dF: -3.206e-07   |Residual|: 2.214e-04   |deigs|: 6.659e-06  t[s]:   4972.60
	FillingsUpdate:  mu: +0.453109369  nElectrons: 432.000000
SCF: Cycle: 16   F: -1818.371210184500114   dF: -1.482e-07   |Residual|: 1.275e-04   |deigs|: 4.435e-06  t[s]:   5066.23
	FillingsUpdate:  mu: +0.453109335  nElectrons: 432.000000
SCF: Cycle: 17   F: -1818.371210211443440   dF: -2.694e-08   |Residual|: 7.762e-05   |deigs|: 2.455e-06  t[s]:   5156.80
	FillingsUpdate:  mu: +0.453109256  nElectrons: 432.000000
SCF: Cycle: 18   F: -1818.371210229287954   dF: -1.784e-08   |Residual|: 3.148e-05   |deigs|: 1.427e-06  t[s]:   5249.41
	FillingsUpdate:  mu: +0.453109170  nElectrons: 432.000000
SCF: Cycle: 19   F: -1818.371210232666499   dF: -3.379e-09   |Residual|: 1.607e-05   |deigs|: 7.192e-07  t[s]:   5341.32
	FillingsUpdate:  mu: +0.453109220  nElectrons: 432.000000
SCF: Cycle: 20   F: -1818.371210233168995   dF: -5.025e-10   |Residual|: 8.961e-06   |deigs|: 4.720e-07  t[s]:   5430.57
SCF: Converged (|Delta E|<1.000000e-08 for 2 iters).

Setting wave functions to eigenvectors of Hamiltonian

# Ionic positions in lattice coordinates:
ion Rh   0.000000000000000   0.000000000000000   0.000000000000000 0
ion Rh   0.260721697920539   0.280447865457032   0.259919298841009 1
ion Rh  -0.008557429575766   0.006614348163165   0.518300201154724 1
ion Rh   0.244963239788608   0.240432126464226   0.746561096891429 1
ion Rh  -0.003886276698237   0.502472243616440  -0.006128110336645 1
ion Rh   0.250085402339886   0.747114067113421   0.243489905776903 1
ion Rh  -0.007075905501382   0.497417936764374   0.495438919028379 1
ion Rh   0.250557567857385   0.754175866805250   0.757585433227003 1
ion Rh   0.499983243600179   0.003354544899511   0.017147933973434 1
ion Rh   0.760203341997485   0.241583812963238   0.250870467063261 1
ion Rh   0.495231386120348   0.002649756577714   0.508929298139244 1
ion Rh   0.749896707693078   0.243231081272641   0.740652157269421 1
ion Rh   0.496263039821445   0.496147755345855  -0.003737598984055 1
ion Rh   0.749770511258239   0.744026019995489   0.251230251678702 1
ion Rh   0.501461188997219   0.511194041438571   0.502391133423662 1
ion Rh   0.742005020521371   0.752736621075591   0.744301783895208 1
ion O   0.149955848398081   0.141850386755438   0.006771039108465 1
ion O   0.103894111234422   0.397432231580818   0.258109391452542 1
ion O   0.393165829980055   0.093056356133908   0.251179477293581 1
ion O   0.343619413559273   0.336912715784598   0.005258738085047 1
ion O   0.151240100766414   0.159191457615910   0.504812348792648 1
ion O   0.092916951875981   0.409482888513441   0.748351833840622 1
ion O   0.398550779009906   0.095987654796418   0.767113261162045 1
ion O   0.357280363773607   0.353810605055360   0.493906970901924 1
ion O   0.168283164973340   0.648980028575087   0.005924877744233 1
ion O   0.098241630538228   0.908839407145215   0.234397097672572 1
ion O   0.399058027291759   0.601069969247855   0.243335268995642 1
ion O   0.345331053147715   0.839272457217426  -0.005774387593252 1
ion O   0.140186093732070   0.659650925187918   0.520183234997886 1
ion O   0.106035042427635   0.910637639711543   0.763672526516071 1
ion O   0.411726432025778   0.604250538043302   0.745045813974280 1
ion O   0.332786412726921   0.864126089924660   0.511971963655666 1
ion O   0.649401178692568   0.150665816187873  -0.000837749931796 1
ion O   0.587699195963393   0.405878400804543   0.254728990625417 1
ion O   0.905310923358009   0.099702879066917   0.245076620595801 1
ion O   0.840702658816903   0.336347917360943  -0.010863640470037 1
ion O   0.662741998553109   0.153413851099208   0.512222744348775 1
ion O   0.588250197688965   0.396365402349796   0.757626614269176 1
ion O   0.907859338789796   0.099063863062518   0.754632814545427 1
ion O   0.838919084008341   0.360055462106556   0.496281848860338 1
ion O   0.644501420743261   0.658320352202661   0.014827541116697 1
ion O   0.596035369420692   0.893130244962480   0.257150519800271 1
ion O   0.889308661482002   0.591009021253624   0.240221635370587 1
ion O   0.852464326299790   0.867230658083219   0.003645160701256 1
ion O   0.648630028045185   0.657452784609832   0.501625587076353 1
ion O   0.590102870170984   0.903593867485855   0.762555802293321 1
ion O   0.905491835766706   0.590120543404429   0.751886734685662 1
ion O   0.841133443117139   0.844458783534366   0.500000859864634 1

# Forces in Lattice coordinates:
force Rh   0.551029302409216   0.451564585692208   0.210210015355669 0
force Rh  -0.397117231282016  -2.566921695594573  -0.178943773438295 1
force Rh   0.859390557932957  -0.652791371696194  -0.950274146300743 1
force Rh   0.006717104563643   0.578358093500218   0.545100946764461 1
force Rh   0.296671193020947  -0.481294499995226   0.332257927450086 1
force Rh  -0.303765616487691   0.735362989542938   0.653716558208547 1
force Rh   0.588335756691758   0.398479758488451   0.250573070594903 1
force Rh  -0.088843053294216  -0.357400039591858  -0.397647166115432 1
force Rh  -0.187544892229156  -0.526242121253412  -0.322642271913439 1
force Rh  -1.078563614975640   0.796738574411261  -0.171522209351657 1
force Rh   0.224161733043353  -0.090604703958835   0.064690347280044 1
force Rh   0.047037660705297   0.740538498975477   0.710768353748047 1
force Rh  -0.034950929469337   0.243016161893306   0.358093010888161 1
force Rh  -0.020804588011760   0.689949535143227  -0.067551759019771 1
force Rh  -0.086399216870807  -0.579125845810991  -0.245764758870984 1
force Rh   0.478432559437968   0.035398531692100   0.624786608446449 1
force O   0.568189590043054   0.827904976196823  -0.127733588811040 1
force O  -1.224006265744839   1.096995933457325  -0.194971974758888 1
force O   0.085587084107772   0.279837960285880   0.246033996914577 1
force O   0.587934879197912   0.698657379941756  -0.484555697015287 1
force O  -0.139705618928737  -0.111108942774066  -0.136686757332860 1
force O   0.286811609290766  -0.375414562131479  -0.106213350821835 1
force O   0.162026194408243  -0.062191277484234  -0.207049412025031 1
force O   0.089195995054264   0.111478370602385   0.537368051736627 1
force O  -0.652142564640555  -0.508617994541828  -0.254328950265712 1
force O   0.041909801805619  -0.270628811436916   0.493009711935372 1
force O   0.288911725189322  -0.289799860567868   0.186623384406276 1
force O   0.508856217164202   0.505579096093445   0.387708764641519 1
force O   0.263854809058877   0.064003988257434  -0.443823487133499 1
force O  -0.350970973181985   0.086979371833865  -0.149723434285243 1
force O  -0.308789192905118   0.128676596787938   0.187107974653932 1
force O   0.005955883299809  -0.310864882119339  -0.273731670085267 1
force O   0.262794966348827   0.121798833894599   0.149010756370203 1
force O   0.381084272271055  -0.296105469173985  -0.098416123525339 1
force O   0.302853521646793  -0.300787156544061   0.330500962929901 1
force O   0.408996741601742   0.451034569585127   0.174176124441106 1
force O  -0.595122795392850  -0.620136584292428  -0.676228588888682 1
force O   0.178171861345850  -0.011832265986103  -0.280339435550972 1
force O  -0.372403720874707   0.303752746844143   0.107605761751356 1
force O  -0.304600940625852  -0.612893851170831  -0.045076885636525 1
force O   0.043283900831838  -0.117344328184115  -0.462285202302525 1
force O  -0.354563430353728   0.509752785736402   0.109619210968808 1
force O   0.506657137865723  -0.270736449263577   0.076740266999375 1
force O  -1.256697582953282  -1.365285235799545  -0.115113294578736 1
force O   0.170049655167149   0.034293965296786  -0.044321014348932 1
force O   0.017908789115442   0.057624866624222  -0.159555517878201 1
force O  -0.690941312327285   0.634764224751272  -0.199491203588947 1
force O   0.238497608956462   0.192507969459181   0.058360914676994 1

# Energy components:
   Eewald =    -1414.1620462815888004
       EH =      412.5141366815856827
     Eloc =    -1145.4743617491558325
      Enl =     -102.4976361193860868
      Exc =     -351.9879757567306910
 Exc_core =       65.6368564054142780
       KE =      717.8291208405432826
-------------------------------------
     Etot =    -1818.1419059793181532
       TS =        0.2293042538509270
-------------------------------------
        F =    -1818.3712102331689948

IonicMinimize: Iter:   1  F: -1818.371210233168995  |grad|_K:  3.151e-02  alpha:  5.067e-01  linmin: -9.773e-01  t[s]:   5454.38

#--- Lowdin population analysis ---
# oxidation-state Rh +0.539 +0.523 +0.450 +0.453 +0.453 +0.471 +0.467 +0.496 +0.481 +0.462 +0.446 +0.486 +0.467 +0.488 +0.480 +0.442
# oxidation-state O -0.242 -0.197 -0.232 -0.198 -0.220 -0.230 -0.200 -0.190 -0.204 -0.245 -0.214 -0.197 -0.257 -0.217 -0.222 -0.225 -0.214 -0.253 -0.194 -0.231 -0.203 -0.229 -0.188 -0.206 -0.226 -0.231 -0.213 -0.231 -0.181 -0.214 -0.205 -0.215


-------- Electronic minimization -----------
Will mix electronic density at each iteration.
	FillingsUpdate:  mu: +0.453109220  nElectrons: 432.000000
	FillingsUpdate:  mu: +0.455351241  nElectrons: 432.000000
SCF: Cycle:  0   F: -1815.357810364738498   dF: +1.674e+00   |Residual|: 9.887e-01   |deigs|: 4.780e-03  t[s]:   5670.13
	FillingsUpdate:  mu: +0.459276561  nElectrons: 432.000000
SCF: Cycle:  1   F: -1813.526159974057691   dF: +1.832e+00   |Residual|: 1.193e+00   |deigs|: 1.586e-02  t[s]:   5827.64
	FillingsUpdate:  mu: +0.453509443  nElectrons: 432.000000
SCF: Cycle:  2   F: -1817.552460009238530   dF: -4.026e+00   |Residual|: 4.472e-01   |deigs|: 1.616e-02  t[s]:   5978.75
	FillingsUpdate:  mu: +0.452819555  nElectrons: 432.000000
SCF: Cycle:  3   F: -1817.955380038897374   dF: -4.029e-01   |Residual|: 3.387e-01   |deigs|: 2.224e-03  t[s]:   6133.61
	FillingsUpdate:  mu: +0.452116925  nElectrons: 432.000000
SCF: Cycle:  4   F: -1818.361167767984398   dF: -4.058e-01   |Residual|: 1.388e-01   |deigs|: 2.580e-03  t[s]:   6289.53
	FillingsUpdate:  mu: +0.452119751  nElectrons: 432.000000
SCF: Cycle:  5   F: -1818.432215437354898   dF: -7.105e-02   |Residual|: 5.662e-02   |deigs|: 1.906e-03  t[s]:   6438.89
	FillingsUpdate:  mu: +0.452108322  nElectrons: 432.000000
SCF: Cycle:  6   F: -1818.437356351534618   dF: -5.141e-03   |Residual|: 4.091e-02   |deigs|: 7.336e-04  t[s]:   6536.02
	FillingsUpdate:  mu: +0.452071672  nElectrons: 432.000000
SCF: Cycle:  7   F: -1818.442338402880296   dF: -4.982e-03   |Residual|: 1.862e-02   |deigs|: 4.092e-04  t[s]:   6626.04
	FillingsUpdate:  mu: +0.452047846  nElectrons: 432.000000
SCF: Cycle:  8   F: -1818.443311860294216   dF: -9.735e-04   |Residual|: 8.132e-03   |deigs|: 2.010e-04  t[s]:   6718.65
	FillingsUpdate:  mu: +0.452051785  nElectrons: 432.000000
SCF: Cycle:  9   F: -1818.443464302644998   dF: -1.524e-04   |Residual|: 3.502e-03   |deigs|: 8.589e-05  t[s]:   6811.02
	FillingsUpdate:  mu: +0.452056552  nElectrons: 432.000000
SCF: Cycle: 10   F: -1818.443470558245735   dF: -6.256e-06   |Residual|: 2.776e-03   |deigs|: 5.925e-05  t[s]:   6901.57
	FillingsUpdate:  mu: +0.452060803  nElectrons: 432.000000
SCF: Cycle: 11   F: -1818.443491680559418   dF: -2.112e-05   |Residual|: 1.785e-03   |deigs|: 4.668e-05  t[s]:   6993.10
	FillingsUpdate:  mu: +0.452059169  nElectrons: 432.000000
SCF: Cycle: 12   F: -1818.443498896019491   dF: -7.215e-06   |Residual|: 1.223e-03   |deigs|: 2.815e-05  t[s]:   7084.74
	FillingsUpdate:  mu: +0.452059333  nElectrons: 432.000000
SCF: Cycle: 13   F: -1818.443502677602055   dF: -3.782e-06   |Residual|: 4.475e-04   |deigs|: 1.792e-05  t[s]:   7174.97
	FillingsUpdate:  mu: +0.452058608  nElectrons: 432.000000
SCF: Cycle: 14   F: -1818.443502479001154   dF: +1.986e-07   |Residual|: 4.704e-04   |deigs|: 1.193e-05  t[s]:   7264.26
	FillingsUpdate:  mu: +0.452058196  nElectrons: 432.000000
SCF: Cycle: 15   F: -1818.443503439558754   dF: -9.606e-07   |Residual|: 2.035e-04   |deigs|: 8.534e-06  t[s]:   7354.27
	FillingsUpdate:  mu: +0.452058144  nElectrons: 432.000000
SCF: Cycle: 16   F: -1818.443503531553461   dF: -9.199e-08   |Residual|: 1.164e-04   |deigs|: 3.126e-06  t[s]:   7446.15
	FillingsUpdate:  mu: +0.452057938  nElectrons: 432.000000
SCF: Cycle: 17   F: -1818.443503551107369   dF: -1.955e-08   |Residual|: 7.120e-05   |deigs|: 2.164e-06  t[s]:   7535.78
	FillingsUpdate:  mu: +0.452057848  nElectrons: 432.000000
SCF: Cycle: 18   F: -1818.443503569278846   dF: -1.817e-08   |Residual|: 2.890e-05   |deigs|: 1.023e-06  t[s]:   7628.10
	FillingsUpdate:  mu: +0.452057847  nElectrons: 432.000000
SCF: Cycle: 19   F: -1818.443503570522125   dF: -1.243e-09   |Residual|: 2.141e-05   |deigs|: 6.347e-07  t[s]:   7717.82
	FillingsUpdate:  mu: +0.452057831  nElectrons: 432.000000
SCF: Cycle: 20   F: -1818.443503571186056   dF: -6.639e-10   |Residual|: 1.561e-05   |deigs|: 4.872e-07  t[s]:   7808.65
SCF: Converged (|Delta E|<1.000000e-08 for 2 iters).

Setting wave functions to eigenvectors of Hamiltonian

# Ionic positions in lattice coordinates:
ion Rh   0.000000000000000   0.000000000000000   0.000000000000000 0
ion Rh   0.258603387306279   0.274971588413815   0.259035911944822 1
ion Rh  -0.006763775965271   0.005354548556556   0.514370278108838 1
ion Rh   0.245045056090455   0.241884267447474   0.748858360660943 1
ion Rh  -0.003204533137089   0.501431043402602  -0.005002468564379 1
ion Rh   0.249382706549425   0.748474504342295   0.246053031606440 1
ion Rh  -0.006036055525733   0.498152510429293   0.496641472248136 1
ion Rh   0.250443192492138   0.753496530411855   0.756477793676427 1
ion Rh   0.499472037061584   0.002190161636280   0.015486070427329 1
ion Rh   0.757879864513194   0.243065041148506   0.250199287105630 1
ion Rh   0.495765458661400   0.002459691404753   0.509103690318595 1
ion Rh   0.749259367554258   0.244379684764166   0.742160646626877 1
ion Rh   0.496239536456680   0.496707672448954  -0.002415280557574 1
ion Rh   0.749793362240922   0.745533068869679   0.250908998332697 1
ion Rh   0.501332441249700   0.509938046134766   0.501528632911750 1
ion Rh   0.743166327574658   0.752784285341254   0.747178639408790 1
ion O   0.151291808072637   0.143859469468201   0.006275747394364 1
ion O   0.102299378845428   0.399248195804106   0.257058981193508 1
ion O   0.393489593964640   0.093711811042793   0.252424130642682 1
ion O   0.344858025616554   0.338583059745160   0.003312178381949 1
ion O   0.151105325743661   0.159078651765996   0.504315362723732 1
ion O   0.093593103904564   0.408571511594898   0.748010899064950 1
ion O   0.398928898351532   0.095855057617495   0.766027955937987 1
ion O   0.356985833083257   0.353759935826192   0.496133424571009 1
ion O   0.166886431988797   0.648021435909963   0.005083550930626 1
ion O   0.098248748475829   0.908241948455661   0.237006217687832 1
ion O   0.399579769620785   0.600546301477759   0.244440545133692 1
ion O   0.346322159107943   0.840312079253543  -0.004069436729394 1
ion O   0.140887507294572   0.659858612873676   0.517748503981289 1
ion O   0.105169039190369   0.910770339258264   0.762635631684793 1
ion O   0.411042867849768   0.604453172819911   0.745807609718862 1
ion O   0.332828678712793   0.863335546692553   0.510510377647942 1
ion O   0.650037860315059   0.150950443121020  -0.000008511562787 1
ion O   0.588699669668594   0.405099198250470   0.254130318822297 1
ion O   0.905622340510927   0.099353423866205   0.246701426432718 1
ion O   0.841806555672651   0.337607660321195  -0.009663488676624 1
ion O   0.661859713552674   0.152522657768225   0.510273977828912 1
ion O   0.588649201692195   0.396467828704537   0.756421520561192 1
ion O   0.907335055095475   0.099387102573579   0.754406533727043 1
ion O   0.838469236207726   0.358750597382557   0.496297178998737 1
ion O   0.644710641408706   0.658082185397450   0.012545122252851 1
ion O   0.595152419628769   0.894397937300835   0.257717588098853 1
ion O   0.890433424544141   0.590530974379806   0.240771518825754 1
ion O   0.849784186890635   0.864183357403489   0.003051016314324 1
ion O   0.649067743890432   0.657542965875980   0.501503000905818 1
ion O   0.590204187291406   0.903681996226252   0.761734636628798 1
ion O   0.903960810243698   0.591519890183110   0.751305755785290 1
ion O   0.841742352326135   0.844925533183378   0.500372633478071 1

# Forces in Lattice coordinates:
force Rh   0.373206024436678   0.348981224073587   0.201861679271867 0
force Rh  -0.360498152461655  -2.065551369977383  -0.169675559369482 1
force Rh   0.673546577338008  -0.494066510928907  -0.719593503888079 1
force Rh   0.082296302000238   0.529239273628995   0.379203225187929 1
force Rh   0.223903797370916  -0.364390991611973   0.233698759986853 1
force Rh  -0.226578526705282   0.512940950534689   0.479015415508507 1
force Rh   0.411916604424777   0.293505515436055   0.181519566727109 1
force Rh  -0.070672168433296  -0.251002666165923  -0.265854841210394 1
force Rh  -0.170781851697046  -0.374398104239487  -0.251054234902321 1
force Rh  -0.834822786269747   0.618791942042653  -0.122772898956035 1
force Rh   0.162244966382448  -0.069478804699580   0.026269141053799 1
force Rh   0.030347507423637   0.590055948597565   0.554119108217127 1
force Rh  -0.000878892489600   0.203620749107046   0.248912202790591 1
force Rh  -0.019710788685203   0.526581700833105  -0.040224998068839 1
force Rh  -0.046703249493916  -0.457373190719244  -0.165697978957542 1
force Rh   0.383746020652239   0.016763637149566   0.457561793483996 1
force O   0.438011041822703   0.682323786293231  -0.072812199187353 1
force O  -0.897826634551794   0.858332207622856  -0.164776423319579 1
force O   0.128333136510846   0.211892079683008   0.198283649211187 1
force O   0.392403277039912   0.539467984214147  -0.297369837867161 1
force O  -0.069990265847339  -0.058078193005954  -0.095877751691832 1
force O   0.234447029522758  -0.312443794338797  -0.063250019417355 1
force O   0.125240381089640  -0.035193054247455  -0.183817249708692 1
force O  -0.111642098778534  -0.042969145251488   0.374034841485662 1
force O  -0.521988154345998  -0.359507988340768  -0.171223003609103 1
force O  -0.011307595809442  -0.198111794747841   0.418515354564682 1
force O   0.206398042422990  -0.203118504021006   0.177233038521497 1
force O   0.360653882840503   0.379014995742114   0.309165751136651 1
force O   0.242610926429557   0.060981293600375  -0.391339627143668 1
force O  -0.295141400455798   0.035625177078827  -0.157826316938249 1
force O  -0.246057076307130   0.071137146192789   0.137217536236494 1
force O   0.023637911121972  -0.279458171687092  -0.229398421046686 1
force O   0.195921588519453   0.072444251484985   0.116264298993699 1
force O   0.337244100368770  -0.258747165235929  -0.093355686085132 1
force O   0.176925736137725  -0.191295987989809   0.256140207052496 1
force O   0.334778410518243   0.382675474680189   0.150309040565714 1
force O  -0.489404345536452  -0.489601278193363  -0.523332467787794 1
force O   0.139675615502428   0.036281856517002  -0.220779116140213 1
force O  -0.261311680960776   0.189506409667404   0.022680467337035 1
force O  -0.194708385167137  -0.490804285917962  -0.019815257242541 1
force O   0.076890666782229  -0.081231112960632  -0.370631927794201 1
force O  -0.290879923262150   0.434771187395787   0.086042106862877 1
force O   0.408794691891076  -0.169171802848192   0.087176352875698 1
force O  -0.930114418950776  -1.061662792647292  -0.094817687884533 1
force O   0.155909303516361   0.028050647469301  -0.019885844920728 1
force O   0.043910736045590   0.027662029934953  -0.135829835268388 1
force O  -0.524209552046496   0.486747062932937  -0.113739027178859 1
force O   0.216947530820014   0.167517079155738   0.060114491120739 1

# Energy components:
   Eewald =    -1415.8491604546982217
       EH =      410.9501843455248036
     Eloc =    -1142.0431664556122087
      Enl =     -102.5353578464544029
      Exc =     -351.9027958178448898
 Exc_core =       65.6368470268254782
       KE =      717.5258619298195981
-------------------------------------
     Etot =    -1818.2175872724396868
       TS =        0.2259162987463562
-------------------------------------
        F =    -1818.4435035711860564

IonicMinimize: Iter:   2  F: -1818.443503571186056  |grad|_K:  2.437e-02  alpha:  2.526e-01  linmin: -9.747e-01  t[s]:   7832.19

#--- Lowdin population analysis ---
# oxidation-state Rh +0.526 +0.507 +0.453 +0.459 +0.457 +0.470 +0.471 +0.492 +0.481 +0.464 +0.452 +0.486 +0.471 +0.485 +0.483 +0.448
# oxidation-state O -0.237 -0.201 -0.230 -0.201 -0.220 -0.225 -0.202 -0.199 -0.209 -0.237 -0.215 -0.201 -0.248 -0.215 -0.221 -0.223 -0.215 -0.246 -0.199 -0.228 -0.206 -0.229 -0.196 -0.209 -0.224 -0.228 -0.215 -0.231 -0.189 -0.212 -0.209 -0.215


-------- Electronic minimization -----------
Will mix electronic density at each iteration.
	FillingsUpdate:  mu: +0.452057831  nElectrons: 432.000000
	FillingsUpdate:  mu: +0.454217045  nElectrons: 432.000000
SCF: Cycle:  0   F: -1815.688394923822216   dF: +1.630e+00   |Residual|: 9.137e-01   |deigs|: 4.053e-03  t[s]:   8046.06
	FillingsUpdate:  mu: +0.458502148  nElectrons: 432.000000
SCF: Cycle:  1   F: -1813.166660029780587   dF: +2.522e+00   |Residual|: 1.198e+00   |deigs|: 1.550e-02  t[s]:   8203.66
	FillingsUpdate:  mu: +0.452449560  nElectrons: 432.000000
SCF: Cycle:  2   F: -1817.799654796928962   dF: -4.633e+00   |Residual|: 4.032e-01   |deigs|: 1.702e-02  t[s]:   8355.17
	FillingsUpdate:  mu: +0.452091126  nElectrons: 432.000000
SCF: Cycle:  3   F: -1818.038004374037655   dF: -2.383e-01   |Residual|: 3.228e-01   |deigs|: 2.180e-03  t[s]:   8507.61
	FillingsUpdate:  mu: +0.451513893  nElectrons: 432.000000
SCF: Cycle:  4   F: -1818.407284769486296   dF: -3.693e-01   |Residual|: 1.435e-01   |deigs|: 1.945e-03  t[s]:   8660.92
	FillingsUpdate:  mu: +0.451438056  nElectrons: 432.000000
SCF: Cycle:  5   F: -1818.485405949204278   dF: -7.812e-02   |Residual|: 5.154e-02   |deigs|: 1.982e-03  t[s]:   8813.49
	FillingsUpdate:  mu: +0.451406654  nElectrons: 432.000000
SCF: Cycle:  6   F: -1818.487775558518933   dF: -2.370e-03   |Residual|: 4.082e-02   |deigs|: 5.886e-04  t[s]:   8916.95
	FillingsUpdate:  mu: +0.451390819  nElectrons: 432.000000
SCF: Cycle:  7   F: -1818.493290090340224   dF: -5.515e-03   |Residual|: 1.818e-02   |deigs|: 3.568e-04  t[s]:   9012.76
	FillingsUpdate:  mu: +0.451380606  nElectrons: 432.000000
SCF: Cycle:  8   F: -1818.494334441546243   dF: -1.044e-03   |Residual|: 6.579e-03   |deigs|: 1.662e-04  t[s]:   9102.96
	FillingsUpdate:  mu: +0.451387224  nElectrons: 432.000000
SCF: Cycle:  9   F: -1818.494375196482224   dF: -4.075e-05   |Residual|: 3.351e-03   |deigs|: 6.295e-05  t[s]:   9194.87
	FillingsUpdate:  mu: +0.451390483  nElectrons: 432.000000
SCF: Cycle: 10   F: -1818.494387952937132   dF: -1.276e-05   |Residual|: 2.587e-03   |deigs|: 5.420e-05  t[s]:   9286.13
	FillingsUpdate:  mu: +0.451393332  nElectrons: 432.000000
SCF: Cycle: 11   F: -1818.494408589587920   dF: -2.064e-05   |Residual|: 1.506e-03   |deigs|: 4.000e-05  t[s]:   9378.29
	FillingsUpdate:  mu: +0.451392918  nElectrons: 432.000000
SCF: Cycle: 12   F: -1818.494411158045295   dF: -2.568e-06   |Residual|: 1.142e-03   |deigs|: 2.386e-05  t[s]:   9469.55
	FillingsUpdate:  mu: +0.451392672  nElectrons: 432.000000
SCF: Cycle: 13   F: -1818.494414956853916   dF: -3.799e-06   |Residual|: 4.237e-04   |deigs|: 1.688e-05  t[s]:   9557.64
	FillingsUpdate:  mu: +0.451392049  nElectrons: 432.000000
SCF: Cycle: 14   F: -1818.494414831921404   dF: +1.249e-07   |Residual|: 4.468e-04   |deigs|: 1.035e-05  t[s]:   9648.82
	FillingsUpdate:  mu: +0.451391736  nElectrons: 432.000000
SCF: Cycle: 15   F: -1818.494415724067039   dF: -8.921e-07   |Residual|: 1.818e-04   |deigs|: 7.249e-06  t[s]:   9741.71
	FillingsUpdate:  mu: +0.451391590  nElectrons: 432.000000
SCF: Cycle: 16   F: -1818.494415808049325   dF: -8.398e-08   |Residual|: 9.957e-05   |deigs|: 2.329e-06  t[s]:   9830.89
	FillingsUpdate:  mu: +0.451391460  nElectrons: 432.000000
SCF: Cycle: 17   F: -1818.494415804082337   dF: +3.967e-09   |Residual|: 7.696e-05   |deigs|: 1.825e-06  t[s]:   9923.05
	FillingsUpdate:  mu: +0.451391398  nElectrons: 432.000000
SCF: Cycle: 18   F: -1818.494415821598068   dF: -1.752e-08   |Residual|: 5.301e-05   |deigs|: 1.282e-06  t[s]:  10013.55
	FillingsUpdate:  mu: +0.451391350  nElectrons: 432.000000
SCF: Cycle: 19   F: -1818.494415832104778   dF: -1.051e-08   |Residual|: 1.081e-05   |deigs|: 7.883e-07  t[s]:  10108.17
	FillingsUpdate:  mu: +0.451391356  nElectrons: 432.000000
SCF: Cycle: 20   F: -1818.494415832378991   dF: -2.742e-10   |Residual|: 7.597e-06   |deigs|: 2.284e-07  t[s]:  10199.62
	FillingsUpdate:  mu: +0.451391359  nElectrons: 432.000000
SCF: Cycle: 21   F: -1818.494415832359209   dF: +1.978e-11   |Residual|: 4.948e-06   |deigs|: 1.876e-07  t[s]:  10277.79
	FillingsUpdate:  mu: +0.451391358  nElectrons: 432.000000
SCF: Cycle: 22   F: -1818.494415832333516   dF: +2.569e-11   |Residual|: 4.134e-06   |deigs|: 1.524e-07  t[s]:  10344.17
	FillingsUpdate:  mu: +0.451391356  nElectrons: 432.000000
SCF: Cycle: 23   F: -1818.494415832503137   dF: -1.696e-10   |Residual|: 1.231e-06   |deigs|: 1.051e-07  t[s]:  10405.00
	FillingsUpdate:  mu: +0.451391353  nElectrons: 432.000000
SCF: Cycle: 24   F: -1818.494415832465847   dF: +3.729e-11   |Residual|: 9.289e-07   |deigs|: 8.448e-08  t[s]:  10464.71
	FillingsUpdate:  mu: +0.451391353  nElectrons: 432.000000
SCF: Cycle: 25   F: -1818.494415832375353   dF: +9.049e-11   |Residual|: 6.938e-07   |deigs|: 8.035e-08  t[s]:  10524.38
	FillingsUpdate:  mu: +0.451391352  nElectrons: 432.000000
SCF: Cycle: 26   F: -1818.494415832351933   dF: +2.342e-11   |Residual|: 4.502e-07   |deigs|: 8.022e-08  t[s]:  10585.40
	FillingsUpdate:  mu: +0.451391352  nElectrons: 432.000000
SCF: Cycle: 27   F: -1818.494415832449704   dF: -9.777e-11   |Residual|: 2.107e-07   |deigs|: 7.974e-08  t[s]:  10642.91
	FillingsUpdate:  mu: +0.451391352  nElectrons: 432.000000
SCF: Cycle: 28   F: -1818.494415832409004   dF: +4.070e-11   |Residual|: 1.675e-07   |deigs|: 7.852e-08  t[s]:  10700.03
	FillingsUpdate:  mu: +0.451391351  nElectrons: 432.000000
SCF: Cycle: 29   F: -1818.494415832351251   dF: +5.775e-11   |Residual|: 7.379e-08   |deigs|: 7.873e-08  t[s]:  10759.37
	FillingsUpdate:  mu: +0.451391351  nElectrons: 432.000000
SCF: Cycle: 30   F: -1818.494415832399454   dF: -4.820e-11   |Residual|: 7.147e-08   |deigs|: 7.887e-08  t[s]:  10815.34
SCF: Converged (|Residual|<1.000000e-07 for 2 iters).

Setting wave functions to eigenvectors of Hamiltonian

# Ionic positions in lattice coordinates:
ion Rh   0.000000000000000   0.000000000000000   0.000000000000000 0
ion Rh   0.256553118759339   0.269507076431481   0.257751498775120 1
ion Rh  -0.005103678073183   0.004303182406537   0.511093247527596 1
ion Rh   0.245712269675975   0.243770217411982   0.750210047127875 1
ion Rh  -0.002655918967331   0.500576940079464  -0.004326590575922 1
ion Rh   0.248838867728593   0.749274284072308   0.247943914208745 1
ion Rh  -0.005417821793173   0.498706663596612   0.497484275775302 1
ion Rh   0.250312672267989   0.753081804233189   0.756065063703182 1
ion Rh   0.498839080193787   0.001427644463450   0.014034213121621 1
ion Rh   0.755828921621358   0.244433496355109   0.249752459995118 1
ion Rh   0.496138480342065   0.002296081296662   0.508884625181839 1
ion Rh   0.748788412924823   0.245610825715275   0.743882750406478 1
ion Rh   0.496415324828440   0.497317400322225  -0.001660255274190 1
ion Rh   0.749772325429663   0.746800721970506   0.250828580976659 1
ion Rh   0.501366960609982   0.508759061467960   0.501127016098086 1
ion Rh   0.744272643329206   0.752747923879354   0.749278049157392 1
ion O   0.152435945184527   0.145917551572526   0.006255523188002 1
ion O   0.101085782362581   0.401027275243765   0.255932490440517 1
ion O   0.394238470067865   0.094243357563901   0.253629224470144 1
ion O   0.345462671216559   0.340016025065529   0.002836898383972 1
ion O   0.151255658904139   0.159175282820345   0.504018151368227 1
ion O   0.094277087689809   0.407614037237345   0.747998342521599 1
ion O   0.399255837947069   0.095839780828088   0.764705826460325 1
ion O   0.355393510586517   0.352751265374297   0.497442918257805 1
ion O   0.165516253953029   0.647418743708501   0.004707630601494 1
ion O   0.097925904073446   0.907806829851398   0.239852975250395 1
ion O   0.399923544900373   0.600232097733713   0.245912339537920 1
ion O   0.346955090968416   0.841142070122668  -0.002403137650906 1
ion O   0.141784099551016   0.660118949992473   0.514883875444025 1
ion O   0.104240243029340   0.910647938040434   0.761090794874168 1
ion O   0.410387377022734   0.604421778233115   0.746370248813873 1
ion O   0.333010416426367   0.862354355867078   0.508970196439296 1
ion O   0.650527545041677   0.151025418557686   0.000710104449231 1
ion O   0.589882173820506   0.404205081029510   0.253345000615929 1
ion O   0.905508451294472   0.099315877520818   0.248117737572450 1
ion O   0.842882452337637   0.338929868454479  -0.008423833756364 1
ion O   0.660778695334818   0.151576345362406   0.508343270148204 1
ion O   0.589012476813931   0.396892274689563   0.755281903523293 1
ion O   0.907032113355308   0.099375462008542   0.753334559188470 1
ion O   0.838356838300431   0.357466474887811   0.496519693657336 1
ion O   0.645215434895216   0.657944826083740   0.010351948857789 1
ion O   0.594265910107305   0.895801926941778   0.258224942966039 1
ion O   0.891551096131399   0.590407453111069   0.241680516337818 1
ion O   0.847748986032086   0.861474795814178   0.002444998835134 1
ion O   0.649632095189232   0.657631368353166   0.501619555512186 1
ion O   0.590518636921777   0.903633053841461   0.760823081411213 1
ion O   0.902700863212435   0.592713061788924   0.751407424502161 1
ion O   0.842516856751850   0.845473641342452   0.500928967466346 1

# Forces in Lattice coordinates:
force Rh   0.253090386410472   0.298719433412399   0.185821692153398 0
force Rh  -0.357230262163925  -1.595956589031787  -0.141606047702375 1
force Rh   0.522619160818003  -0.364850957870331  -0.549403352696558 1
force Rh   0.113473712085808   0.451002431742295   0.265927209102115 1
force Rh   0.168814212249021  -0.264235503612912   0.189793802514414 1
force Rh  -0.167677617316162   0.370906088976664   0.369035387937899 1
force Rh   0.307801162274949   0.233586956962278   0.132959652737092 1
force Rh  -0.065831459256855  -0.186282166171876  -0.212743363802263 1
force Rh  -0.131837005567129  -0.269913955027460  -0.201991223401911 1
force Rh  -0.649501959052536   0.483804716541384  -0.077731146599400 1
force Rh   0.117785566014437  -0.061717341078571   0.011589429666582 1
force Rh   0.017079802959169   0.424445955679417   0.393426746234486 1
force Rh   0.012673355114719   0.171588198257645   0.192026643246938 1
force Rh  -0.026674298888179   0.405387749766046  -0.016171141083523 1
force Rh  -0.051356807391426  -0.392646601901988  -0.123311742584124 1
force Rh   0.297156866891943   0.010895388995233   0.330853663904181 1
force O   0.322105401808446   0.541218856503621  -0.045544878951328 1
force O  -0.640330697945207   0.634933220239036  -0.136534119686589 1
force O   0.143491919171724   0.152297171024491   0.151414277865958 1
force O   0.274050884077285   0.419970406473758  -0.205213208952558 1
force O  -0.040675009900197  -0.043867979887442  -0.076609758449733 1
force O   0.177784748755080  -0.239909616783835  -0.043470678056961 1
force O   0.096863854878941  -0.013924231070192  -0.159943354216104 1
force O  -0.158252859284135  -0.078180973676500   0.281542167178028 1
force O  -0.427033234485976  -0.252911008464316  -0.126676707799479 1
force O  -0.037354986237880  -0.149054472219542   0.336997491870690 1
force O   0.169431041357355  -0.159284524226239   0.153842433170563 1
force O   0.251761461302840   0.287447510352121   0.249650104462354 1
force O   0.208195894678296   0.041261422372550  -0.320236721434530 1
force O  -0.243010428554570  -0.000943989014518  -0.138500774225995 1
force O  -0.201366462388385   0.031835553647272   0.105807041402104 1
force O   0.040417609802166  -0.248000389995537  -0.177675161321843 1
force O   0.151574075994113   0.048264234127519   0.086395453462635 1
force O   0.272819639212560  -0.201973146052655  -0.078992606242882 1
force O   0.116295110352855  -0.141441349785003   0.186408996390830 1
force O   0.261786417459531   0.313399564079420   0.128848879730088 1
force O  -0.378426662918771  -0.352810461304856  -0.380350947282105 1
force O   0.114646151802510   0.057554669877452  -0.171583988040257 1
force O  -0.200304663623464   0.133250624223339   0.002692798059726 1
force O  -0.126403255957815  -0.398308845220529   0.001916679369994 1
force O   0.088228234355617  -0.060671997107391  -0.288524670321262 1
force O  -0.222664095137253   0.352422626165722   0.059014200395585 1
force O   0.329742701767251  -0.097651355108676   0.082277665895392 1
force O  -0.679312776983445  -0.818745902993217  -0.072147389749777 1
force O   0.129251117415988   0.008366277143621  -0.009859333135763 1
force O   0.046977663271890   0.017176049431566  -0.113768273610914 1
force O  -0.383934351205019   0.363656756726866  -0.076285166255278 1
force O   0.188066678738166   0.136835157901973   0.048007628344856 1

# Energy components:
   Eewald =    -1416.9203590919378257
       EH =      409.9490412808376618
     Eloc =    -1139.8534932319664676
      Enl =     -102.5586392574988253
      Exc =     -351.8484445953265549
 Exc_core =       65.6368389786062352
       KE =      717.3240086834159683
-------------------------------------
     Etot =    -1818.2710472338696945
       TS =        0.2233685985297024
-------------------------------------
        F =    -1818.4944158323994543

IonicMinimize: Iter:   3  F: -1818.494415832399454  |grad|_K:  1.871e-02  alpha:  2.262e-01  linmin: -9.537e-01  t[s]:  10838.25

#--- Lowdin population analysis ---
# oxidation-state Rh +0.514 +0.498 +0.457 +0.464 +0.461 +0.471 +0.473 +0.488 +0.481 +0.467 +0.458 +0.484 +0.473 +0.483 +0.483 +0.454
# oxidation-state O -0.234 -0.206 -0.227 -0.203 -0.219 -0.222 -0.204 -0.206 -0.213 -0.231 -0.215 -0.204 -0.242 -0.214 -0.220 -0.222 -0.216 -0.241 -0.203 -0.224 -0.210 -0.226 -0.202 -0.211 -0.222 -0.225 -0.216 -0.229 -0.195 -0.212 -0.212 -0.216


-------- Electronic minimization -----------
Will mix electronic density at each iteration.
	FillingsUpdate:  mu: +0.451391351  nElectrons: 432.000000
	FillingsUpdate:  mu: +0.453413241  nElectrons: 432.000000
SCF: Cycle:  0   F: -1815.911411057945088   dF: +1.472e+00   |Residual|: 8.880e-01   |deigs|: 3.972e-03  t[s]:  11049.19
	FillingsUpdate:  mu: +0.457626678  nElectrons: 432.000000
SCF: Cycle:  1   F: -1813.293100560038056   dF: +2.618e+00   |Residual|: 1.172e+00   |deigs|: 1.387e-02  t[s]:  11206.02
	FillingsUpdate:  mu: +0.451974076  nElectrons: 432.000000
SCF: Cycle:  2   F: -1817.852752601608472   dF: -4.560e+00   |Residual|: 3.911e-01   |deigs|: 1.589e-02  t[s]:  11360.41
	FillingsUpdate:  mu: +0.451566563  nElectrons: 432.000000
SCF: Cycle:  3   F: -1818.072546722876723   dF: -2.198e-01   |Residual|: 3.210e-01   |deigs|: 2.457e-03  t[s]:  11513.27
	FillingsUpdate:  mu: +0.451111244  nElectrons: 432.000000
SCF: Cycle:  4   F: -1818.446370211227759   dF: -3.738e-01   |Residual|: 1.407e-01   |deigs|: 2.155e-03  t[s]:  11669.10
	FillingsUpdate:  mu: +0.451014448  nElectrons: 432.000000
SCF: Cycle:  5   F: -1818.525849263031887   dF: -7.948e-02   |Residual|: 4.595e-02   |deigs|: 1.858e-03  t[s]:  11823.21
	FillingsUpdate:  mu: +0.450963550  nElectrons: 432.000000
SCF: Cycle:  6   F: -1818.525696586151071   dF: +1.527e-04   |Residual|: 3.888e-02   |deigs|: 4.552e-04  t[s]:  11915.65
	FillingsUpdate:  mu: +0.450943735  nElectrons: 432.000000
SCF: Cycle:  7   F: -1818.530701060511092   dF: -5.004e-03   |Residual|: 1.602e-02   |deigs|: 3.040e-04  t[s]:  12008.71
	FillingsUpdate:  mu: +0.450942424  nElectrons: 432.000000
SCF: Cycle:  8   F: -1818.531526929596566   dF: -8.259e-04   |Residual|: 5.948e-03   |deigs|: 1.711e-04  t[s]:  12099.23
	FillingsUpdate:  mu: +0.450954554  nElectrons: 432.000000
SCF: Cycle:  9   F: -1818.531565289626769   dF: -3.836e-05   |Residual|: 3.065e-03   |deigs|: 5.577e-05  t[s]:  12190.12
	FillingsUpdate:  mu: +0.450958297  nElectrons: 432.000000
SCF: Cycle: 10   F: -1818.531572601316157   dF: -7.312e-06   |Residual|: 2.497e-03   |deigs|: 5.371e-05  t[s]:  12281.43
	FillingsUpdate:  mu: +0.450960890  nElectrons: 432.000000
SCF: Cycle: 11   F: -1818.531592149728340   dF: -1.955e-05   |Residual|: 1.391e-03   |deigs|: 3.829e-05  t[s]:  12375.37
	FillingsUpdate:  mu: +0.450960253  nElectrons: 432.000000
SCF: Cycle: 12   F: -1818.531594809750231   dF: -2.660e-06   |Residual|: 1.019e-03   |deigs|: 2.157e-05  t[s]:  12464.66
	FillingsUpdate:  mu: +0.450959855  nElectrons: 432.000000
SCF: Cycle: 13   F: -1818.531598377509908   dF: -3.568e-06   |Residual|: 3.264e-04   |deigs|: 1.509e-05  t[s]:  12559.66
	FillingsUpdate:  mu: +0.450958994  nElectrons: 432.000000
SCF: Cycle: 14   F: -1818.531598400932808   dF: -2.342e-08   |Residual|: 3.115e-04   |deigs|: 7.265e-06  t[s]:  12654.91
	FillingsUpdate:  mu: +0.450958641  nElectrons: 432.000000
SCF: Cycle: 15   F: -1818.531598745470546   dF: -3.445e-07   |Residual|: 1.580e-04   |deigs|: 5.642e-06  t[s]:  12743.51
	FillingsUpdate:  mu: +0.450958432  nElectrons: 432.000000
SCF: Cycle: 16   F: -1818.531598829056065   dF: -8.359e-08   |Residual|: 7.401e-05   |deigs|: 2.205e-06  t[s]:  12837.02
	FillingsUpdate:  mu: +0.450958278  nElectrons: 432.000000
SCF: Cycle: 17   F: -1818.531598831192014   dF: -2.136e-09   |Residual|: 4.999e-05   |deigs|: 8.317e-07  t[s]:  12923.52
	FillingsUpdate:  mu: +0.450958245  nElectrons: 432.000000
SCF: Cycle: 18   F: -1818.531598839933849   dF: -8.742e-09   |Residual|: 2.051e-05   |deigs|: 7.875e-07  t[s]:  13013.96
SCF: Converged (|Delta E|<1.000000e-08 for 2 iters).

Setting wave functions to eigenvectors of Hamiltonian

# Ionic positions in lattice coordinates:
ion Rh   0.000000000000000   0.000000000000000   0.000000000000000 0
ion Rh   0.254006177273475   0.264271968572091   0.256333506194541 1
ion Rh  -0.003471888904062   0.003432165744600   0.507981752796561 1
ion Rh   0.246820826903179   0.245944906937480   0.751004719462731 1
ion Rh  -0.002174268763144   0.499930609547705  -0.003364158892625 1
ion Rh   0.248394896646514   0.749856473985208   0.249858982671307 1
ion Rh  -0.004860538204996   0.499346802845096   0.498141403384257 1
ion Rh   0.250054875850231   0.752728420349916   0.755315249986129 1
ion Rh   0.498265836168108   0.000879636602697   0.012490718973168 1
ion Rh   0.753800442821175   0.245857268494576   0.249669425925682 1
ion Rh   0.496416807803741   0.002051567323900   0.508534289200232 1
ion Rh   0.748405341962261   0.246537167020762   0.745080099236868 1
ion Rh   0.496699418218062   0.498040269470182  -0.000841719920728 1
ion Rh   0.749620829698737   0.748010785667086   0.251069315760847 1
ion Rh   0.501214437741374   0.507212125238952   0.500763053449975 1
ion Rh   0.745315234597802   0.752703420894237   0.750829269724714 1
ion O   0.153348905946407   0.147984735701693   0.006422643397354 1
ion O   0.100254711368279   0.402540365307148   0.254688406467895 1
ion O   0.395364037713677   0.094629363479122   0.254718840996761 1
ion O   0.345785456489462   0.341404166997086   0.002769025563619 1
ion O   0.151486686509083   0.159237280185646   0.503637807923227 1
ion O   0.094883101920386   0.406738612725371   0.748053931144164 1
ion O   0.399567457415457   0.095956572778273   0.763088685467761 1
ion O   0.353303853494619   0.351440944482038   0.498640069385258 1
ion O   0.163951652055080   0.647051791714205   0.004376110006854 1
ion O   0.097355666532518   0.907424064396793   0.242786904494617 1
ion O   0.400391118895370   0.599871046885862   0.247617655604169 1
ion O   0.347323192570031   0.841903969628597  -0.000555716700681 1
ion O   0.142819612903501   0.660287897112728   0.511862542565563 1
ion O   0.103220497695057   0.910259543763740   0.759353851940991 1
ion O   0.409643169616773   0.604179321001244   0.746935858984722 1
ion O   0.333402392756840   0.861115159386517   0.507537777603772 1
ion O   0.650994748984022   0.151026831420503   0.001298275640566 1
ion O   0.591092739849961   0.403365496056804   0.252485421831944 1
ion O   0.905283489780261   0.099264367870269   0.249205919172720 1
ion O   0.843901670956183   0.340319397953960  -0.007039452617297 1
ion O   0.659677693681415   0.150857239957456   0.506808766201928 1
ion O   0.589430643807781   0.397560886771966   0.754151733986427 1
ion O   0.906687371065660   0.099316073097505   0.752184980507341 1
ion O   0.838437420893463   0.356032157447873   0.497057596840369 1
ion O   0.645957781961723   0.657825148251603   0.008237058872729 1
ion O   0.593464579411218   0.897274650832907   0.258533917844574 1
ion O   0.892760467740413   0.590591812485389   0.242815372711170 1
ion O   0.846166132591900   0.858897655141955   0.001905684459432 1
ion O   0.650240848348364   0.657571809157155   0.501820166600994 1
ion O   0.590928846063318   0.903559342519364   0.759780847951636 1
ion O   0.901707944702258   0.593731180389213   0.751647225146964 1
ion O   0.843442265426137   0.846059474899841   0.501460401937318 1

# Forces in Lattice coordinates:
force Rh   0.160567845277370   0.267364319385369   0.163580660230377 0
force Rh  -0.257807876768244  -1.152051452492409  -0.101882602190456 1
force Rh   0.375918647495260  -0.247180818463165  -0.386169266424818 1
force Rh   0.098200774213230   0.345492419285440   0.183487701569293 1
force Rh   0.122221926521302  -0.177773287496744   0.138027807682127 1
force Rh  -0.117022205905893   0.254661059097721   0.254668939401017 1
force Rh   0.224673037729542   0.169923136034192   0.098188332583872 1
force Rh  -0.053987727980248  -0.139716337948589  -0.142000093732195 1
force Rh  -0.090820615598343  -0.188680496915194  -0.153636648858178 1
force Rh  -0.468637587397128   0.352045755037813  -0.054436580290371 1
force Rh   0.084278481488372  -0.051428002850999   0.002534999083897 1
force Rh   0.025127847000539   0.309342694828019   0.302337795126074 1
force Rh   0.019908205216480   0.137567526285280   0.134936727255784 1
force Rh  -0.028510247330894   0.298650596075947  -0.005492015507366 1
force Rh  -0.049527042765076  -0.311506706066253  -0.076014247050177 1
force Rh   0.217679371041699   0.003515489973684   0.224915687532757 1
force O   0.215375579693053   0.401491757121860  -0.043308803288328 1
force O  -0.468754885436035   0.461019535669574  -0.103236276444438 1
force O   0.133010994056493   0.108475084535215   0.103610326973513 1
force O   0.181594184407027   0.311504508749154  -0.139089339603097 1
force O  -0.032041691220019  -0.048628957944335  -0.059988596310399 1
force O   0.122342960335680  -0.165400092177956  -0.025523738505106 1
force O   0.076559849740741  -0.000618932472987  -0.130972604243232 1
force O  -0.157864654054033  -0.082450156798806   0.199747723122738 1
force O  -0.335520448955513  -0.154845282877556  -0.092338721426768 1
force O  -0.037607685245918  -0.120178802252809   0.250443757533833 1
force O   0.132985542394520  -0.120498759016145   0.124048478814188 1
force O   0.156457069730168   0.205943602267854   0.184018795704530 1
force O   0.165270949203240   0.014737551571999  -0.244690888295893 1
force O  -0.194681024115392  -0.024549437947768  -0.114455512624423 1
force O  -0.161932658779397   0.000054370235279   0.077934172830338 1
force O   0.055869836413150  -0.210297685754396  -0.129849477800990 1
force O   0.115666584678728   0.035066583713966   0.056096229464418 1
force O   0.200063376671167  -0.141053706829930  -0.059859377592946 1
force O   0.069669669384347  -0.100456778043993   0.125816096912136 1
force O   0.180789398375119   0.235506135147604   0.103445192412908 1
force O  -0.297704490133417  -0.250593064730003  -0.279047200124624 1
force O   0.096298107049554   0.061664283413956  -0.125552369962104 1
force O  -0.144316038784521   0.086053927311899  -0.005649887644856 1
force O  -0.065251649337207  -0.304701487158742   0.011585766100904 1
force O   0.085533819386978  -0.048981634159596  -0.209318457130404 1
force O  -0.154916534957640   0.269224071393647   0.032809819581775 1
force O   0.255421922129473  -0.038947717061850   0.075764017042348 1
force O  -0.472547218353144  -0.608088393108921  -0.047747010881792 1
force O   0.091112709530520  -0.019814495401206  -0.006276002212245 1
force O   0.041868478810066   0.013437410480626  -0.091348421454654 1
force O  -0.262718118176054   0.259408637556247  -0.050391448103151 1
force O   0.151645573772357   0.102840581030209   0.032940810881440 1

# Energy components:
   Eewald =    -1417.6034887507198619
       EH =      409.3049808966504202
     Eloc =    -1138.4479911537932821
      Enl =     -102.5733205373666266
      Exc =     -351.8130094686038092
 Exc_core =       65.6368276971931266
       KE =      717.1857709512211159
-------------------------------------
     Etot =    -1818.3102303654191019
       TS =        0.2213684745146360
-------------------------------------
        F =    -1818.5315988399338494

IonicMinimize: Iter:   4  F: -1818.531598839933849  |grad|_K:  1.363e-02  alpha:  2.552e-01  linmin: -9.249e-01  t[s]:  13038.49

#--- Lowdin population analysis ---
# oxidation-state Rh +0.504 +0.492 +0.461 +0.468 +0.465 +0.472 +0.473 +0.485 +0.481 +0.470 +0.464 +0.482 +0.474 +0.481 +0.482 +0.460
# oxidation-state O -0.232 -0.209 -0.224 -0.206 -0.219 -0.220 -0.207 -0.213 -0.216 -0.226 -0.215 -0.207 -0.236 -0.213 -0.219 -0.220 -0.217 -0.235 -0.208 -0.223 -0.211 -0.224 -0.207 -0.212 -0.221 -0.223 -0.217 -0.226 -0.200 -0.213 -0.215 -0.217


-------- Electronic minimization -----------
Will mix electronic density at each iteration.
	FillingsUpdate:  mu: +0.450958245  nElectrons: 432.000000
	FillingsUpdate:  mu: +0.452823589  nElectrons: 432.000000
SCF: Cycle:  0   F: -1815.991788253389132   dF: +1.335e+00   |Residual|: 8.974e-01   |deigs|: 4.129e-03  t[s]:  13259.13
	FillingsUpdate:  mu: +0.457149626  nElectrons: 432.000000
SCF: Cycle:  1   F: -1813.461519576297860   dF: +2.530e+00   |Residual|: 1.164e+00   |deigs|: 1.317e-02  t[s]:  13416.27
	FillingsUpdate:  mu: +0.451716707  nElectrons: 432.000000
SCF: Cycle:  2   F: -1817.874932201229058   dF: -4.413e+00   |Residual|: 3.914e-01   |deigs|: 1.518e-02  t[s]:  13568.89
	FillingsUpdate:  mu: +0.451321590  nElectrons: 432.000000
SCF: Cycle:  3   F: -1818.063917360485675   dF: -1.890e-01   |Residual|: 3.331e-01   |deigs|: 1.944e-03  t[s]:  13722.89
	FillingsUpdate:  mu: +0.450890911  nElectrons: 432.000000
SCF: Cycle:  4   F: -1818.475656081084026   dF: -4.117e-01   |Residual|: 1.385e-01   |deigs|: 2.574e-03  t[s]:  13879.96
	FillingsUpdate:  mu: +0.450782475  nElectrons: 432.000000
SCF: Cycle:  5   F: -1818.553344296956539   dF: -7.769e-02   |Residual|: 4.520e-02   |deigs|: 1.774e-03  t[s]:  14033.81
	FillingsUpdate:  mu: +0.450713321  nElectrons: 432.000000
SCF: Cycle:  6   F: -1818.552542484060950   dF: +8.018e-04   |Residual|: 3.913e-02   |deigs|: 3.955e-04  t[s]:  14125.97
	FillingsUpdate:  mu: +0.450689641  nElectrons: 432.000000
SCF: Cycle:  7   F: -1818.557827436741945   dF: -5.285e-03   |Residual|: 1.490e-02   |deigs|: 2.948e-04  t[s]:  14216.76
	FillingsUpdate:  mu: +0.450695087  nElectrons: 432.000000
SCF: Cycle:  8   F: -1818.558526741839614   dF: -6.993e-04   |Residual|: 6.188e-03   |deigs|: 1.441e-04  t[s]:  14307.31
	FillingsUpdate:  mu: +0.450710028  nElectrons: 432.000000
SCF: Cycle:  9   F: -1818.558567647386781   dF: -4.091e-05   |Residual|: 3.207e-03   |deigs|: 5.478e-05  t[s]:  14396.65
	FillingsUpdate:  mu: +0.450714018  nElectrons: 432.000000
SCF: Cycle: 10   F: -1818.558581734896734   dF: -1.409e-05   |Residual|: 2.609e-03   |deigs|: 5.236e-05  t[s]:  14488.33
	FillingsUpdate:  mu: +0.450716443  nElectrons: 432.000000
SCF: Cycle: 11   F: -1818.558605127805549   dF: -2.339e-05   |Residual|: 1.294e-03   |deigs|: 3.443e-05  t[s]:  14585.29
	FillingsUpdate:  mu: +0.450715439  nElectrons: 432.000000
SCF: Cycle: 12   F: -1818.558607494270518   dF: -2.366e-06   |Residual|: 9.258e-04   |deigs|: 1.833e-05  t[s]:  14678.48
[...]
     Etot =    -1818.3648258326879841
       TS =        0.2177598992620659
-------------------------------------
        F =    -1818.5825857319500756

IonicMinimize: Iter:  15  F: -1818.582585731950076  |grad|_K:  3.772e-04  alpha:  1.000e+00  linmin:  1.719e-01  t[s]:  32060.79

#--- Lowdin population analysis ---
# oxidation-state Rh +0.477 +0.477 +0.477 +0.477 +0.476 +0.477 +0.476 +0.477 +0.477 +0.477 +0.477 +0.477 +0.477 +0.477 +0.476 +0.477
# oxidation-state O -0.217 -0.218 -0.218 -0.218 -0.218 -0.218 -0.218 -0.218 -0.218 -0.218 -0.218 -0.219 -0.218 -0.217 -0.218 -0.218 -0.218 -0.218 -0.220 -0.218 -0.218 -0.218 -0.218 -0.217 -0.218 -0.218 -0.218 -0.218 -0.218 -0.218 -0.218 -0.218


-------- Electronic minimization -----------
Will mix electronic density at each iteration.
	FillingsUpdate:  mu: +0.450818208  nElectrons: 432.000000
	FillingsUpdate:  mu: +0.450818468  nElectrons: 432.000000
SCF: Cycle:  0   F: -1818.582396563827842   dF: +1.942e-04   |Residual|: 5.089e-03   |deigs|: 2.445e-07  t[s]:  32216.46
	FillingsUpdate:  mu: +0.450818893  nElectrons: 432.000000
SCF: Cycle:  1   F: -1818.581585553186642   dF: +8.110e-04   |Residual|: 1.290e-02   |deigs|: 9.733e-05  t[s]:  32304.53
	FillingsUpdate:  mu: +0.450818399  nElectrons: 432.000000
SCF: Cycle:  2   F: -1818.582602381637798   dF: -1.017e-03   |Residual|: 1.146e-03   |deigs|: 1.296e-04  t[s]:  32397.54
	FillingsUpdate:  mu: +0.450818320  nElectrons: 432.000000
SCF: Cycle:  3   F: -1818.582606064101810   dF: -3.682e-06   |Residual|: 4.341e-04   |deigs|: 7.111e-06  t[s]:  32487.80
	FillingsUpdate:  mu: +0.450818266  nElectrons: 432.000000
SCF: Cycle:  4   F: -1818.582605632523610   dF: +4.316e-07   |Residual|: 4.562e-04   |deigs|: 3.508e-06  t[s]:  32579.26
	FillingsUpdate:  mu: +0.450818252  nElectrons: 432.000000
SCF: Cycle:  5   F: -1818.582606426237362   dF: -7.937e-07   |Residual|: 1.171e-04   |deigs|: 2.699e-06  t[s]:  32669.06
	FillingsUpdate:  mu: +0.450818247  nElectrons: 432.000000
SCF: Cycle:  6   F: -1818.582606441305870   dF: -1.507e-08   |Residual|: 7.576e-05   |deigs|: 8.573e-07  t[s]:  32760.75
	FillingsUpdate:  mu: +0.450818262  nElectrons: 432.000000
SCF: Cycle:  7   F: -1818.582606449409468   dF: -8.104e-09   |Residual|: 2.900e-05   |deigs|: 5.541e-07  t[s]:  32851.19
	FillingsUpdate:  mu: +0.450818265  nElectrons: 432.000000
SCF: Cycle:  8   F: -1818.582606450002686   dF: -5.932e-10   |Residual|: 2.342e-05   |deigs|: 4.561e-07  t[s]:  32942.84
SCF: Converged (|Delta E|<1.000000e-08 for 2 iters).

Setting wave functions to eigenvectors of Hamiltonian

# Ionic positions in lattice coordinates:
ion Rh   0.000000000000000   0.000000000000000   0.000000000000000 0
ion Rh   0.248599485434333   0.250644699788620   0.251816916921854 1
ion Rh  -0.001018296646618   0.000417036649695   0.500721901443606 1
ion Rh   0.248676681087496   0.250734207018110   0.751761111022322 1
ion Rh  -0.001459470942487   0.500565362032937   0.002105749179278 1
ion Rh   0.248884636660840   0.750299722108415   0.251826820662460 1
ion Rh  -0.001403674741597   0.500538442892558   0.502090078919478 1
ion Rh   0.249018956187640   0.750183702048068   0.751713680687704 1
ion Rh   0.498496127174757   0.000661710928090   0.001904666692231 1
ion Rh   0.748997970152882   0.250220992111021   0.251855084828614 1
ion Rh   0.498632633772103   0.000642508535172   0.501882022981475 1
ion Rh   0.748946299077433   0.250256797066293   0.751931297783602 1
ion Rh   0.498939747915451   0.500359780081500   0.002102803345809 1
ion Rh   0.748668741923563   0.750782028468152   0.251759141742700 1
ion Rh   0.498906217905059   0.500354251831870   0.502027735402733 1
ion Rh   0.748661712149756   0.750740576397862   0.751811902682621 1
ion O   0.152711161067252   0.153647829275863   0.001281950116896 1
ion O   0.094910125513220   0.403715280181136   0.252029971783965 1
ion O   0.402307272037892   0.097556768071258   0.251954513793938 1
ion O   0.344780782988244   0.347660922566065   0.001968230705509 1
ion O   0.152421453972992   0.153724763360926   0.501634773007520 1
ion O   0.094804983819878   0.403643563401331   0.752105049349053 1
ion O   0.402305510376318   0.097556535121968   0.751782293943910 1
ion O   0.344714863823033   0.347651223287407   0.501788545380502 1
ion O   0.152203628026317   0.653768395180094   0.001831259146974 1
ion O   0.095595749149536   0.903585878075572   0.251029405711555 1
ion O   0.402457638072905   0.597093655868468   0.252027317779854 1
ion O   0.344797005684058   0.847540886490771   0.001823031275003 1
ion O   0.152570967794734   0.653448545782038   0.501855100348489 1
ion O   0.095676009374307   0.903435087157730   0.750437194549982 1
ion O   0.402579171110605   0.597080719321977   0.752183617336491 1
ion O   0.345346118785055   0.847080190452698   0.501783875278048 1
ion O   0.652393884527541   0.153563467475137   0.001880046054174 1
ion O   0.595270318706931   0.403502159489102   0.252131520266796 1
ion O   0.902938556845048   0.097078701531471   0.250534939023175 1
ion O   0.845137232878971   0.347150910598519   0.001987142968177 1
ion O   0.652641348950281   0.153428875660102   0.501883613049924 1
ion O   0.595205095463498   0.403396513708198   0.752082300220602 1
ion O   0.902835994274781   0.097082303427421   0.751027542688016 1
ion O   0.845155091692010   0.347160015407969   0.501948882488671 1
ion O   0.652379879612448   0.653830877935469   0.001890425098061 1
ion O   0.594812973178714   0.903784661282429   0.251747071571063 1
ion O   0.902107497724829   0.597331097286530   0.252158874092679 1
ion O   0.845327861518164   0.847483623130900   0.001449541338751 1
ion O   0.652196634187237   0.653966490281315   0.501869965490150 1
ion O   0.594752898882337   0.903700651675671   0.751959683484574 1
ion O   0.902132238764025   0.597347291070654   0.752025309386749 1
ion O   0.844862436167071   0.847753200312685   0.501567576724944 1

# Forces in Lattice coordinates:
force Rh  -0.061346503971622   0.024066090097470   0.042337411206960 0
force Rh   0.003565648151732  -0.000161016010829  -0.000131926704630 1
force Rh   0.001996213988806  -0.002323149685641  -0.001576199879197 1
force Rh   0.001656373769364  -0.002400956051997  -0.000854940328443 1
force Rh   0.000781162679121   0.000692777215631  -0.001106875209902 1
force Rh   0.001627081493415   0.000751593048086  -0.001886214977829 1
force Rh  -0.000624430655980  -0.000014446022235  -0.000567783798247 1
force Rh  -0.000144758575858   0.002424778125090   0.000280069489962 1
force Rh   0.003145085508306  -0.001749396974522  -0.001581719269718 1
force Rh  -0.000731587828979  -0.003920402047716  -0.002582882462270 1
force Rh   0.000913559373202  -0.002687645636107   0.000263627113378 1
force Rh  -0.001176035337130  -0.002660360455268  -0.001902917980713 1
force Rh   0.000556843414127  -0.000380868093035  -0.001061153403191 1
force Rh   0.001519360369389  -0.001753095785841   0.000682372213964 1
force Rh   0.000476370737602   0.001120393981749  -0.001286185484721 1
force Rh   0.000079007031673  -0.000819750105566   0.000872991075359 1
force O   0.003942561783201   0.001841026800736   0.002001318867059 1
force O  -0.001163934938532   0.001276650962035  -0.001521329693226 1
force O   0.000588029533191  -0.001134595715269  -0.000512750685674 1
force O   0.005786798868779  -0.001754865775596  -0.002021256670528 1
force O   0.001453548529877   0.001896968809636  -0.001937783616846 1
force O   0.001789224499478   0.002412039739307  -0.001385858727756 1
force O   0.001753291462993  -0.000815551085843  -0.000051421654562 1
force O   0.006771151015831  -0.000014206982493   0.000326340998521 1
force O   0.002440225752105  -0.001142116667372   0.000349942250331 1
force O   0.000768871366551  -0.001910912695982   0.000148206223136 1
force O   0.002155136604511   0.000647933618895  -0.001207231616158 1
force O   0.004607684666168  -0.004589832674745  -0.000267241003280 1
force O  -0.001757065867436  -0.000600150584412  -0.000354709920656 1
force O   0.000050403619614  -0.001250983463459   0.000462638698560 1
force O  -0.000584475281092   0.001043324500991  -0.001305474720348 1
force O  -0.000230875264841  -0.000797672733078  -0.000239464961296 1
force O   0.003116860511917   0.001643246488345   0.000353538977025 1
force O   0.000561966410852  -0.000898587641419  -0.000150716724904 1
force O   0.001421894096769  -0.000945565540135   0.000523074738788 1
force O   0.001397469594780   0.001266614292359  -0.001172901729592 1
force O  -0.000073386892814   0.000767697279101  -0.000037139010413 1
force O   0.000124122946873   0.001797431931042  -0.001157612220890 1
force O   0.000947137275559  -0.000010532753419  -0.000426985601322 1
force O   0.001916407933632  -0.000461744613177  -0.000346714161700 1
force O  -0.000016955968499  -0.000712024450704  -0.000799772095703 1
force O   0.004017584878663  -0.001029400561943   0.000596481940827 1
force O   0.002550694775372   0.001179724254698  -0.002157301088069 1
force O   0.002296429100560  -0.003015296828282  -0.001840999606554 1
force O   0.000985772109095  -0.001137093069353  -0.001174761003107 1
force O   0.003999097367885   0.000291869849879  -0.000491689931808 1
force O   0.001843484669113   0.000126320845322  -0.001815682620311 1
force O   0.001625138829649  -0.005086118225951  -0.000865233710727 1

# Energy components:
   Eewald =    -1418.0098747895101496
       EH =      408.8756715188549720
     Eloc =    -1137.5553668780132739
      Enl =     -102.5777367852850830
      Exc =     -351.7923895298239358
 Exc_core =       65.6368367422858228
       KE =      717.0580105334227028
-------------------------------------
     Etot =    -1818.3648491880687743
       TS =        0.2177572619339970
-------------------------------------
        F =    -1818.5826064500026860

IonicMinimize: Iter:  16  F: -1818.582606450002686  |grad|_K:  1.153e-04  alpha:  1.000e+00  linmin: -1.381e-01  t[s]:  32966.79

#--- Lowdin population analysis ---
# oxidation-state Rh +0.477 +0.477 +0.477 +0.477 +0.477 +0.477 +0.477 +0.477 +0.477 +0.477 +0.477 +0.477 +0.477 +0.477 +0.477 +0.477
# oxidation-state O -0.217 -0.218 -0.218 -0.218 -0.218 -0.218 -0.218 -0.218 -0.218 -0.218 -0.218 -0.218 -0.218 -0.217 -0.218 -0.218 -0.218 -0.218 -0.219 -0.218 -0.218 -0.218 -0.218 -0.218 -0.218 -0.218 -0.218 -0.219 -0.218 -0.218 -0.218 -0.218


-------- Electronic minimization -----------
Will mix electronic density at each iteration.
	FillingsUpdate:  mu: +0.450818265  nElectrons: 432.000000
	FillingsUpdate:  mu: +0.450818502  nElectrons: 432.000000
SCF: Cycle:  0   F: -1818.582595164008580   dF: +1.360e-05   |Residual|: 1.478e-03   |deigs|: 9.465e-08  t[s]:  33118.80
	FillingsUpdate:  mu: +0.450818468  nElectrons: 432.000000
SCF: Cycle:  1   F: -1818.582533535355878   dF: +6.163e-05   |Residual|: 3.570e-03   |deigs|: 2.802e-05  t[s]:  33210.78
	FillingsUpdate:  mu: +0.450818420  nElectrons: 432.000000
SCF: Cycle:  2   F: -1818.582611467390279   dF: -7.793e-05   |Residual|: 3.836e-04   |deigs|: 3.161e-05  t[s]:  33302.56
	FillingsUpdate:  mu: +0.450818437  nElectrons: 432.000000
SCF: Cycle:  3   F: -1818.582611857722895   dF: -3.903e-07   |Residual|: 1.921e-04   |deigs|: 2.947e-06  t[s]:  33393.69
	FillingsUpdate:  mu: +0.450818414  nElectrons: 432.000000
SCF: Cycle:  4   F: -1818.582611877678346   dF: -1.996e-08   |Residual|: 1.168e-04   |deigs|: 1.641e-06  t[s]:  33486.25
	FillingsUpdate:  mu: +0.450818413  nElectrons: 432.000000
SCF: Cycle:  5   F: -1818.582611921180160   dF: -4.350e-08   |Residual|: 4.590e-05   |deigs|: 1.329e-06  t[s]:  33577.40
	FillingsUpdate:  mu: +0.450818421  nElectrons: 432.000000
SCF: Cycle:  6   F: -1818.582611924818821   dF: -3.639e-09   |Residual|: 2.931e-05   |deigs|: 4.670e-07  t[s]:  33667.85
	FillingsUpdate:  mu: +0.450818435  nElectrons: 432.000000
SCF: Cycle:  7   F: -1818.582611926377467   dF: -1.559e-09   |Residual|: 9.114e-06   |deigs|: 1.867e-07  t[s]:  33758.74
SCF: Converged (|Delta E|<1.000000e-08 for 2 iters).

Setting wave functions to eigenvectors of Hamiltonian

# Ionic positions in lattice coordinates:
ion Rh   0.000000000000000   0.000000000000000   0.000000000000000 0
ion Rh   0.248667932133303   0.250646009233039   0.251802389254076 1
ion Rh  -0.000998464642098   0.000377264874496   0.500668006217135 1
ion Rh   0.248699915973978   0.250693722641633   0.751735940184045 1
ion Rh  -0.001442950796362   0.500575147325064   0.002057799599213 1
ion Rh   0.248917568114190   0.750293981319959   0.251786540733178 1
ion Rh  -0.001399317785708   0.500530857225101   0.502044850712385 1
ion Rh   0.249027294201294   0.750209857310731   0.751695390697759 1
ion Rh   0.498553395289393   0.000637602383339   0.001873696773691 1
ion Rh   0.748990588878463   0.250185865618532   0.251783691876794 1
ion Rh   0.498650897835179   0.000601738316092   0.501888732482575 1
ion Rh   0.748940683147624   0.250239777842111   0.751869647809203 1
ion Rh   0.498955691424531   0.500363669371730   0.002049237073277 1
ion Rh   0.748679666254329   0.750751445173065   0.251769207541928 1
ion Rh   0.498915192147683   0.500363925935489   0.501973181451547 1
ion Rh   0.748674297983758   0.750723195225995   0.751812783589726 1
ion O   0.152782176197993   0.153645147790863   0.001325116330242 1
ion O   0.094911431007286   0.403735015666751   0.251982501815917 1
ion O   0.402316376393315   0.097512921536217   0.251948667388637 1
ion O   0.344873166063281   0.347629940094060   0.001888761576939 1
ion O   0.152429247057333   0.153742487737420   0.501568816859169 1
ion O   0.094835207591167   0.403657303651233   0.752074895927853 1
ion O   0.402339279254444   0.097526679926251   0.751798515368876 1
ion O   0.344792210010843   0.347649340902677   0.501824433168291 1
ion O   0.152260130518473   0.653730037340723   0.001813243840209 1
ion O   0.095636954600963   0.903566994933824   0.251003067890224 1
ion O   0.402481975787590   0.597084310769495   0.251985622184611 1
ion O   0.344870975786114   0.847494830084573   0.001826140851450 1
ion O   0.152564828825935   0.653445153744067   0.501853424021853 1
ion O   0.095709090147743   0.903451774783045   0.750453945730918 1
ion O   0.402585000115298   0.597102258245872   0.752147110817148 1
ion O   0.345342465373961   0.847070468541493   0.501799356949888 1
ion O   0.652410730132746   0.153606708786931   0.001868990731402 1
ion O   0.595273328464965   0.403504286563669   0.252099049522414 1
ion O   0.902967323070053   0.097065514741563   0.250545668780171 1
ion O   0.845190076190254   0.347144804348466   0.001961506533043 1
ion O   0.652642230886494   0.153428317085599   0.501830974688663 1
ion O   0.595190759177516   0.403394467136935   0.752046046247207 1
ion O   0.902840840826816   0.097087607382384   0.751055321910331 1
ion O   0.845165730312694   0.347159962593343   0.501920314448046 1
ion O   0.652396942059142   0.653823462577945   0.001858725904582 1
ion O   0.594880182748399   0.903780575710782   0.251763327738535 1
ion O   0.902130858191096   0.597332505840285   0.252100533163028 1
ion O   0.845364054332965   0.847441124044410   0.001429110818955 1
ion O   0.652191045035216   0.653963937192792   0.501844806851575 1
ion O   0.594823372161025   0.903704834670787   0.751963252617335 1
ion O   0.902172561971738   0.597356181499247   0.751947923517786 1
ion O   0.844876785709988   0.847687717309744   0.501543791267809 1

# Forces in Lattice coordinates:
force Rh  -0.059655357845689   0.024403381549608   0.042568644833456 0
force Rh   0.001772760784581   0.001980100235323  -0.000364552693491 1
force Rh   0.001010729823026  -0.000307895278068   0.001282698190124 1
force Rh   0.002305420839783   0.000906245028657  -0.000078183174109 1
force Rh   0.000986128445283   0.000000553165703  -0.001075286666120 1
force Rh   0.000538966808882  -0.001082015739987  -0.000071228319253 1
force Rh  -0.000305734352292  -0.000194982476676  -0.000589279563422 1
force Rh  -0.000682100859341  -0.000548923342872   0.001308955931542 1
force Rh   0.002916783594812  -0.000706428666109   0.000897059047460 1
force Rh   0.002790705962177   0.000367985218626  -0.000079617861881 1
force Rh   0.001952409683023  -0.001231218762440  -0.000410801991773 1
force Rh   0.001350788625002   0.000537268559637  -0.000173369589410 1
force Rh   0.001132125075811  -0.000241022405088  -0.000901684750319 1
force Rh   0.002543527239233  -0.001786002513568  -0.001150513480812 1
force Rh   0.001301910275406   0.000991810529899   0.000490450029469 1
force Rh   0.001429586909253  -0.001852636093758  -0.000010319554893 1
force O   0.001172104326405   0.000129126452680   0.000747112922845 1
force O   0.001044508252934  -0.000479637724062  -0.001294463896055 1
force O   0.001684812582756  -0.001429377277159  -0.000748572694804 1
force O   0.003724244857048  -0.002742675999936  -0.000886973357776 1
force O   0.000762738042922   0.000963346708390  -0.001123390797675 1
force O   0.002179977729804   0.001329127051225  -0.001527856521902 1
force O   0.001477125618265  -0.000975173331628  -0.000747058555391 1
force O   0.004195807001594  -0.001875261594444  -0.001108501805909 1
force O   0.002055603053350  -0.000297869026193  -0.000211509812705 1
force O  -0.000590870817350  -0.001223377148904  -0.000505399632183 1
force O   0.001865605412948   0.000799695774207  -0.001402102248818 1
force O   0.004689649032383  -0.003852355273735  -0.001267441265523 1
force O  -0.000953343224706   0.000258415412665  -0.001298169514997 1
force O  -0.000958328264533  -0.000779854928200  -0.000279133463568 1
force O   0.000196364631895   0.000361460149321  -0.001744908372545 1
force O   0.000730667058255  -0.000337004641371  -0.001171914129288 1
force O   0.001256980277282  -0.001007788072460  -0.000879732072204 1
force O   0.001771561457224  -0.001540014982204  -0.000898929906682 1
force O   0.000390855415551  -0.000806628310736  -0.000739300618608 1
force O  -0.000861513832359  -0.000129609802322  -0.002097330597680 1
force O  -0.000677509063442  -0.000128514113315  -0.000053526829573 1
force O   0.001575344981233   0.001671032872591  -0.001782799172023 1
force O   0.001830646253605  -0.001172501514474  -0.002229085114089 1
force O   0.000599128045101  -0.001779514149180  -0.001386797968528 1
force O   0.000016266249235  -0.000908462284344  -0.000085654559785 1
force O   0.003159206239364  -0.000609045812526  -0.000089018834089 1
force O   0.002203737023322   0.000812898261759  -0.001620349490654 1
force O   0.002400594881249  -0.002437222497868  -0.001202177647954 1
force O   0.001451386655998  -0.001181203102720  -0.000880104404933 1
force O   0.003500439008158   0.000477845429769  -0.000704405755304 1
force O   0.001057190700528   0.000031588885182  -0.000624096550352 1
force O   0.003222054953941  -0.003378373243250  -0.000424744364462 1

# Energy components:
   Eewald =    -1418.0091638970475287
       EH =      408.8763399129937284
     Eloc =    -1137.5567841726824554
      Enl =     -102.5777266201555022
      Exc =     -351.7924122141266707
 Exc_core =       65.6368367157747912
       KE =      717.0580541815270408
-------------------------------------
     Etot =    -1818.3648560937167531
       TS =        0.2177558326607016
-------------------------------------
        F =    -1818.5826119263774672

IonicMinimize: Iter:  17  F: -1818.582611926377467  |grad|_K:  9.551e-05  alpha:  1.000e+00  linmin: -1.242e-01  t[s]:  33783.06
IonicMinimize: Converged (|grad|_K<1.000000e-04).

#--- Lowdin population analysis ---
# oxidation-state Rh +0.477 +0.477 +0.477 +0.477 +0.477 +0.477 +0.477 +0.477 +0.477 +0.477 +0.477 +0.477 +0.477 +0.477 +0.477 +0.477
# oxidation-state O -0.217 -0.218 -0.218 -0.218 -0.218 -0.218 -0.218 -0.218 -0.218 -0.218 -0.218 -0.218 -0.218 -0.217 -0.218 -0.218 -0.218 -0.218 -0.219 -0.218 -0.218 -0.218 -0.218 -0.218 -0.218 -0.218 -0.218 -0.219 -0.218 -0.218 -0.218 -0.218


Dumping '/data/rc652/RhO2/ion/RhO2_ion.Ecomponents' ... done
End date and time: Mon Jun 24 22:28:20 2024  (Duration: 0-9:23:20.00)
Done!
