--------------------------------------------------------------------------
[[19781,1],7]: A high-performance Open MPI point-to-point messaging module
was unable to find any relevant network interfaces:

Module: OpenFabrics (openib)
  Host: node3221

Another transport will be used instead, although this may result in
lower performance.
--------------------------------------------------------------------------

*************** JDFTx 1.7.0 (git hash 3664913) ***************

Start date and time: Sat Jul 13 16:28:30 2024
Executable jdftx with command-line: -i RuO2_vac.in
Running on hosts (process indices):  node3221.physics.cornell.edu (0-15)
Divided in process groups (process indices):  0 (0)  1 (1)  2 (2)  3 (3)  4 (4)  5 (5)  6 (6)  7 (7)  8 (8)  9 (9)  10 (10)  11 (11)  12 (12)  13 (13)  14 (14)  15 (15)
Resource initialization completed at t[s]:      0.00
Run totals: 16 processes, 32 threads, 0 GPUs


Input parsed successfully to the following command list (including defaults):

basis kpoint-dependent
coords-type Lattice
core-overlap-check vector
coulomb-interaction Periodic
davidson-band-ratio 1.1
dump End Ecomponents
dump-name /data/rc652/RuO2/vac/RuO2_vac.$VAR
elec-cutoff 20 100
elec-eigen-algo Davidson
elec-ex-corr gga-PBEsol
elec-smearing Fermi 0.01
electronic-minimize  \
	dirUpdateScheme      FletcherReeves \
	linminMethod         DirUpdateRecommended \
	nIterations          100 \
	history              15 \
	knormThreshold       0 \
	maxThreshold         no \
	energyDiffThreshold  1e-08 \
	nEnergyDiff          2 \
	alphaTstart          1 \
	alphaTmin            1e-10 \
	updateTestStepSize   yes \
	alphaTreduceFactor   0.1 \
	alphaTincreaseFactor 3 \
	nAlphaAdjustMax      3 \
	wolfeEnergy          0.0001 \
	wolfeGradient        0.9 \
	fdTest               no
electronic-scf  \
	nIterations	50 \
	energyDiffThreshold	1e-08 \
	residualThreshold	1e-07 \
	mixFraction	0.5 \
	qMetric	0.8 \
	history	10 \
	nEigSteps	2 \
	eigDiffThreshold	1e-08 \
	mixedVariable	Density \
	qKerker	0.8 \
	qKappa	-1 \
	verbose	no \
	mixFractionMag	1.5
exchange-regularization WignerSeitzTruncated
fluid None
fluid-ex-corr lda-TF lda-PZ
fluid-gummel-loop 10 1.000000e-05
fluid-minimize  \
	dirUpdateScheme      PolakRibiere \
	linminMethod         DirUpdateRecommended \
	nIterations          100 \
	history              15 \
	knormThreshold       0 \
	maxThreshold         no \
	energyDiffThreshold  0 \
	nEnergyDiff          2 \
	alphaTstart          1 \
	alphaTmin            1e-10 \
	updateTestStepSize   yes \
	alphaTreduceFactor   0.1 \
	alphaTincreaseFactor 3 \
	nAlphaAdjustMax      3 \
	wolfeEnergy          0.0001 \
	wolfeGradient        0.9 \
	fdTest               no
fluid-solvent H2O 55.338 ScalarEOS \
	epsBulk 78.4 \
	pMol 0.92466 \
	epsInf 1.77 \
	Pvap 1.06736e-10 \
	sigmaBulk 4.62e-05 \
	Rvdw 2.61727 \
	Res 1.42 \
	tauNuc 343133 \
	poleEl 15 7 1
forces-output-coords Positions
ion Ru   0.264740000000000   0.235760000000000   0.233870000000000 1
ion Ru   0.015310000000000   0.006770000000000   0.002790000000000 1
ion Ru   0.255540000000000   0.235990000000000   0.748690000000000 1
ion Ru  -0.010120000000000  -0.014950000000000   0.507480000000000 1
ion Ru   0.243600000000000   0.761530000000000   0.260100000000000 1
ion Ru   0.000280000000000   0.485130000000000  -0.016500000000000 1
ion Ru   0.253580000000000   0.744890000000000   0.751100000000000 1
ion Ru  -0.003010000000000   0.494740000000000   0.503210000000000 1
ion Ru   0.745240000000000   0.251000000000000   0.246080000000000 1
ion Ru   0.503470000000000  -0.002200000000000   0.008490000000000 1
ion Ru   0.759610000000000   0.242390000000000   0.723690000000000 1
ion Ru   0.485920000000000  -0.002970000000000   0.502520000000000 1
ion Ru   0.746770000000000   0.770000000000000   0.258740000000000 1
ion Ru   0.499850000000000   0.494700000000000   0.008690000000000 1
ion Ru   0.749910000000000   0.741110000000000   0.749890000000000 1
ion Ru   0.485230000000000   0.511350000000000   0.499130000000000 1
ion O   0.349300000000000   0.342430000000000   0.008510000000000 1
ion O   0.391040000000000   0.097660000000000   0.271920000000000 1
ion O   0.158360000000000   0.163110000000000  -0.000710000000000 1
ion O   0.085990000000000   0.416930000000000   0.229170000000000 1
ion O   0.349080000000000   0.340840000000000   0.489820000000000 1
ion O   0.412540000000000   0.092430000000000   0.762460000000000 1
ion O   0.169090000000000   0.151630000000000   0.494240000000000 1
ion O   0.102960000000000   0.394740000000000   0.729160000000000 1
ion O   0.347900000000000   0.857130000000000  -0.013420000000000 1
ion O   0.403990000000000   0.605430000000000   0.262490000000000 1
ion O   0.161600000000000   0.659500000000000   0.001650000000000 1
ion O   0.101150000000000   0.902340000000000   0.254870000000000 1
ion O   0.324030000000000   0.846380000000000   0.510520000000000 1
ion O   0.414750000000000   0.582040000000000   0.742360000000000 1
ion O   0.148300000000000   0.650520000000000   0.486230000000000 1
ion O   0.081890000000000   0.894760000000000   0.752550000000000 1
ion O   0.855580000000000   0.339320000000000   0.007750000000000 1
ion O   0.912490000000000   0.080100000000000   0.259820000000000 1
ion O   0.639430000000000   0.151980000000000  -0.011340000000000 1
ion O   0.608980000000000   0.388040000000000   0.257180000000000 1
ion O   0.848110000000000   0.349860000000000   0.487920000000000 1
ion O   0.909090000000000   0.098380000000000   0.753930000000000 1
ion O   0.646340000000000   0.145360000000000   0.508660000000000 1
ion O   0.599560000000000   0.388440000000000   0.741740000000000 1
ion O   0.846400000000000   0.829380000000000   0.007320000000000 1
ion O   0.898860000000000   0.609340000000000   0.248470000000000 1
ion O   0.598980000000000   0.885890000000000   0.239030000000000 1
ion O   0.839940000000000   0.835700000000000   0.503140000000000 1
ion O   0.906120000000000   0.598690000000000   0.744710000000000 1
ion O   0.645950000000000   0.640920000000000   0.505990000000000 1
ion O   0.601400000000000   0.909400000000000   0.736830000000000 1
ion-species GBRV/$ID_pbesol.uspp
ion-width 0
ionic-minimize  \
	dirUpdateScheme      L-BFGS \
	linminMethod         DirUpdateRecommended \
	nIterations          30 \
	history              15 \
	knormThreshold       0.0001 \
	maxThreshold         no \
	energyDiffThreshold  1e-06 \
	nEnergyDiff          2 \
	alphaTstart          1 \
	alphaTmin            1e-10 \
	updateTestStepSize   yes \
	alphaTreduceFactor   0.1 \
	alphaTincreaseFactor 3 \
	nAlphaAdjustMax      3 \
	wolfeEnergy          0.0001 \
	wolfeGradient        0.9 \
	fdTest               no
kpoint   0.500000000000   0.500000000000   0.500000000000  1.00000000000000
kpoint-folding 3 3 5 
latt-move-scale 1 1 1
latt-scale 1 1 1 
lattice  \
	  16.993028931585204   -0.000000000000000   -0.000000000000000  \
	  -0.000000000000000   16.993028931585204    0.000000000000000  \
	  -0.000000000000000    0.000000000000000   11.627305865430465 
lattice-minimize  \
	dirUpdateScheme      L-BFGS \
	linminMethod         DirUpdateRecommended \
	nIterations          0 \
	history              15 \
	knormThreshold       0 \
	maxThreshold         no \
	energyDiffThreshold  1e-06 \
	nEnergyDiff          2 \
	alphaTstart          1 \
	alphaTmin            1e-10 \
	updateTestStepSize   yes \
	alphaTreduceFactor   0.1 \
	alphaTincreaseFactor 3 \
	nAlphaAdjustMax      3 \
	wolfeEnergy          0.0001 \
	wolfeGradient        0.9 \
	fdTest               no
lcao-params -1 1e-06 0.01
pcm-variant GLSSA13
perturb-minimize  \
	nIterations            0 \
	algorithm              MINRES \
	residualTol            0.0001 \
	residualDiffThreshold  0.0001 \
	CGBypass               no \
	recomputeResidual      no
spintype no-spin
subspace-rotation-factor 1 yes
symmetries automatic
symmetry-threshold 0.0001



---------- Setting up symmetries ----------

Found 16 point-group symmetries of the bravais lattice
Found 1 space-group symmetries with basis
Applied RMS atom displacement 0 bohrs to make symmetries exact.

---------- Initializing the Grid ----------
R = 
[       16.993            0            0  ]
[            0       16.993            0  ]
[            0            0      11.6273  ]
unit cell volume = 3357.54
G =
[   0.369751          0          0  ]
[          0   0.369751          0  ]
[          0          0   0.540382  ]
Minimum fftbox size, Smin = [  80  80  56  ]
Chosen fftbox size, S = [  80  80  56  ]

---------- Initializing tighter grid for wavefunction operations ----------
R = 
[       16.993            0            0  ]
[            0       16.993            0  ]
[            0            0      11.6273  ]
unit cell volume = 3357.54
G =
[   0.369751          0          0  ]
[          0   0.369751          0  ]
[          0          0   0.540382  ]
Minimum fftbox size, Smin = [  72  72  48  ]
Chosen fftbox size, S = [  72  72  48  ]

---------- Exchange Correlation functional ----------
Initalized PBEsol GGA exchange.
Initalized PBEsol GGA correlation.

---------- Setting up pseudopotentials ----------
Width of ionic core gaussian charges (only for fluid interactions / plotting) set to 0

Reading pseudopotential file '/home/rc652/build/pseudopotentials/GBRV/ru_pbesol.uspp':
  Title: Ru.  Created by USPP 7.3.6 on 3-2-2014
  Reference state energy: -96.377317.  16 valence electrons in orbitals:
    |400>  occupation: 2  eigenvalue: -3.215115
    |410>  occupation: 6  eigenvalue: -2.110081
    |420>  occupation: 6  eigenvalue: -0.566695
    |500>  occupation: 1  eigenvalue: -0.433966
    |510>  occupation: 0  eigenvalue: -0.255949
  lMax: 2  lLocal: 3  QijEcut: 6
  6 projectors sampled on a log grid with 713 points:
    l: 0  eig: -0.433966  rCut: 1.5
    l: 0  eig: -3.215115  rCut: 1.5
    l: 1  eig: -2.110081  rCut: 1.6
    l: 1  eig: -0.255949  rCut: 1.6
    l: 2  eig: -0.566695  rCut: 1.75
    l: 2  eig: 0.000000  rCut: 1.75
  Partial core density with radius 1.1
  Transforming core density to a uniform radial grid of dG=0.02 with 1296 points.
  Transforming local potential to a uniform radial grid of dG=0.02 with 1296 points.
  Transforming nonlocal projectors to a uniform radial grid of dG=0.02 with 432 points.
  Transforming density augmentations to a uniform radial grid of dG=0.02 with 1296 points.
  Transforming atomic orbitals to a uniform radial grid of dG=0.02 with 432 points.
  Core radius for overlap checks: 1.75 bohrs.

Reading pseudopotential file '/home/rc652/build/pseudopotentials/GBRV/o_pbesol.uspp':
  Title: O.  Created by USPP 7.3.6 on 3-2-2014
  Reference state energy: -15.849885.  6 valence electrons in orbitals:
    |200>  occupation: 2  eigenvalue: -0.873214
    |210>  occupation: 4  eigenvalue: -0.330058
  lMax: 2  lLocal: 2  QijEcut: 6
  5 projectors sampled on a log grid with 511 points:
    l: 0  eig: -0.873214  rCut: 1.25
    l: 0  eig: 0.000000  rCut: 1.25
    l: 1  eig: -0.330058  rCut: 1.25
    l: 1  eig: 0.000000  rCut: 1.25
    l: 2  eig: 1.000000  rCut: 1.25
  Partial core density with radius 0.7
  Transforming core density to a uniform radial grid of dG=0.02 with 1296 points.
  Transforming local potential to a uniform radial grid of dG=0.02 with 1296 points.
  Transforming nonlocal projectors to a uniform radial grid of dG=0.02 with 432 points.
  Transforming density augmentations to a uniform radial grid of dG=0.02 with 1296 points.
  Transforming atomic orbitals to a uniform radial grid of dG=0.02 with 432 points.
  Core radius for overlap checks: 1.25 bohrs.

Initialized 2 species with 47 total atoms.

Folded 1 k-points by 3x3x5 to 45 k-points.

---------- Setting up k-points, bands, fillings ----------
Adding inversion symmetry to k-mesh for non-inversion-symmetric unit cell.
Reduced to 23 k-points under symmetry. 
Computing the number of bands and number of electrons
Calculating initial fillings.
nElectrons: 442.000000   nBands: 332   nStates: 23

----- Setting up reduced wavefunction bases (one per k-point) -----
average nbasis = 14340.444 , ideal nbasis = 14343.650

---------- Setting up ewald sum ----------
Optimum gaussian width for ewald sums = 3.144614 bohr.
Real space sum over 441 unit cells with max indices [  3  3  4  ]
Reciprocal space sum over 6615 terms with max indices [  10  10  7  ]

---------- Allocating electronic variables ----------
Initializing wave functions:  linear combination of atomic orbitals
Ru pseudo-atom occupations:   s ( 2 0 )  p ( 6 0 )  d ( 8 )
O pseudo-atom occupations:   s ( 2 )  p ( 4 )
	FillingsUpdate:  mu: +0.729009222  nElectrons: 442.000000
LCAOMinimize: Iter:   0  F: -1986.7343150780384349  |grad|_K:  9.086e-03  alpha:  1.000e+00
	FillingsUpdate:  mu: +0.538071977  nElectrons: 442.000000
LCAOMinimize: Iter:   1  F: -2014.7857915740974022  |grad|_K:  3.778e-03  alpha:  3.538e-01  linmin:  1.271e-01  cgtest: -4.043e-01  t[s]:     67.34
	FillingsUpdate:  mu: +0.572351747  nElectrons: 442.000000
LCAOMinimize: Iter:   2  F: -2015.0479173890882976  |grad|_K:  2.586e-03  alpha:  3.232e-02  linmin:  2.951e-02  cgtest:  7.966e-01  t[s]:     90.64
LCAOMinimize: Encountered beta<0, resetting CG.
LCAOMinimize: 	Predicted alpha/alphaT>3.000000, increasing alphaT to 9.694710e-02.
	FillingsUpdate:  mu: +0.550638178  nElectrons: 442.000000
LCAOMinimize: Iter:   3  F: -2016.0101688981867483  |grad|_K:  2.058e-03  alpha:  1.144e-01  linmin:  2.729e-02  cgtest:  3.112e-02  t[s]:    118.72
	FillingsUpdate:  mu: +0.513891696  nElectrons: 442.000000
LCAOMinimize: Iter:   4  F: -2016.3883003907301372  |grad|_K:  7.451e-04  alpha:  7.245e-02  linmin: -3.391e-03  cgtest: -4.169e-02  t[s]:    141.24
	FillingsUpdate:  mu: +0.506007457  nElectrons: 442.000000
LCAOMinimize: Iter:   5  F: -2016.4357216908083501  |grad|_K:  3.336e-04  alpha:  6.637e-02  linmin:  1.530e-02  cgtest: -7.011e-02  t[s]:    163.92
	FillingsUpdate:  mu: +0.506332419  nElectrons: 442.000000
LCAOMinimize: Iter:   6  F: -2016.4543023636931594  |grad|_K:  3.046e-04  alpha:  1.355e-01  linmin:  6.624e-03  cgtest:  1.868e-02  t[s]:    186.12
	FillingsUpdate:  mu: +0.507397896  nElectrons: 442.000000
LCAOMinimize: Iter:   7  F: -2016.4637718684846277  |grad|_K:  2.235e-04  alpha:  8.136e-02  linmin: -4.903e-04  cgtest:  4.702e-02  t[s]:    208.19
	FillingsUpdate:  mu: +0.509846852  nElectrons: 442.000000
LCAOMinimize: Iter:   8  F: -2016.4704755166094401  |grad|_K:  1.959e-04  alpha:  1.051e-01  linmin:  7.647e-05  cgtest: -2.077e-02  t[s]:    230.43
	FillingsUpdate:  mu: +0.512967739  nElectrons: 442.000000
LCAOMinimize: Iter:   9  F: -2016.4778335519233678  |grad|_K:  1.068e-04  alpha:  1.510e-01  linmin:  1.976e-03  cgtest:  1.452e-02  t[s]:    253.26
	FillingsUpdate:  mu: +0.513194712  nElectrons: 442.000000
LCAOMinimize: Iter:  10  F: -2016.4785192956958326  |grad|_K:  4.175e-05  alpha:  4.761e-02  linmin:  3.512e-04  cgtest:  2.585e-02  t[s]:    275.78
	FillingsUpdate:  mu: +0.513305606  nElectrons: 442.000000
LCAOMinimize: Iter:  11  F: -2016.4786995239892349  |grad|_K:  2.313e-05  alpha:  8.113e-02  linmin: -2.226e-04  cgtest: -1.648e-03  t[s]:    298.38
	FillingsUpdate:  mu: +0.513253352  nElectrons: 442.000000
LCAOMinimize: Iter:  12  F: -2016.4787834285559711  |grad|_K:  1.406e-05  alpha:  1.229e-01  linmin:  8.036e-05  cgtest: -4.989e-04  t[s]:    320.68
	FillingsUpdate:  mu: +0.513238798  nElectrons: 442.000000
LCAOMinimize: Iter:  13  F: -2016.4787992315441443  |grad|_K:  9.587e-06  alpha:  6.264e-02  linmin: -7.345e-05  cgtest:  1.151e-03  t[s]:    342.69
	FillingsUpdate:  mu: +0.513209421  nElectrons: 442.000000
LCAOMinimize: Iter:  14  F: -2016.4788205767797535  |grad|_K:  8.645e-06  alpha:  1.820e-01  linmin: -1.720e-04  cgtest:  1.284e-03  t[s]:    365.10
	FillingsUpdate:  mu: +0.513193376  nElectrons: 442.000000
LCAOMinimize: Iter:  15  F: -2016.4788277906000076  |grad|_K:  3.968e-06  alpha:  7.563e-02  linmin: -4.673e-05  cgtest: -2.991e-03  t[s]:    387.64
	FillingsUpdate:  mu: +0.513200162  nElectrons: 442.000000
LCAOMinimize: Iter:  16  F: -2016.4788295763987662  |grad|_K:  3.312e-06  alpha:  8.892e-02  linmin: -1.538e-05  cgtest: -9.581e-05  t[s]:    410.42
	FillingsUpdate:  mu: +0.513208441  nElectrons: 442.000000
LCAOMinimize: Iter:  17  F: -2016.4788308915274229  |grad|_K:  1.913e-06  alpha:  9.403e-02  linmin:  4.460e-05  cgtest: -4.913e-05  t[s]:    433.19
	FillingsUpdate:  mu: +0.513216161  nElectrons: 442.000000
LCAOMinimize: Iter:  18  F: -2016.4788313352842124  |grad|_K:  1.422e-06  alpha:  9.515e-02  linmin:  8.254e-05  cgtest: -7.623e-05  t[s]:    455.42
	FillingsUpdate:  mu: +0.513221989  nElectrons: 442.000000
LCAOMinimize: Iter:  19  F: -2016.4788318192236147  |grad|_K:  1.666e-06  alpha:  1.878e-01  linmin:  1.991e-05  cgtest:  1.509e-04  t[s]:    478.43
LCAOMinimize: Converged (|Delta F|<1.000000e-06 for 2 iters).


---- Citations for features of the code used in this run ----

   Software package:
      R. Sundararaman, K. Letchworth-Weaver, K.A. Schwarz, D. Gunceler, Y. Ozhabes and T.A. Arias, 'JDFTx: software for joint density-functional theory', SoftwareX 6, 278 (2017)

   gga-PBEsol exchange-correlation functional:
      J.P. Perdew et al., Phys. Rev. Lett. 100, 136406 (2008)

   Pseudopotentials:
      KF Garrity, JW Bennett, KM Rabe and D Vanderbilt, Comput. Mater. Sci. 81, 446 (2014)

This list may not be complete. Please suggest additional citations or
report any other bugs at https://github.com/shankar1729/jdftx/issues

Initialization completed successfully at t[s]:    488.88


-------- Electronic minimization -----------
Will mix electronic density at each iteration.
	FillingsUpdate:  mu: +0.513221989  nElectrons: 442.000000
	FillingsUpdate:  mu: +0.507745296  nElectrons: 442.000000
SCF: Cycle:  0   F: -2017.603682832866753   dF: -1.125e+00   |Residual|: 5.379e-01   |deigs|: 4.562e-02  t[s]:    584.52
	FillingsUpdate:  mu: +0.493118242  nElectrons: 442.000000
SCF: Cycle:  1   F: -2017.623578423928848   dF: -1.990e-02   |Residual|: 2.340e-01   |deigs|: 1.544e-02  t[s]:    664.53
	FillingsUpdate:  mu: +0.490581315  nElectrons: 442.000000
SCF: Cycle:  2   F: -2016.055362971767181   dF: +1.568e+00   |Residual|: 5.746e-01   |deigs|: 1.045e-02  t[s]:    745.44
	FillingsUpdate:  mu: +0.488460444  nElectrons: 442.000000
SCF: Cycle:  3   F: -2017.628769505167156   dF: -1.573e+00   |Residual|: 1.381e-01   |deigs|: 8.458e-03  t[s]:    825.77
	FillingsUpdate:  mu: +0.488755738  nElectrons: 442.000000
SCF: Cycle:  4   F: -2017.698056084848758   dF: -6.929e-02   |Residual|: 7.738e-02   |deigs|: 2.013e-03  t[s]:    904.00
	FillingsUpdate:  mu: +0.489361153  nElectrons: 442.000000
SCF: Cycle:  5   F: -2017.722474329380475   dF: -2.442e-02   |Residual|: 3.969e-02   |deigs|: 1.415e-03  t[s]:    971.77
	FillingsUpdate:  mu: +0.489603203  nElectrons: 442.000000
SCF: Cycle:  6   F: -2017.725117455265945   dF: -2.643e-03   |Residual|: 2.721e-02   |deigs|: 6.352e-04  t[s]:   1019.39
	FillingsUpdate:  mu: +0.489609069  nElectrons: 442.000000
SCF: Cycle:  7   F: -2017.728439578107555   dF: -3.322e-03   |Residual|: 1.152e-02   |deigs|: 3.323e-04  t[s]:   1067.14
	FillingsUpdate:  mu: +0.489586319  nElectrons: 442.000000
SCF: Cycle:  8   F: -2017.728723886761827   dF: -2.843e-04   |Residual|: 7.614e-03   |deigs|: 2.022e-04  t[s]:   1114.80
	FillingsUpdate:  mu: +0.489609642  nElectrons: 442.000000
SCF: Cycle:  9   F: -2017.728957865495204   dF: -2.340e-04   |Residual|: 4.026e-03   |deigs|: 1.396e-04  t[s]:   1162.90
	FillingsUpdate:  mu: +0.489626582  nElectrons: 442.000000
SCF: Cycle: 10   F: -2017.729028528907520   dF: -7.066e-05   |Residual|: 1.672e-03   |deigs|: 6.677e-05  t[s]:   1209.93
	FillingsUpdate:  mu: +0.489647861  nElectrons: 442.000000
SCF: Cycle: 11   F: -2017.728999635528226   dF: +2.889e-05   |Residual|: 2.608e-03   |deigs|: 5.418e-05  t[s]:   1257.97
	FillingsUpdate:  mu: +0.489651836  nElectrons: 442.000000
SCF: Cycle: 12   F: -2017.729036047905083   dF: -3.641e-05   |Residual|: 5.023e-04   |deigs|: 3.989e-05  t[s]:   1305.81
	FillingsUpdate:  mu: +0.489659476  nElectrons: 442.000000
SCF: Cycle: 13   F: -2017.729034319237144   dF: +1.729e-06   |Residual|: 7.219e-04   |deigs|: 1.640e-05  t[s]:   1354.24
	FillingsUpdate:  mu: +0.489661541  nElectrons: 442.000000
SCF: Cycle: 14   F: -2017.729036630067412   dF: -2.311e-06   |Residual|: 2.731e-04   |deigs|: 1.335e-05  t[s]:   1402.28
	FillingsUpdate:  mu: +0.489664340  nElectrons: 442.000000
SCF: Cycle: 15   F: -2017.729036872710140   dF: -2.426e-07   |Residual|: 1.392e-04   |deigs|: 6.414e-06  t[s]:   1450.35
	FillingsUpdate:  mu: +0.489665252  nElectrons: 442.000000
SCF: Cycle: 16   F: -2017.729036877547742   dF: -4.838e-09   |Residual|: 1.269e-04   |deigs|: 4.767e-06  t[s]:   1498.12
	FillingsUpdate:  mu: +0.489666037  nElectrons: 442.000000
SCF: Cycle: 17   F: -2017.729036940289461   dF: -6.274e-08   |Residual|: 3.340e-05   |deigs|: 3.866e-06  t[s]:   1546.94
	FillingsUpdate:  mu: +0.489666200  nElectrons: 442.000000
SCF: Cycle: 18   F: -2017.729036930148368   dF: +1.014e-08   |Residual|: 5.136e-05   |deigs|: 3.639e-06  t[s]:   1595.11
	FillingsUpdate:  mu: +0.489666363  nElectrons: 442.000000
SCF: Cycle: 19   F: -2017.729036941989534   dF: -1.184e-08   |Residual|: 1.964e-05   |deigs|: 3.635e-06  t[s]:   1642.49
	FillingsUpdate:  mu: +0.489666407  nElectrons: 442.000000
SCF: Cycle: 20   F: -2017.729036942587527   dF: -5.980e-10   |Residual|: 1.447e-05   |deigs|: 3.198e-06  t[s]:   1690.99
	FillingsUpdate:  mu: +0.489666421  nElectrons: 442.000000
SCF: Cycle: 21   F: -2017.729036943574329   dF: -9.868e-10   |Residual|: 7.347e-06   |deigs|: 2.839e-06  t[s]:   1733.85
SCF: Converged (|Delta E|<1.000000e-08 for 2 iters).

Setting wave functions to eigenvectors of Hamiltonian

# Ionic positions in lattice coordinates:
ion Ru   0.264740000000000   0.235760000000000   0.233870000000000 1
ion Ru   0.015310000000000   0.006770000000000   0.002790000000000 1
ion Ru   0.255540000000000   0.235990000000000   0.748690000000000 1
ion Ru  -0.010120000000000  -0.014950000000000   0.507480000000000 1
ion Ru   0.243600000000000   0.761530000000000   0.260100000000000 1
ion Ru   0.000280000000000   0.485130000000000  -0.016500000000000 1
ion Ru   0.253580000000000   0.744890000000000   0.751100000000000 1
ion Ru  -0.003010000000000   0.494740000000000   0.503210000000000 1
ion Ru   0.745240000000000   0.251000000000000   0.246080000000000 1
ion Ru   0.503470000000000  -0.002200000000000   0.008490000000000 1
ion Ru   0.759610000000000   0.242390000000000   0.723690000000000 1
ion Ru   0.485920000000000  -0.002970000000000   0.502520000000000 1
ion Ru   0.746770000000000   0.770000000000000   0.258740000000000 1
ion Ru   0.499850000000000   0.494700000000000   0.008690000000000 1
ion Ru   0.749910000000000   0.741110000000000   0.749890000000000 1
ion Ru   0.485230000000000   0.511350000000000   0.499130000000000 1
ion O   0.349300000000000   0.342430000000000   0.008510000000000 1
ion O   0.391040000000000   0.097660000000000   0.271920000000000 1
ion O   0.158360000000000   0.163110000000000  -0.000710000000000 1
ion O   0.085990000000000   0.416930000000000   0.229170000000000 1
ion O   0.349080000000000   0.340840000000000   0.489820000000000 1
ion O   0.412540000000000   0.092430000000000   0.762460000000000 1
ion O   0.169090000000000   0.151630000000000   0.494240000000000 1
ion O   0.102960000000000   0.394740000000000   0.729160000000000 1
ion O   0.347900000000000   0.857130000000000  -0.013420000000000 1
ion O   0.403990000000000   0.605430000000000   0.262490000000000 1
ion O   0.161600000000000   0.659500000000000   0.001650000000000 1
ion O   0.101150000000000   0.902340000000000   0.254870000000000 1
ion O   0.324030000000000   0.846380000000000   0.510520000000000 1
ion O   0.414750000000000   0.582040000000000   0.742360000000000 1
ion O   0.148300000000000   0.650520000000000   0.486230000000000 1
ion O   0.081890000000000   0.894760000000000   0.752550000000000 1
ion O   0.855580000000000   0.339320000000000   0.007750000000000 1
ion O   0.912490000000000   0.080100000000000   0.259820000000000 1
ion O   0.639430000000000   0.151980000000000  -0.011340000000000 1
ion O   0.608980000000000   0.388040000000000   0.257180000000000 1
ion O   0.848110000000000   0.349860000000000   0.487920000000000 1
ion O   0.909090000000000   0.098380000000000   0.753930000000000 1
ion O   0.646340000000000   0.145360000000000   0.508660000000000 1
ion O   0.599560000000000   0.388440000000000   0.741740000000000 1
ion O   0.846400000000000   0.829380000000000   0.007320000000000 1
ion O   0.898860000000000   0.609340000000000   0.248470000000000 1
ion O   0.598980000000000   0.885890000000000   0.239030000000000 1
ion O   0.839940000000000   0.835700000000000   0.503140000000000 1
ion O   0.906120000000000   0.598690000000000   0.744710000000000 1
ion O   0.645950000000000   0.640920000000000   0.505990000000000 1
ion O   0.601400000000000   0.909400000000000   0.736830000000000 1

# Forces in Lattice coordinates:
force Ru  -1.301166039601616   1.780472525430319   0.856616687782524 1
force Ru  -0.645869874874183  -0.471836509819651   0.072273895663574 1
force Ru   0.354635826871349   0.889903396466418  -0.412350758761275 1
force Ru   0.594178930098379   0.315863213128573  -0.071155980657753 1
force Ru   0.327959990868063  -0.954875957799754  -0.697067656813745 1
force Ru  -0.022775489964855   1.209150197111262   0.070787233373776 1
force Ru  -0.521243709988043  -0.187500133386007   0.208999222957886 1
force Ru   0.120277830376545   0.615834080278498  -0.729615458060566 1
force Ru   0.737945160049933  -1.107465914343218  -0.058963008573984 1
force Ru  -0.099702116704541  -0.149633788747047  -0.299878767972906 1
force Ru  -0.727597563074737   0.285597645124447   0.808903271417100 1
force Ru   0.502588955610966  -0.210755274528594   0.189893341334316 1
force Ru   1.078614191559914  -2.231547255699235  -0.460230101640658 1
force Ru   0.467312116114618  -0.296541736273908   0.005093215169214 1
force Ru  -0.257330214424058   0.109421976815870   0.380741007617631 1
force Ru   1.198067087228289  -1.738304514729121  -0.420078138586227 1
force O   0.156704360297541   0.181667784897936  -0.373268851454935 1
force O   1.221330401966987  -1.247918529238079  -0.307816090958944 1
force O  -0.454964098013144  -0.645082608281188  -0.158025376394721 1
force O   0.643806593318737  -0.651035484753596   0.477979299262333 1
force O   0.013278523061077   0.087750887018139   0.062364578319812 1
force O  -0.411452827628166   0.176124142846761  -0.138874605790720 1
force O  -0.684652231597643  -0.551965289838489   0.026257473913398 1
force O   0.136971227837426  -0.218493090692547   0.328741393706769 1
force O  -0.205171400487879  -0.355656212395980   0.260708914829396 1
force O  -0.302576079431578   0.331328243151761  -0.437951489071325 1
force O  -0.244811755660957  -0.419052348403012   0.008784282969999 1
force O  -0.528377211460545   0.459978040306227  -0.047049199494757 1
force O   0.882532059099102   0.606487364774154  -0.056847927371782 1
force O  -0.918350756568841   0.964826291856759   0.807912312700773 1
force O   0.094629197516212   0.017468373214968   0.357859418368517 1
force O   0.570757839512019  -0.247448186167010   0.119434311359926 1
force O  -0.405471335848580  -0.323675311928016  -0.319133776670486 1
force O  -0.519302800818353   0.648191993107974  -0.221597061415152 1
force O   0.821308291198843   0.404194270430144   0.186384428936259 1
force O  -1.111639873983569   1.179809350611694  -0.210150680450567 1
force O   0.008237786945244  -0.239194549596588   0.018354279661166 1
force O   0.070094326057803  -0.165069838777130  -0.027003295581449 1
force O   0.118256254825324  -0.057068754377414  -0.503624803334678 1
force O  -0.174995123624989   0.457524575022917   0.151156381047875 1
force O   0.174231511829835   0.604557583044180  -0.232065323313835 1
force O   0.116408158906822  -0.484463834975651   0.007028965005887 1
force O  -1.399991332309922   1.224586382966509   0.129930118499709 1
force O   0.482798363913138   0.527551640262833   0.248479756539487 1
force O  -0.168565596656958  -0.147620307122953   0.102299938178421 1
force O   0.270301105117671   0.474988191012763  -0.016978702579791 1
force O  -0.060635244313930  -0.447141929756998   0.314924489026819 1

# Energy components:
   Eewald =    -1513.1838024086550831
       EH =      471.7824831705261772
     Eloc =    -1737.7385240388803140
      Enl =      357.8027115324368879
      Exc =     -316.7347026482214574
 Exc_core =       35.1437500060147130
       KE =      685.4758302428147090
-------------------------------------
     Etot =    -2017.4522541439648649
       TS =        0.2767827996094885
-------------------------------------
        F =    -2017.7290369435743287

IonicMinimize: Iter:   0  F: -2017.729036943574329  |grad|_K:  3.707e-02  t[s]:   1746.96

#--- Lowdin population analysis ---
# oxidation-state Ru +0.450 +0.397 +0.414 +0.409 +0.420 +0.444 +0.408 +0.427 +0.421 +0.391 +0.432 +0.378 +0.399 +0.302 +0.318 +0.465
# oxidation-state O -0.157 -0.094 -0.135 -0.201 -0.237 -0.153 -0.228 -0.185 -0.210 -0.182 -0.228 -0.149 -0.155 -0.117 -0.200 -0.187 -0.180 -0.219 -0.214 -0.148 -0.148 -0.173 -0.186 -0.251 -0.187 -0.277 -0.131 -0.083 -0.175 -0.216 -0.220


-------- Electronic minimization -----------
Will mix electronic density at each iteration.
	FillingsUpdate:  mu: +0.489666421  nElectrons: 442.000000
	FillingsUpdate:  mu: +0.491563898  nElectrons: 442.000000
SCF: Cycle:  0   F: -2006.750883616688498   dF: +9.312e+00   |Residual|: 1.395e+00   |deigs|: 7.506e-03  t[s]:   1857.15
	FillingsUpdate:  mu: +0.504965453  nElectrons: 442.000000
SCF: Cycle:  1   F: -1984.853483844162611   dF: +2.190e+01   |Residual|: 2.243e+00   |deigs|: 3.502e-02  t[s]:   1939.85
	FillingsUpdate:  mu: +0.490125493  nElectrons: 442.000000
SCF: Cycle:  2   F: -2014.016215234445554   dF: -2.916e+01   |Residual|: 8.064e-01   |deigs|: 3.653e-02  t[s]:   2019.83
	FillingsUpdate:  mu: +0.489551617  nElectrons: 442.000000
SCF: Cycle:  3   F: -2015.444690712778311   dF: -1.428e+00   |Residual|: 6.342e-01   |deigs|: 3.825e-03  t[s]:   2099.19
	FillingsUpdate:  mu: +0.488152401  nElectrons: 442.000000
SCF: Cycle:  4   F: -2017.154139503039914   dF: -1.709e+00   |Residual|: 3.746e-01   |deigs|: 6.293e-03  t[s]:   2178.14
	FillingsUpdate:  mu: +0.487728069  nElectrons: 442.000000
SCF: Cycle:  5   F: -2017.725296949369067   dF: -5.712e-01   |Residual|: 1.590e-01   |deigs|: 2.583e-03  t[s]:   2256.68
	FillingsUpdate:  mu: +0.487603317  nElectrons: 442.000000
SCF: Cycle:  6   F: -2017.721006544823695   dF: +4.290e-03   |Residual|: 1.538e-01   |deigs|: 1.632e-03  t[s]:   2337.14
	FillingsUpdate:  mu: +0.487423165  nElectrons: 442.000000
SCF: Cycle:  7   F: -2017.820800958383870   dF: -9.979e-02   |Residual|: 6.000e-02   |deigs|: 8.829e-04  t[s]:   2416.89
	FillingsUpdate:  mu: +0.487463801  nElectrons: 442.000000
SCF: Cycle:  8   F: -2017.819183550727075   dF: +1.617e-03   |Residual|: 5.439e-02   |deigs|: 8.529e-04  t[s]:   2483.30
	FillingsUpdate:  mu: +0.487477506  nElectrons: 442.000000
SCF: Cycle:  9   F: -2017.834329972634350   dF: -1.515e-02   |Residual|: 1.895e-02   |deigs|: 6.377e-04  t[s]:   2530.71
	FillingsUpdate:  mu: +0.487458772  nElectrons: 442.000000
SCF: Cycle: 10   F: -2017.835455438384088   dF: -1.125e-03   |Residual|: 9.096e-03   |deigs|: 2.291e-04  t[s]:   2578.40
	FillingsUpdate:  mu: +0.487463891  nElectrons: 442.000000
SCF: Cycle: 11   F: -2017.835386373295023   dF: +6.907e-05   |Residual|: 9.000e-03   |deigs|: 1.722e-04  t[s]:   2626.11
	FillingsUpdate:  mu: +0.487474281  nElectrons: 442.000000
SCF: Cycle: 12   F: -2017.835812954396488   dF: -4.266e-04   |Residual|: 4.003e-03   |deigs|: 1.040e-04  t[s]:   2674.74
	FillingsUpdate:  mu: +0.487473104  nElectrons: 442.000000
SCF: Cycle: 13   F: -2017.835795061651652   dF: +1.789e-05   |Residual|: 3.370e-03   |deigs|: 7.763e-05  t[s]:   2721.70
	FillingsUpdate:  mu: +0.487474197  nElectrons: 442.000000
SCF: Cycle: 14   F: -2017.835828270202910   dF: -3.321e-05   |Residual|: 2.570e-03   |deigs|: 6.440e-05  t[s]:   2768.90
	FillingsUpdate:  mu: +0.487475218  nElectrons: 442.000000
SCF: Cycle: 15   F: -2017.835863266217757   dF: -3.500e-05   |Residual|: 1.388e-03   |deigs|: 5.201e-05  t[s]:   2816.82
	FillingsUpdate:  mu: +0.487471283  nElectrons: 442.000000
SCF: Cycle: 16   F: -2017.835868121086150   dF: -4.855e-06   |Residual|: 9.264e-04   |deigs|: 2.643e-05  t[s]:   2864.72
	FillingsUpdate:  mu: +0.487471939  nElectrons: 442.000000
SCF: Cycle: 17   F: -2017.835870344425530   dF: -2.223e-06   |Residual|: 7.325e-04   |deigs|: 1.951e-05  t[s]:   2911.43
	FillingsUpdate:  mu: +0.487472125  nElectrons: 442.000000
SCF: Cycle: 18   F: -2017.835870944574026   dF: -6.001e-07   |Residual|: 5.892e-04   |deigs|: 1.571e-05  t[s]:   2959.25
	FillingsUpdate:  mu: +0.487472189  nElectrons: 442.000000
SCF: Cycle: 19   F: -2017.835872354548428   dF: -1.410e-06   |Residual|: 3.103e-04   |deigs|: 1.028e-05  t[s]:   3008.77
	FillingsUpdate:  mu: +0.487471917  nElectrons: 442.000000
SCF: Cycle: 20   F: -2017.835872714905918   dF: -3.604e-07   |Residual|: 1.735e-04   |deigs|: 6.628e-06  t[s]:   3057.89
	FillingsUpdate:  mu: +0.487471499  nElectrons: 442.000000
SCF: Cycle: 21   F: -2017.835872865786996   dF: -1.509e-07   |Residual|: 8.110e-05   |deigs|: 2.718e-06  t[s]:   3106.20
	FillingsUpdate:  mu: +0.487471502  nElectrons: 442.000000
SCF: Cycle: 22   F: -2017.835872856046080   dF: +9.741e-09   |Residual|: 8.700e-05   |deigs|: 1.772e-06  t[s]:   3153.69
	FillingsUpdate:  mu: +0.487471559  nElectrons: 442.000000
SCF: Cycle: 23   F: -2017.835872885361823   dF: -2.932e-08   |Residual|: 3.346e-05   |deigs|: 1.249e-06  t[s]:   3203.37
	FillingsUpdate:  mu: +0.487471570  nElectrons: 442.000000
SCF: Cycle: 24   F: -2017.835872882611966   dF: +2.750e-09   |Residual|: 3.492e-05   |deigs|: 7.608e-07  t[s]:   3251.67
	FillingsUpdate:  mu: +0.487471557  nElectrons: 442.000000
SCF: Cycle: 25   F: -2017.835872887305186   dF: -4.693e-09   |Residual|: 2.240e-05   |deigs|: 7.166e-07  t[s]:   3297.89
	FillingsUpdate:  mu: +0.487471532  nElectrons: 442.000000
SCF: Cycle: 26   F: -2017.835872888239237   dF: -9.341e-10   |Residual|: 1.708e-05   |deigs|: 5.326e-07  t[s]:   3343.78
SCF: Converged (|Delta E|<1.000000e-08 for 2 iters).

Setting wave functions to eigenvectors of Hamiltonian

# Ionic positions in lattice coordinates:
ion Ru   0.261758812503399   0.239839394547778   0.238062057553534 1
ion Ru   0.013830288733729   0.005688692163397   0.003143481545492 1
ion Ru   0.256352741536509   0.238028838764637   0.746671727014089 1
ion Ru  -0.008758394766442  -0.014226456115647   0.507131535294929 1
ion Ru   0.244351619351092   0.759341906730347   0.256688321649840 1
ion Ru   0.000227981216230   0.487900327072640  -0.016153794184272 1
ion Ru   0.252385843928961   0.744460190422678   0.752122615712742 1
ion Ru  -0.002734241556122   0.496150865359833   0.499639032611634 1
ion Ru   0.746931015946783   0.248462278264519   0.245791207737358 1
ion Ru   0.503241719690913  -0.002543046645590   0.007022165278780 1
ion Ru   0.757943026564655   0.243044196567214   0.727648547948853 1
ion Ru   0.487071745666188  -0.003453093944816   0.503449111470019 1
ion Ru   0.749241588885791   0.764886677328864   0.256487405364545 1
ion Ru   0.500920916052288   0.494020344042268   0.008714699091008 1
ion Ru   0.749320547361977   0.741360526299377   0.751753120528745 1
ion Ru   0.487975290599831   0.507366841506854   0.497073909193744 1
ion O   0.349659222336654   0.342846062692561   0.006682993987206 1
ion O   0.393838593695438   0.094800460017894   0.270413319995967 1
ion O   0.157317710012257   0.161631734401641  -0.001483603791781 1
ion O   0.087465316805063   0.415438094610954   0.231509005023536 1
ion O   0.349110591563246   0.341040871459370   0.490124985316299 1
ion O   0.411597407128997   0.092833360578284   0.761780120137749 1
ion O   0.167521426948919   0.150365093563192   0.494368277037614 1
ion O   0.103274007926844   0.394239176442728   0.730768634260253 1
ion O   0.347430058544161   0.856314895392416  -0.012144316898106 1
ion O   0.403296875778826   0.606188978816268   0.260346436962158 1
ion O   0.161039230832573   0.658539636200568   0.001692763188041 1
ion O   0.099939498979186   0.903393753336342   0.254639513955195 1
ion O   0.326052307054262   0.847769449285825   0.510241558951189 1
ion O   0.412645954899494   0.584250509152153   0.746313698193884 1
ion O   0.148516989882953   0.650559833550767   0.487981137961429 1
ion O   0.083197940627085   0.894192831803552   0.753134284763218 1
ion O   0.854651112485769   0.338578173040695   0.006187931207703 1
ion O   0.911300291122673   0.081585006854308   0.258735276188552 1
ion O   0.641312025396622   0.152905936314032  -0.010428061157920 1
ion O   0.606433072686837   0.390743098564420   0.256151294811775 1
ion O   0.848129041754368   0.349311743312258   0.488009598780928 1
ion O   0.909250773276948   0.098001584824183   0.753797618669861 1
ion O   0.646611126419762   0.145229047070728   0.506195031562589 1
ion O   0.599159201269036   0.389488131725835   0.742479532668666 1
ion O   0.846799382195399   0.830765027588349   0.006184044483009 1
ion O   0.899126891888503   0.608229759247878   0.248504172656591 1
ion O   0.595772374694140   0.888695695914083   0.239665651275254 1
ion O   0.841046399600366   0.836908584326655   0.504355833564062 1
ion O   0.905733933206188   0.598351566832959   0.745210429088801 1
ion O   0.646569505886858   0.642008146005967   0.505906679058473 1
ion O   0.601261233384790   0.908375274708783   0.738371014286763 1

# Forces in Lattice coordinates:
force Ru  -0.833786162714991   1.044321454627186   0.603353755678359 1
force Ru  -0.584441404351009  -0.394404655935564   0.028018964716141 1
force Ru   0.186301988044155   0.700702598476441  -0.246424275639699 1
force Ru   0.497897355950982   0.323784618958430  -0.052426182353230 1
force Ru   0.258847146838558  -0.649607207480824  -0.449120316884262 1
force Ru   0.005215885416736   0.902556633697134   0.110740420666846 1
force Ru  -0.359491757413857  -0.085368937888453   0.060059167204348 1
force Ru   0.116260110538277   0.427443414247715  -0.495427482522216 1
force Ru   0.399482142597724  -0.705784072150156   0.018341465405465 1
force Ru  -0.078629059658578  -0.035599189897934  -0.245499780549663 1
force Ru  -0.581215829780741   0.213418013099366   0.634312309863048 1
force Ru   0.506975861835321  -0.220691570300931   0.139895394198809 1
force Ru   0.350482317802722  -1.442600540344384  -0.356612336852252 1
force Ru   0.311513010664157  -0.171772548254171  -0.030297227474137 1
force Ru  -0.214732243674669   0.108464067097434   0.295993265877562 1
force Ru   0.922232205074182  -1.211794697753148  -0.128495487612527 1
force O   0.102839221275813   0.098114166548546  -0.275616410082625 1
force O   0.615006972527835  -0.578726585249693  -0.385450998888456 1
force O  -0.260002780447994  -0.489985128611167  -0.111248798863532 1
force O   0.573581267437044  -0.597787592268405   0.362677460981979 1
force O   0.014905746137793   0.087194858461946   0.072936587930717 1
force O  -0.345047011108988   0.156172976888311  -0.140377305406126 1
force O  -0.591327798117347  -0.457484062699490   0.043712534651381 1
force O   0.018635197978601  -0.061914686521479   0.240283265895503 1
force O  -0.195922524111940  -0.341350317922106   0.226485866322751 1
force O  -0.160541440452096   0.155489791905061  -0.333270070208817 1
force O  -0.296739598874926  -0.431463550583390   0.007337605133736 1
force O  -0.335312893462091   0.245514823977966  -0.044535684924301 1
force O   0.692198392278478   0.399278231268335  -0.073351125635220 1
force O  -0.604287364355330   0.662883877170124   0.441210832910543 1
force O   0.108075928793463   0.045575945339601   0.288920316245532 1
force O   0.515164204336274  -0.199645008756937   0.095974080808623 1
force O  -0.287477031971022  -0.182425604233601  -0.297370277477419 1
force O  -0.475438190431476   0.579726823368134  -0.178790524868225 1
force O   0.678352911256674   0.260208613644273   0.150890014018896 1
force O  -0.690812195876915   0.771211051220731  -0.189513108189176 1
force O   0.008719685089671  -0.218722142330226   0.040225379018513 1
force O   0.011860342789449  -0.133407268909462  -0.031972805644617 1
force O   0.150843650668595  -0.015554558907262  -0.393176253599330 1
force O  -0.186977058394265   0.442545998370198   0.128240124602902 1
force O   0.165933996492867   0.559734463560747  -0.194380134098610 1
force O   0.154901567681050  -0.471506446807903  -0.029298323828457 1
force O  -0.622353029457065   0.619958519058607   0.204621270061558 1
force O   0.354055149465484   0.439190888510110   0.155621882509841 1
force O  -0.168040034922334  -0.147344146355333   0.061162655708164 1
force O   0.220652358962807   0.410704540610804  -0.026316871193831 1
force O  -0.071639683072829  -0.408264394551724   0.300453858484373 1

# Energy components:
   Eewald =    -1516.6449095753539495
       EH =      468.6085478687766113
     Eloc =    -1730.6757432701515427
      Enl =      357.6683257155845013
      Exc =     -316.5951666405808282
 Exc_core =       35.1437379095039120
       KE =      684.9385099918954438
-------------------------------------
     Etot =    -2017.5566980003254685
       TS =        0.2791748879137627
-------------------------------------
        F =    -2017.8358728882392370

IonicMinimize: Iter:   1  F: -2017.835872888239237  |grad|_K:  2.574e-02  alpha:  6.616e-01  linmin: -9.761e-01  t[s]:   3357.11

#--- Lowdin population analysis ---
# oxidation-state Ru +0.440 +0.407 +0.419 +0.415 +0.421 +0.438 +0.415 +0.429 +0.419 +0.407 +0.431 +0.400 +0.385 +0.320 +0.322 +0.453
# oxidation-state O -0.156 -0.126 -0.147 -0.202 -0.215 -0.157 -0.221 -0.190 -0.205 -0.183 -0.213 -0.157 -0.168 -0.145 -0.198 -0.188 -0.182 -0.212 -0.210 -0.164 -0.157 -0.177 -0.189 -0.238 -0.182 -0.250 -0.163 -0.092 -0.177 -0.214 -0.215


-------- Electronic minimization -----------
Will mix electronic density at each iteration.
	FillingsUpdate:  mu: +0.487471532  nElectrons: 442.000000
	FillingsUpdate:  mu: +0.491212826  nElectrons: 442.000000
SCF: Cycle:  0   F: -2002.495323430650387   dF: +1.320e+01   |Residual|: 1.608e+00   |deigs|: 9.078e-03  t[s]:   3469.24
	FillingsUpdate:  mu: +0.511028490  nElectrons: 442.000000
SCF: Cycle:  1   F: -1969.389824594614993   dF: +3.311e+01   |Residual|: 2.708e+00   |deigs|: 4.363e-02  t[s]:   3552.43
	FillingsUpdate:  mu: +0.488497648  nElectrons: 442.000000
SCF: Cycle:  2   F: -2013.038963349560390   dF: -4.365e+01   |Residual|: 9.503e-01   |deigs|: 4.731e-02  t[s]:   3633.10
	FillingsUpdate:  mu: +0.488196952  nElectrons: 442.000000
SCF: Cycle:  3   F: -2015.356130094943182   dF: -2.317e+00   |Residual|: 6.797e-01   |deigs|: 7.585e-03  t[s]:   3712.80
	FillingsUpdate:  mu: +0.486398946  nElectrons: 442.000000
SCF: Cycle:  4   F: -2017.144624998385780   dF: -1.788e+00   |Residual|: 4.140e-01   |deigs|: 7.267e-03  t[s]:   3790.96
	FillingsUpdate:  mu: +0.485725591  nElectrons: 442.000000
SCF: Cycle:  5   F: -2017.694216775462110   dF: -5.496e-01   |Residual|: 2.241e-01   |deigs|: 2.984e-03  t[s]:   3870.41
	FillingsUpdate:  mu: +0.485398543  nElectrons: 442.000000
SCF: Cycle:  6   F: -2017.746217173443938   dF: -5.200e-02   |Residual|: 1.884e-01   |deigs|: 1.749e-03  t[s]:   3950.77
	FillingsUpdate:  mu: +0.485115138  nElectrons: 442.000000
SCF: Cycle:  7   F: -2017.892691237649387   dF: -1.465e-01   |Residual|: 8.107e-02   |deigs|: 8.551e-04  t[s]:   4030.20
	FillingsUpdate:  mu: +0.485340966  nElectrons: 442.000000
SCF: Cycle:  8   F: -2017.896432974521304   dF: -3.742e-03   |Residual|: 7.120e-02   |deigs|: 6.458e-04  t[s]:   4098.53
	FillingsUpdate:  mu: +0.485341811  nElectrons: 442.000000
SCF: Cycle:  9   F: -2017.919451017641450   dF: -2.302e-02   |Residual|: 2.233e-02   |deigs|: 5.455e-04  t[s]:   4155.73
	FillingsUpdate:  mu: +0.485276196  nElectrons: 442.000000
SCF: Cycle: 10   F: -2017.920670074942109   dF: -1.219e-03   |Residual|: 1.294e-02   |deigs|: 2.670e-04  t[s]:   4202.74
	FillingsUpdate:  mu: +0.485272023  nElectrons: 442.000000
SCF: Cycle: 11   F: -2017.920841854066339   dF: -1.718e-04   |Residual|: 1.110e-02   |deigs|: 2.293e-04  t[s]:   4250.89
	FillingsUpdate:  mu: +0.485298651  nElectrons: 442.000000
SCF: Cycle: 12   F: -2017.921426895985405   dF: -5.850e-04   |Residual|: 4.983e-03   |deigs|: 1.591e-04  t[s]:   4299.88
	FillingsUpdate:  mu: +0.485289150  nElectrons: 442.000000
SCF: Cycle: 13   F: -2017.921344118811476   dF: +8.278e-05   |Residual|: 5.170e-03   |deigs|: 1.169e-04  t[s]:   4348.13
	FillingsUpdate:  mu: +0.485294376  nElectrons: 442.000000
SCF: Cycle: 14   F: -2017.921469901475348   dF: -1.258e-04   |Residual|: 2.810e-03   |deigs|: 8.204e-05  t[s]:   4395.50
	FillingsUpdate:  mu: +0.485296543  nElectrons: 442.000000
SCF: Cycle: 15   F: -2017.921516826684638   dF: -4.693e-05   |Residual|: 1.522e-03   |deigs|: 5.352e-05  t[s]:   4443.09
	FillingsUpdate:  mu: +0.485292014  nElectrons: 442.000000
SCF: Cycle: 16   F: -2017.921521080997991   dF: -4.254e-06   |Residual|: 1.134e-03   |deigs|: 2.758e-05  t[s]:   4491.41
	FillingsUpdate:  mu: +0.485292531  nElectrons: 442.000000
SCF: Cycle: 17   F: -2017.921522991344546   dF: -1.910e-06   |Residual|: 1.012e-03   |deigs|: 2.237e-05  t[s]:   4540.31
	FillingsUpdate:  mu: +0.485292400  nElectrons: 442.000000
SCF: Cycle: 18   F: -2017.921526630433618   dF: -3.639e-06   |Residual|: 5.309e-04   |deigs|: 1.753e-05  t[s]:   4587.67
	FillingsUpdate:  mu: +0.485293755  nElectrons: 442.000000
SCF: Cycle: 19   F: -2017.921527075265658   dF: -4.448e-07   |Residual|: 4.370e-04   |deigs|: 1.018e-05  t[s]:   4635.59
	FillingsUpdate:  mu: +0.485293339  nElectrons: 442.000000
SCF: Cycle: 20   F: -2017.921527721479151   dF: -6.462e-07   |Residual|: 2.435e-04   |deigs|: 8.330e-06  t[s]:   4683.54
	FillingsUpdate:  mu: +0.485292544  nElectrons: 442.000000
SCF: Cycle: 21   F: -2017.921527933521247   dF: -2.120e-07   |Residual|: 1.068e-04   |deigs|: 3.653e-06  t[s]:   4731.33
	FillingsUpdate:  mu: +0.485292539  nElectrons: 442.000000
SCF: Cycle: 22   F: -2017.921527938669215   dF: -5.148e-09   |Residual|: 9.681e-05   |deigs|: 2.219e-06  t[s]:   4780.10
	FillingsUpdate:  mu: +0.485292692  nElectrons: 442.000000
SCF: Cycle: 23   F: -2017.921527978454378   dF: -3.979e-08   |Residual|: 4.318e-05   |deigs|: 1.576e-06  t[s]:   4827.38
	FillingsUpdate:  mu: +0.485292642  nElectrons: 442.000000
SCF: Cycle: 24   F: -2017.921527969218687   dF: +9.236e-09   |Residual|: 5.204e-05   |deigs|: 1.112e-06  t[s]:   4875.56
	FillingsUpdate:  mu: +0.485292659  nElectrons: 442.000000
SCF: Cycle: 25   F: -2017.921527984207842   dF: -1.499e-08   |Residual|: 2.407e-05   |deigs|: 9.156e-07  t[s]:   4923.02
	FillingsUpdate:  mu: +0.485292614  nElectrons: 442.000000
SCF: Cycle: 26   F: -2017.921527983282431   dF: +9.254e-10   |Residual|: 2.347e-05   |deigs|: 5.969e-07  t[s]:   4971.57
	FillingsUpdate:  mu: +0.485292564  nElectrons: 442.000000
SCF: Cycle: 27   F: -2017.921527986830142   dF: -3.548e-09   |Residual|: 1.036e-05   |deigs|: 4.432e-07  t[s]:   5018.67
	FillingsUpdate:  mu: +0.485292581  nElectrons: 442.000000
SCF: Cycle: 28   F: -2017.921527986638694   dF: +1.914e-10   |Residual|: 1.034e-05   |deigs|: 2.952e-07  t[s]:   5063.63
	FillingsUpdate:  mu: +0.485292584  nElectrons: 442.000000
SCF: Cycle: 29   F: -2017.921527987119362   dF: -4.807e-10   |Residual|: 5.611e-06   |deigs|: 2.281e-07  t[s]:   5101.47
	FillingsUpdate:  mu: +0.485292587  nElectrons: 442.000000
SCF: Cycle: 30   F: -2017.921527987315130   dF: -1.958e-10   |Residual|: 3.804e-06   |deigs|: 1.560e-07  t[s]:   5133.52
SCF: Converged (|Delta E|<1.000000e-08 for 2 iters).

Setting wave functions to eigenvectors of Hamiltonian

# Ionic positions in lattice coordinates:
ion Ru   0.258906545157055   0.243036373792075   0.242922978221214 1
ion Ru   0.011167268810516   0.003981134652830   0.003195575779215 1
ion Ru   0.256831093187928   0.240933879303186   0.745018443952313 1
ion Ru  -0.006598710020698  -0.012646261280289   0.506691077242508 1
ion Ru   0.245427027142101   0.756972674452189   0.253385508478174 1
ion Ru   0.000323254119603   0.491485379937110  -0.014801661135480 1
ion Ru   0.251057098559392   0.744303537692728   0.751946884052369 1
ion Ru  -0.002183650488648   0.497741033416175   0.495786268688253 1
ion Ru   0.748012444206208   0.246062761322671   0.246391200853184 1
ion Ru   0.502915672857678  -0.002430162865346   0.004784215783939 1
ion Ru   0.755507415174730   0.243892748848658   0.733247201375876 1
ion Ru   0.489526237412221  -0.004541378228028   0.504622203682284 1
ion Ru   0.749115086788597   0.759902083279139   0.253368010628576 1
ion Ru   0.502033945877279   0.493503750928066   0.008213739796556 1
ion Ru   0.748392271666671   0.741880902590895   0.754347888868427 1
ion Ru   0.491732147645225   0.502840060921405   0.497303850575304 1
ion O   0.350020821527216   0.343110576314791   0.004365547529292 1
ion O   0.395290667411103   0.093680399443924   0.266031594401382 1
ion O   0.156551243117178   0.159657243984887  -0.002380149448656 1
ion O   0.090054719398987   0.412690080355509   0.234627427597363 1
ion O   0.349186812710662   0.341459749255591   0.490931482790008 1
ion O   0.410100491529477   0.093536289001270   0.760326572609445 1
ion O   0.164904764981589   0.148396062474393   0.494910623593631 1
ion O   0.103069027308819   0.394331339803252   0.732770192789185 1
ion O   0.346509261935381   0.854705588779321  -0.009995885339151 1
ion O   0.402877740630160   0.606499849589796   0.257472979429074 1
ion O   0.159480007953997   0.656429425757516   0.001760003520644 1
ion O   0.098805366079312   0.904042147678125   0.254193896335964 1
ion O   0.328913813647932   0.849176952338576   0.509398035554908 1
ion O   0.410517336055773   0.586692128577984   0.748901360288813 1
ion O   0.149071694039542   0.650849624920566   0.490587309811391 1
ion O   0.085542309020345   0.893349970987558   0.753996636165061 1
ion O   0.853560294439255   0.338051341183422   0.003242323984420 1
ion O   0.909118778086664   0.084208140950293   0.257122348859294 1
ion O   0.644224963819717   0.153800906138766  -0.009064540565453 1
ion O   0.604153730719209   0.393440781479011   0.254309907649262 1
ion O   0.848172594675901   0.348308785974469   0.488539573646011 1
ion O   0.909163030921310   0.097437684609423   0.753441455858155 1
ion O   0.647419671775959   0.145257672423170   0.502735655311667 1
ion O   0.598228567481529   0.391583552393122   0.743676909137385 1
ion O   0.847578688728411   0.833350774939495   0.004383366987147 1
ion O   0.899969722118552   0.605989840149033   0.248008505161894 1
ion O   0.594712796989806   0.890175585870430   0.242169177481153 1
ion O   0.842431923171719   0.838804829185636   0.505462501927123 1
ion O   0.904925753154682   0.597642227755748   0.745620291618788 1
ion O   0.647509386305019   0.643827154792514   0.505585464437670 1
ion O   0.600888872168937   0.906504774128944   0.741386044034419 1

# Forces in Lattice coordinates:
force Ru  -0.637012461548686   0.647095166552284   0.285634149178554 1
force Ru  -0.472286381520549  -0.299071264709065  -0.005436081638799 1
force Ru   0.004929198056928   0.460492114675665  -0.096786252918459 1
force Ru   0.359236801226963   0.307357086374384  -0.039923583315404 1
force Ru   0.187212046380446  -0.393925801099071  -0.240598356995769 1
force Ru   0.037163441403461   0.555149861352576   0.148567355512827 1
force Ru  -0.212640133449157  -0.016755466345981   0.005059716027535 1
force Ru   0.076896176186342   0.215702204518654  -0.261352902309101 1
force Ru   0.251185103887553  -0.394847567326519   0.035255953432067 1
force Ru  -0.082996018791334   0.005967955764111  -0.118244343666731 1
force Ru  -0.357610650570394   0.143153932450775   0.409221052011185 1
force Ru   0.382762884765968  -0.117113785968652  -0.009913755048334 1
force Ru   0.201410662067572  -0.961847947671014  -0.228615855436784 1
force Ru   0.140301052114354  -0.012608387726718  -0.053990433946096 1
force Ru  -0.113486630929306   0.100306584722890   0.199998203902060 1
force Ru   0.630019996465866  -0.677186522219825  -0.050653926304519 1
force O   0.031866148092888   0.018895470978758  -0.165889084178948 1
force O   0.417016863282877  -0.343594353380152  -0.302567158129297 1
force O  -0.125175388137331  -0.344772870230563  -0.053830478911984 1
force O   0.457525509070532  -0.495350502467177   0.234998798125514 1
force O   0.031959286188726   0.089903788544470   0.077724809694523 1
force O  -0.235776017120085   0.115408746801533  -0.133000504430668 1
force O  -0.464975984812849  -0.329000534608782   0.064220979310395 1
force O  -0.064904572186139   0.070437365030694   0.161692747200887 1
force O  -0.141007670703014  -0.285307652021353   0.173947840342590 1
force O   0.006465688445650  -0.038644143187606  -0.208256680608310 1
force O  -0.290071262162150  -0.378644237041115  -0.012177567827175 1
force O  -0.187114961371210   0.074906055191309  -0.043820077397238 1
force O   0.507502980149471   0.205083131071464  -0.082412839928538 1
force O  -0.365398735841329   0.428030821829452   0.240341390689766 1
force O   0.109396133443941   0.055600969140122   0.198973505629356 1
force O   0.411113171876320  -0.115655318273476   0.053640461403848 1
force O  -0.195035927668185  -0.052242843879114  -0.223928736006064 1
force O  -0.365792964774102   0.438566222548934  -0.117541808637498 1
force O   0.485387857497082   0.106035593658760   0.113563263441958 1
force O  -0.380743252047430   0.465172989053436  -0.135866501808582 1
force O   0.004564258876196  -0.173509248396190   0.067602782728783 1
force O  -0.059036506116081  -0.087311053117972  -0.034091747936452 1
force O   0.148174516051333   0.012260532516234  -0.244852911207393 1
force O  -0.156566535997146   0.374183192240507   0.107256709498991 1
force O   0.119809480692006   0.465549439759965  -0.114063449768913 1
force O   0.141000445945216  -0.397276819786791  -0.070117225657641 1
force O  -0.376818307888043   0.417821348553955   0.171193374909307 1
force O   0.215769303215138   0.295894389786147   0.053146835168360 1
force O  -0.165441815204226  -0.126951321169411   0.025102666432593 1
force O   0.164027984155020   0.309978090352273  -0.034959067492787 1
force O  -0.075188775396479  -0.337713128120591   0.257756476298681 1

# Energy components:
   Eewald =    -1519.9375195165387140
       EH =      465.5076688305884431
     Eloc =    -1723.9142735703080689
      Enl =      357.5513226117985823
      Exc =     -316.4738278775635649
 Exc_core =       35.1437423253345003
       KE =      684.4824904490897097
-------------------------------------
     Etot =    -2017.6403967475989703
       TS =        0.2811312397162193
-------------------------------------
        F =    -2017.9215279873151303

IonicMinimize: Iter:   2  F: -2017.921527987315130  |grad|_K:  1.718e-02  alpha:  4.038e-01  linmin: -9.828e-01  t[s]:   5146.86

#--- Lowdin population analysis ---
# oxidation-state Ru +0.438 +0.417 +0.424 +0.422 +0.424 +0.433 +0.421 +0.432 +0.421 +0.413 +0.428 +0.410 +0.370 +0.335 +0.327 +0.442
# oxidation-state O -0.157 -0.151 -0.163 -0.204 -0.196 -0.161 -0.216 -0.195 -0.202 -0.189 -0.201 -0.164 -0.176 -0.167 -0.195 -0.188 -0.188 -0.205 -0.203 -0.172 -0.170 -0.181 -0.192 -0.220 -0.180 -0.228 -0.174 -0.111 -0.179 -0.213 -0.203


-------- Electronic minimization -----------
Will mix electronic density at each iteration.
	FillingsUpdate:  mu: +0.485292587  nElectrons: 442.000000
	FillingsUpdate:  mu: +0.490698769  nElectrons: 442.000000
SCF: Cycle:  0   F: -1999.456404579925220   dF: +1.608e+01   |Residual|: 1.692e+00   |deigs|: 9.725e-03  t[s]:   5258.77
	FillingsUpdate:  mu: +0.512383999  nElectrons: 442.000000
SCF: Cycle:  1   F: -1962.007336333993180   dF: +3.745e+01   |Residual|: 2.914e+00   |deigs|: 4.948e-02  t[s]:   5338.02
	FillingsUpdate:  mu: +0.486368649  nElectrons: 442.000000
SCF: Cycle:  2   F: -2013.334937885196723   dF: -5.133e+01   |Residual|: 9.451e-01   |deigs|: 5.672e-02  t[s]:   5420.41
	FillingsUpdate:  mu: +0.487079458  nElectrons: 442.000000
SCF: Cycle:  3   F: -2014.286088461206191   dF: -9.512e-01   |Residual|: 7.677e-01   |deigs|: 7.801e-03  t[s]:   5501.93
	FillingsUpdate:  mu: +0.484804640  nElectrons: 442.000000
SCF: Cycle:  4   F: -2017.160948454917616   dF: -2.875e+00   |Residual|: 4.192e-01   |deigs|: 8.579e-03  t[s]:   5581.38
	FillingsUpdate:  mu: +0.484202016  nElectrons: 442.000000
SCF: Cycle:  5   F: -2017.603067204938043   dF: -4.421e-01   |Residual|: 2.734e-01   |deigs|: 4.392e-03  t[s]:   5663.12
	FillingsUpdate:  mu: +0.483633395  nElectrons: 442.000000
SCF: Cycle:  6   F: -2017.798299943025540   dF: -1.952e-01   |Residual|: 1.902e-01   |deigs|: 2.453e-03  t[s]:   5742.63
	FillingsUpdate:  mu: +0.483330134  nElectrons: 442.000000
SCF: Cycle:  7   F: -2017.953615911266979   dF: -1.553e-01   |Residual|: 8.402e-02   |deigs|: 1.606e-03  t[s]:   5823.66
	FillingsUpdate:  mu: +0.483569881  nElectrons: 442.000000
SCF: Cycle:  8   F: -2017.935034077514501   dF: +1.858e-02   |Residual|: 9.434e-02   |deigs|: 1.071e-03  t[s]:   5900.87
	FillingsUpdate:  mu: +0.483681120  nElectrons: 442.000000
SCF: Cycle:  9   F: -2017.979915213433515   dF: -4.488e-02   |Residual|: 2.115e-02   |deigs|: 7.154e-04  t[s]:   5968.71
	FillingsUpdate:  mu: +0.483553436  nElectrons: 442.000000
SCF: Cycle: 10   F: -2017.980485847170485   dF: -5.706e-04   |Residual|: 1.636e-02   |deigs|: 3.310e-04  t[s]:   6017.36
	FillingsUpdate:  mu: +0.483552956  nElectrons: 442.000000
SCF: Cycle: 11   F: -2017.981276517220294   dF: -7.907e-04   |Residual|: 1.034e-02   |deigs|: 2.362e-04  t[s]:   6066.20
	FillingsUpdate:  mu: +0.483588911  nElectrons: 442.000000
SCF: Cycle: 12   F: -2017.981562189569104   dF: -2.857e-04   |Residual|: 7.114e-03   |deigs|: 1.553e-04  t[s]:   6113.42
	FillingsUpdate:  mu: +0.483584118  nElectrons: 442.000000
SCF: Cycle: 13   F: -2017.981706193605760   dF: -1.440e-04   |Residual|: 4.572e-03   |deigs|: 1.183e-04  t[s]:   6161.48
	FillingsUpdate:  mu: +0.483570521  nElectrons: 442.000000
SCF: Cycle: 14   F: -2017.981668342060630   dF: +3.785e-05   |Residual|: 4.233e-03   |deigs|: 8.671e-05  t[s]:   6209.59
	FillingsUpdate:  mu: +0.483580761  nElectrons: 442.000000
SCF: Cycle: 15   F: -2017.981810599124401   dF: -1.423e-04   |Residual|: 1.128e-03   |deigs|: 6.530e-05  t[s]:   6257.20
	FillingsUpdate:  mu: +0.483578200  nElectrons: 442.000000
SCF: Cycle: 16   F: -2017.981807354989769   dF: +3.244e-06   |Residual|: 1.029e-03   |deigs|: 2.019e-05  t[s]:   6305.46
	FillingsUpdate:  mu: +0.483578814  nElectrons: 442.000000
SCF: Cycle: 17   F: -2017.981809546245586   dF: -2.191e-06   |Residual|: 8.391e-04   |deigs|: 2.074e-05  t[s]:   6352.40
	FillingsUpdate:  mu: +0.483577768  nElectrons: 442.000000
SCF: Cycle: 18   F: -2017.981810039969105   dF: -4.937e-07   |Residual|: 8.321e-04   |deigs|: 1.677e-05  t[s]:   6401.04
	FillingsUpdate:  mu: +0.483578907  nElectrons: 442.000000
SCF: Cycle: 19   F: -2017.981812667998156   dF: -2.628e-06   |Residual|: 4.552e-04   |deigs|: 1.286e-05  t[s]:   6448.97
	FillingsUpdate:  mu: +0.483579362  nElectrons: 442.000000
SCF: Cycle: 20   F: -2017.981813568089365   dF: -9.001e-07   |Residual|: 2.161e-04   |deigs|: 8.024e-06  t[s]:   6497.46
	FillingsUpdate:  mu: +0.483578110  nElectrons: 442.000000
SCF: Cycle: 21   F: -2017.981813704162960   dF: -1.361e-07   |Residual|: 1.480e-04   |deigs|: 3.971e-06  t[s]:   6545.37
	FillingsUpdate:  mu: +0.483578150  nElectrons: 442.000000
SCF: Cycle: 22   F: -2017.981813773229305   dF: -6.907e-08   |Residual|: 8.630e-05   |deigs|: 2.757e-06  t[s]:   6593.48
	FillingsUpdate:  mu: +0.483578449  nElectrons: 442.000000
SCF: Cycle: 23   F: -2017.981813791146578   dF: -1.792e-08   |Residual|: 5.182e-05   |deigs|: 1.557e-06  t[s]:   6642.35
	FillingsUpdate:  mu: +0.483578417  nElectrons: 442.000000
SCF: Cycle: 24   F: -2017.981813790631122   dF: +5.155e-10   |Residual|: 5.074e-05   |deigs|: 1.246e-06  t[s]:   6690.81
	FillingsUpdate:  mu: +0.483578312  nElectrons: 442.000000
SCF: Cycle: 25   F: -2017.981813799772453   dF: -9.141e-09   |Residual|: 2.810e-05   |deigs|: 8.632e-07  t[s]:   6738.16
	FillingsUpdate:  mu: +0.483578320  nElectrons: 442.000000
SCF: Cycle: 26   F: -2017.981813801634416   dF: -1.862e-09   |Residual|: 2.077e-05   |deigs|: 6.797e-07  t[s]:   6785.76
SCF: Converged (|Delta E|<1.000000e-08 for 2 iters).

Setting wave functions to eigenvectors of Hamiltonian

# Ionic positions in lattice coordinates:
ion Ru   0.254749629792631   0.246158137173906   0.245083988872104 1
ion Ru   0.007500751270740   0.001805534626424   0.002694117666081 1
ion Ru   0.255980815654760   0.243851548692913   0.744872019618454 1
ion Ru  -0.004072202194740  -0.009988423542156   0.506097858049092 1
ion Ru   0.246714777363283   0.754884306732914   0.251256667550783 1
ion Ru   0.000804865325246   0.494676813420567  -0.011599190386643 1
ion Ru   0.249955064745038   0.744558175122046   0.751117369217921 1
ion Ru  -0.001648103867898   0.498606154961911   0.493405012485882 1
ion Ru   0.749157645217259   0.244313038807911   0.247447036972004 1
ion Ru   0.502206769871138  -0.002048187190798   0.003679857770042 1
ion Ru   0.753367250391513   0.244792919458073   0.738676833614970 1
ion Ru   0.492474498985067  -0.005234367293538   0.503171814929698 1
ion Ru   0.749177966739173   0.754386475750903   0.250371239362794 1
ion Ru   0.502428200863154   0.494139908862846   0.006903218097432 1
ion Ru   0.747809931307877   0.742733131703969   0.757104899172402 1
ion Ru   0.495819773026714   0.499575804199001   0.497944360106769 1
ion O   0.349971139251372   0.342869866359290   0.002392240247126 1
ion O   0.397282335399477   0.092564327793744   0.260681378481883 1
ion O   0.156231525261551   0.157377689014530  -0.002809511134903 1
ion O   0.093564544800609   0.408774309967721   0.237703644036140 1
ion O   0.349528617286927   0.342258178292654   0.492461259249760 1
ion O   0.408510281071564   0.094379065036844   0.757878271490431 1
ion O   0.161403308514904   0.146098291632203   0.496325353358306 1
ion O   0.102020153538777   0.395658420244353   0.734921669475726 1
ion O   0.345472683023564   0.852413303266917  -0.007234336505348 1
ion O   0.403736700294313   0.605210902808409   0.254840346249874 1
ion O   0.156868970337114   0.653262115116126   0.001383970265389 1
ion O   0.097983783879011   0.903767099737934   0.253384889121140 1
ion O   0.332431427094975   0.849977391203878   0.507726878309780 1
ion O   0.408637123916295   0.589156952993492   0.750661283375400 1
ion O   0.150059843986257   0.651418799723806   0.493424663529234 1
ion O   0.088709293482932   0.892698405087575   0.754612541586671 1
ion O   0.852355857330151   0.338267949691681  -0.000350758619946 1
ion O   0.906350392320464   0.087468867587948   0.255511244188891 1
ion O   0.647598279013072   0.153971399856397  -0.007330183797193 1
ion O   0.602556641548894   0.395814152837234   0.252221683764091 1
ion O   0.848199741680079   0.346972082561506   0.490083179771501 1
ion O   0.908307763996210   0.096879740550484   0.752768078527753 1
ion O   0.648766511277205   0.145528638802027   0.499605805449006 1
ion O   0.596937007549153   0.394614232320184   0.745455856090748 1
ion O   0.848461224386997   0.837047204132383   0.002957927884380 1
ion O   0.901225093313219   0.602773420745378   0.246267732845935 1
ion O   0.593519068436157   0.892162918577272   0.245401271876780 1
ion O   0.843645730832644   0.840772028699827   0.505388182993736 1
ion O   0.903482307890573   0.596596913877057   0.745683973358915 1
ion O   0.648676555041034   0.646102469438789   0.504833072646553 1
ion O   0.600198459753550   0.903841890555464   0.745861288782457 1

# Forces in Lattice coordinates:
force Ru  -0.344792617590927   0.284168936986236   0.187952130103705 1
force Ru  -0.306085609433556  -0.200878351735955  -0.012980517920230 1
force Ru  -0.067643373572821   0.227825438536709  -0.052546901139360 1
force Ru   0.205821628635900   0.202435959510326  -0.035766656363752 1
force Ru   0.120916081834916  -0.255484524321839  -0.125199897777720 1
force Ru   0.009991828970565   0.265808676321340   0.089792645125603 1
force Ru  -0.091147671674496   0.002598253517523   0.020154822138550 1
force Ru   0.051585539019402   0.077948220601037  -0.088996989516587 1
force Ru   0.154465087397057  -0.149524739186744   0.006213112695823 1
force Ru  -0.087917537229919   0.011369488593101  -0.067784695346936 1
force Ru  -0.189543494337242   0.107202265217043   0.204768788745036 1
force Ru   0.271755805852554  -0.044242860581456  -0.001717341921314 1
force Ru   0.071637562923534  -0.498323437257944  -0.148504299695122 1
force Ru   0.033037130589242   0.068041097358403  -0.056507705278103 1
force Ru  -0.026959909532507   0.100828866375259   0.108837297679574 1
force Ru   0.340088608022149  -0.304352800897762  -0.014527709757288 1
force O  -0.010079708638451   0.007890712034370  -0.100479437845712 1
force O   0.196560395917713  -0.100150610787535  -0.213088181664706 1
force O  -0.112461774163393  -0.260600255638870  -0.033955503263260 1
force O   0.313019690570419  -0.360267601312054   0.151138238035261 1
force O   0.019484581938878   0.069896471888465   0.049891854206965 1
force O  -0.136747461138353   0.069360718345539  -0.114466026489910 1
force O  -0.306556717624956  -0.160013634379310   0.049577416534324 1
force O  -0.090933247458400   0.123914177663228   0.121310260607249 1
force O  -0.064721126240051  -0.195338716946700   0.115076290958212 1
force O   0.059309556118422  -0.097894465603662  -0.135772639299794 1
force O  -0.183098292650701  -0.236162961098099  -0.019049426668393 1
force O  -0.110975272805043  -0.003582534180536  -0.040771634389404 1
force O   0.347051271766426   0.061859250221542  -0.076391968592955 1
force O  -0.195474836872146   0.267361135159314   0.118302949989708 1
force O   0.077997519802667   0.024366870605244   0.112043450411880 1
force O   0.260633116593225  -0.005154960083072   0.011836234753501 1
force O  -0.120280082358128   0.031989045546586  -0.117116768042091 1
force O  -0.201328026342699   0.260195511187937  -0.069560351284599 1
force O   0.280421877814084  -0.016810991433046   0.087292960591783 1
force O  -0.166812735386638   0.252881672073784  -0.079911771865723 1
force O   0.003931422478968  -0.114170593829051   0.074481679610579 1
force O  -0.093681658567310  -0.051930640691191  -0.026507723145994 1
force O   0.113534974158547   0.020535204643989  -0.113382344727244 1
force O  -0.060784604311729   0.243239066521932   0.087781160555332 1
force O   0.044927345439371   0.313196261707311  -0.041810243426461 1
force O   0.081830521046609  -0.280589855689177  -0.074892715941525 1
force O  -0.141508921144682   0.199315153034954   0.109406355258024 1
force O   0.128729415647897   0.184087229687975   0.005101836694763 1
force O  -0.116298209284949  -0.115756859804323   0.022055216422486 1
force O   0.129659292668112   0.201091565216495  -0.035297827895434 1
force O  -0.093111135522955  -0.226490404392127   0.163955698563030 1

# Energy components:
   Eewald =    -1522.5656614211814031
       EH =      462.9782589399397921
     Eloc =    -1718.4815592926045156
      Enl =      357.4640214237783766
      Exc =     -316.3826448525435922
 Exc_core =       35.1437488573013823
       KE =      684.1448574160672251
-------------------------------------
     Etot =    -2017.6989789292429123
       TS =        0.2828348723915225
-------------------------------------
        F =    -2017.9818138016344164

IonicMinimize: Iter:   3  F: -2017.981813801634416  |grad|_K:  9.997e-03  alpha:  4.351e-01  linmin: -9.819e-01  t[s]:   6798.79

#--- Lowdin population analysis ---
# oxidation-state Ru +0.435 +0.422 +0.428 +0.426 +0.427 +0.428 +0.425 +0.432 +0.425 +0.420 +0.427 +0.420 +0.355 +0.344 +0.331 +0.435
# oxidation-state O -0.157 -0.172 -0.174 -0.199 -0.189 -0.171 -0.211 -0.197 -0.199 -0.193 -0.194 -0.171 -0.179 -0.182 -0.192 -0.186 -0.195 -0.199 -0.195 -0.178 -0.181 -0.183 -0.192 -0.204 -0.176 -0.206 -0.181 -0.132 -0.181 -0.210 -0.197


-------- Electronic minimization -----------
Will mix electronic density at each iteration.
	FillingsUpdate:  mu: +0.483578320  nElectrons: 442.000000
	FillingsUpdate:  mu: +0.489037053  nElectrons: 442.000000
SCF: Cycle:  0   F: -2003.032489223395942   dF: +1.324e+01   |Residual|: 1.469e+00   |deigs|: 6.967e-03  t[s]:   6910.48
	FillingsUpdate:  mu: +0.508492090  nElectrons: 442.000000
SCF: Cycle:  1   F: -1967.857904959659663   dF: +3.517e+01   |Residual|: 2.755e+00   |deigs|: 4.715e-02  t[s]:   6989.74
	FillingsUpdate:  mu: +0.484405669  nElectrons: 442.000000
SCF: Cycle:  2   F: -2014.900347264521542   dF: -4.704e+01   |Residual|: 8.303e-01   |deigs|: 5.343e-02  t[s]:   7070.56
	FillingsUpdate:  mu: +0.485551260  nElectrons: 442.000000
SCF: Cycle:  3   F: -2015.542700466959332   dF: -6.424e-01   |Residual|: 6.586e-01   |deigs|: 6.527e-03  t[s]:   7150.54
	FillingsUpdate:  mu: +0.483651836  nElectrons: 442.000000
SCF: Cycle:  4   F: -2017.447916809143180   dF: -1.905e+00   |Residual|: 3.478e-01   |deigs|: 8.207e-03  t[s]:   7231.16
	FillingsUpdate:  mu: +0.483284981  nElectrons: 442.000000
SCF: Cycle:  5   F: -2017.673200135883690   dF: -2.253e-01   |Residual|: 2.478e-01   |deigs|: 3.221e-03  t[s]:   7312.26
	FillingsUpdate:  mu: +0.482641031  nElectrons: 442.000000
SCF: Cycle:  6   F: -2017.835867159106101   dF: -1.627e-01   |Residual|: 1.782e-01   |deigs|: 2.827e-03  t[s]:   7391.80
	FillingsUpdate:  mu: +0.482498869  nElectrons: 442.000000
SCF: Cycle:  7   F: -2017.984354336446586   dF: -1.485e-01   |Residual|: 7.710e-02   |deigs|: 1.603e-03  t[s]:   7472.54
	FillingsUpdate:  mu: +0.482685763  nElectrons: 442.000000
SCF: Cycle:  8   F: -2017.975632629322035   dF: +8.722e-03   |Residual|: 7.974e-02   |deigs|: 1.009e-03  t[s]:   7550.32
	FillingsUpdate:  mu: +0.482845479  nElectrons: 442.000000
SCF: Cycle:  9   F: -2018.009837441121817   dF: -3.420e-02   |Residual|: 1.927e-02   |deigs|: 6.618e-04  t[s]:   7617.34
	FillingsUpdate:  mu: +0.482728196  nElectrons: 442.000000
SCF: Cycle: 10   F: -2018.009657845342190   dF: +1.796e-04   |Residual|: 1.799e-02   |deigs|: 2.985e-04  t[s]:   7664.94
	FillingsUpdate:  mu: +0.482705489  nElectrons: 442.000000
SCF: Cycle: 11   F: -2018.010935344333120   dF: -1.277e-03   |Residual|: 8.146e-03   |deigs|: 2.004e-04  t[s]:   7713.31
	FillingsUpdate:  mu: +0.482744607  nElectrons: 442.000000
SCF: Cycle: 12   F: -2018.011100037067081   dF: -1.647e-04   |Residual|: 5.680e-03   |deigs|: 1.213e-04  t[s]:   7760.98
	FillingsUpdate:  mu: +0.482743667  nElectrons: 442.000000
SCF: Cycle: 13   F: -2018.011070161922135   dF: +2.988e-05   |Residual|: 5.641e-03   |deigs|: 1.059e-04  t[s]:   7808.52
	FillingsUpdate:  mu: +0.482728631  nElectrons: 442.000000
SCF: Cycle: 14   F: -2018.011105334882586   dF: -3.517e-05   |Residual|: 4.446e-03   |deigs|: 9.282e-05  t[s]:   7856.88
	FillingsUpdate:  mu: +0.482740643  nElectrons: 442.000000
SCF: Cycle: 15   F: -2018.011246699979665   dF: -1.414e-04   |Residual|: 1.157e-03   |deigs|: 6.267e-05  t[s]:   7904.14
	FillingsUpdate:  mu: +0.482736179  nElectrons: 442.000000
SCF: Cycle: 16   F: -2018.011244351025880   dF: +2.349e-06   |Residual|: 1.056e-03   |deigs|: 1.652e-05  t[s]:   7951.16
	FillingsUpdate:  mu: +0.482736272  nElectrons: 442.000000
SCF: Cycle: 17   F: -2018.011246994963358   dF: -2.644e-06   |Residual|: 7.929e-04   |deigs|: 1.777e-05  t[s]:   7999.03
	FillingsUpdate:  mu: +0.482736696  nElectrons: 442.000000
SCF: Cycle: 18   F: -2018.011247492116127   dF: -4.972e-07   |Residual|: 7.339e-04   |deigs|: 1.502e-05  t[s]:   8046.14
	FillingsUpdate:  mu: +0.482737501  nElectrons: 442.000000
SCF: Cycle: 19   F: -2018.011249257779355   dF: -1.766e-06   |Residual|: 4.860e-04   |deigs|: 1.277e-05  t[s]:   8094.83
	FillingsUpdate:  mu: +0.482738295  nElectrons: 442.000000
SCF: Cycle: 20   F: -2018.011250239098672   dF: -9.813e-07   |Residual|: 2.392e-04   |deigs|: 8.676e-06  t[s]:   8142.95
	FillingsUpdate:  mu: +0.482736670  nElectrons: 442.000000
SCF: Cycle: 21   F: -2018.011250489134454   dF: -2.500e-07   |Residual|: 1.318e-04   |deigs|: 4.053e-06  t[s]:   8189.91
	FillingsUpdate:  mu: +0.482736778  nElectrons: 442.000000
SCF: Cycle: 22   F: -2018.011250536456828   dF: -4.732e-08   |Residual|: 8.848e-05   |deigs|: 2.554e-06  t[s]:   8236.76
	FillingsUpdate:  mu: +0.482737088  nElectrons: 442.000000
SCF: Cycle: 23   F: -2018.011250559671225   dF: -2.321e-08   |Residual|: 4.788e-05   |deigs|: 1.439e-06  t[s]:   8284.83
	FillingsUpdate:  mu: +0.482737025  nElectrons: 442.000000
SCF: Cycle: 24   F: -2018.011250561216684   dF: -1.545e-09   |Residual|: 4.467e-05   |deigs|: 1.045e-06  t[s]:   8333.17
	FillingsUpdate:  mu: +0.482736926  nElectrons: 442.000000
SCF: Cycle: 25   F: -2018.011250565456066   dF: -4.239e-09   |Residual|: 3.434e-05   |deigs|: 8.315e-07  t[s]:   8380.87
SCF: Converged (|Delta E|<1.000000e-08 for 2 iters).

Setting wave functions to eigenvectors of Hamiltonian

# Ionic positions in lattice coordinates:
ion Ru   0.251551791596474   0.247823129055470   0.248197074753691 1
ion Ru   0.004118546534159  -0.000376864569395   0.002089749765449 1
ion Ru   0.254443609599691   0.245702481493725   0.744467056449457 1
ion Ru  -0.002058539937146  -0.007593845141473   0.505184775491678 1
ion Ru   0.247969856738540   0.752530122058687   0.249520697131848 1
ion Ru   0.000952811206233   0.496608107778184  -0.009152268155896 1
ion Ru   0.249435031429476   0.744835616666434   0.751354276991426 1
ion Ru  -0.001109860404935   0.498763203136118   0.493086984060339 1
ion Ru   0.750481475163439   0.243787781577110   0.247634169428699 1
ion Ru   0.501033401753073  -0.001738457667203   0.002651233743659 1
ion Ru   0.751809024236548   0.245940353819535   0.742209769585112 1
ion Ru   0.495547617051364  -0.005433398637261   0.502445309740109 1
ion Ru   0.749117252641032   0.750331137708470   0.247272739733542 1
ion Ru   0.502167362329249   0.495633130494565   0.005147257709500 1
ion Ru   0.747897065126688   0.744051558827846   0.759187834771802 1
ion Ru   0.498865210246898   0.497841309359199   0.498395705016159 1
ion O   0.349560402875979   0.342738449370330   0.000487753811211 1
ion O   0.398617650545829   0.092672079871346   0.255400567282476 1
ion O   0.155156953823848   0.154514943554618  -0.003358777510829 1
ion O   0.097080022181358   0.404573227358162   0.240845917898076 1
ion O   0.349793198224752   0.343139812418166   0.493760968815695 1
ion O   0.407203379299765   0.095089681192844   0.754768648638068 1
ion O   0.158042237291024   0.144707211892538   0.497762254325293 1
ion O   0.100517450891072   0.397786415091098   0.737694473650634 1
ion O   0.344921065196579   0.850169313274703  -0.004557293021095 1
ion O   0.405073176064121   0.603273941119047   0.252050219962793 1
ion O   0.154692141615087   0.650584635767126   0.000721560204591 1
ion O   0.097110102378719   0.903060549998304   0.252253925512540 1
ion O   0.336152748369281   0.849934584581545   0.505539153552479 1
ion O   0.407125143480329   0.591658302091711   0.752068237790277 1
ion O   0.151026691297874   0.651700557639724   0.495664932255094 1
ion O   0.091549218901079   0.893098377032996   0.754515923005739 1
ion O   0.851200184872611   0.339241043155986  -0.002756962676060 1
ion O   0.904336585985526   0.090150053121734   0.254113698688694 1
ion O   0.650336798495617   0.153053015361308  -0.005203313319145 1
ion O   0.601735512306621   0.397793949799629   0.250514132801443 1
ion O   0.848242569722365   0.345709032309341   0.492371804755066 1
ion O   0.906805671885707   0.096390221280710   0.752043104706718 1
ion O   0.650197844082561   0.145899885791876   0.497865598756987 1
ion O   0.596422891935848   0.397365786918153   0.747718545350993 1
ion O   0.848774300048847   0.840603562528916   0.002550243844512 1
ion O   0.902156685184971   0.599502722146760   0.243903049156626 1
ion O   0.593139411656485   0.893530566940577   0.248110370185985 1
ion O   0.844783869966013   0.842592598534802   0.504723640795928 1
ion O   0.902068412854789   0.595133424799320   0.746085833241777 1
ion O   0.650166594540338   0.648256418602423   0.503784432381655 1
ion O   0.598909428714221   0.901280270494198   0.749804988939207 1

# Forces in Lattice coordinates:
force Ru  -0.121336919088079   0.056494227797533   0.020221147947299 1
force Ru  -0.147088989369732  -0.083838220636817  -0.019612439288831 1
force Ru  -0.078174644638623   0.096275210433802   0.020389328471819 1
force Ru   0.050515538713037   0.074607960317623  -0.030388342409300 1
force Ru   0.055921206823136  -0.138806452783073  -0.025439001480296 1
force Ru  -0.006686124241621   0.032293508158818   0.068078162222503 1
force Ru  -0.006701840555471   0.022565079227792  -0.017025756208855 1
force Ru   0.035640704867252   0.008666462881909  -0.029135420484158 1
force Ru   0.052221439667076   0.001482704050206   0.004211446566111 1
force Ru  -0.053899051073960  -0.001614975442425  -0.025888756262912 1
force Ru  -0.090801430904946   0.055794180642696   0.089654356487702 1
force Ru   0.131503299267396   0.005222177472609  -0.030358892536057 1
force Ru   0.026627125455851  -0.220840995165457  -0.073017005858626 1
force Ru   0.000615866367359   0.058117605766838  -0.041384719326602 1
force Ru   0.011188174076649   0.067037615494273   0.039630890232975 1
force Ru   0.157076886893250  -0.072670920607856   0.002042295082426 1
force O  -0.053531420656912  -0.005627868949049  -0.038108164276272 1
force O   0.118056365159744  -0.025114953530744  -0.091648213100001 1
force O  -0.060749629966726  -0.136437952811164  -0.000501579995992 1
force O   0.106286980931665  -0.152762911010648   0.090406799131891 1
force O   0.015345690050355   0.061795086184667   0.042671261580858 1
force O  -0.080021305568814   0.042222409562818  -0.076624410599662 1
force O  -0.171928455010849  -0.026000769369195   0.032565606504798 1
force O  -0.058005896841500   0.088253215127565   0.080899201949345 1
force O  -0.006096607138905  -0.111802369092820   0.064266584530282 1
force O   0.051288404770992  -0.086789734496182  -0.083335978188831 1
force O  -0.073948932968103  -0.103752948101229  -0.010480305777176 1
force O  -0.042923548940880  -0.058275803667701  -0.031230904546319 1
force O   0.208877237147101  -0.037324879095715  -0.051357116410424 1
force O  -0.080291078323270   0.154276671480680   0.041502187578963 1
force O   0.050070760326820  -0.007364711908225   0.052362103367217 1
force O   0.133305750296926   0.056438198568995  -0.004601730501889 1
force O  -0.063421026836464   0.067927445125228  -0.040795751219943 1
force O  -0.061896866488961   0.113515531715312  -0.042925458457428 1
force O   0.132003728215047  -0.064273597973283   0.054271031061096 1
force O  -0.051680171546683   0.135189312368729  -0.046406386388312 1
force O   0.006743547869678  -0.059310369843178   0.052151627391329 1
force O  -0.089560236021623  -0.033237556582988  -0.017852680939276 1
force O   0.085904415537553   0.035249376968232  -0.038571007389984 1
force O   0.015097850977181   0.135919611531619   0.059573129297955 1
force O  -0.027409416092953   0.150543616803810  -0.017844131056225 1
force O   0.005933035010071  -0.160836115898859  -0.040220418270215 1
force O  -0.033797249870841   0.086724396934972   0.035038250697645 1
force O   0.070800030558801   0.094976302420796  -0.015095464897155 1
force O  -0.076738102503644  -0.066350239378675   0.025965362231904 1
force O   0.089864412311986   0.097081014792027  -0.027591511934811 1
force O  -0.074514497092556  -0.138539981962231   0.091444553985105 1

# Energy components:
   Eewald =    -1524.1213637784887851
       EH =      461.4429015188547396
     Eloc =    -1715.2581007900625991
      Enl =      357.4196808308967093
      Exc =     -316.3387071073447032
[...]
# oxidation-state O -0.174 -0.190 -0.193 -0.189 -0.190 -0.189 -0.197 -0.189 -0.191 -0.185 -0.192 -0.190 -0.187 -0.184 -0.192 -0.191 -0.191 -0.190 -0.192 -0.184 -0.187 -0.191 -0.192 -0.185 -0.160 -0.186 -0.186 -0.162 -0.186 -0.202 -0.186


-------- Electronic minimization -----------
Will mix electronic density at each iteration.
	FillingsUpdate:  mu: +0.482203958  nElectrons: 442.000000
	FillingsUpdate:  mu: +0.482204340  nElectrons: 442.000000
SCF: Cycle:  0   F: -2018.026882185657314   dF: +7.811e-06   |Residual|: 1.795e-03   |deigs|: 1.327e-07  t[s]:  16326.51
	FillingsUpdate:  mu: +0.482202014  nElectrons: 442.000000
SCF: Cycle:  1   F: -2018.026780743902691   dF: +1.014e-04   |Residual|: 4.394e-03   |deigs|: 4.103e-05  t[s]:  16374.92
	FillingsUpdate:  mu: +0.482204083  nElectrons: 442.000000
SCF: Cycle:  2   F: -2018.026892173623992   dF: -1.114e-04   |Residual|: 1.241e-03   |deigs|: 4.239e-05  t[s]:  16422.60
	FillingsUpdate:  mu: +0.482203214  nElectrons: 442.000000
SCF: Cycle:  3   F: -2018.026898225222794   dF: -6.052e-06   |Residual|: 5.040e-04   |deigs|: 1.418e-05  t[s]:  16470.64
	FillingsUpdate:  mu: +0.482204139  nElectrons: 442.000000
SCF: Cycle:  4   F: -2018.026897027663836   dF: +1.198e-06   |Residual|: 6.782e-04   |deigs|: 1.324e-05  t[s]:  16517.90
	FillingsUpdate:  mu: +0.482203587  nElectrons: 442.000000
SCF: Cycle:  5   F: -2018.026899418593985   dF: -2.391e-06   |Residual|: 1.063e-04   |deigs|: 8.181e-06  t[s]:  16565.93
	FillingsUpdate:  mu: +0.482203634  nElectrons: 442.000000
SCF: Cycle:  6   F: -2018.026899366921043   dF: +5.167e-08   |Residual|: 1.295e-04   |deigs|: 1.672e-06  t[s]:  16613.01
	FillingsUpdate:  mu: +0.482203563  nElectrons: 442.000000
SCF: Cycle:  7   F: -2018.026899451023155   dF: -8.410e-08   |Residual|: 4.372e-05   |deigs|: 1.000e-06  t[s]:  16660.38
	FillingsUpdate:  mu: +0.482203579  nElectrons: 442.000000
SCF: Cycle:  8   F: -2018.026899453537908   dF: -2.515e-09   |Residual|: 2.329e-05   |deigs|: 3.523e-07  t[s]:  16709.16
	FillingsUpdate:  mu: +0.482203581  nElectrons: 442.000000
SCF: Cycle:  9   F: -2018.026899455010835   dF: -1.473e-09   |Residual|: 1.488e-05   |deigs|: 4.436e-07  t[s]:  16758.39
SCF: Converged (|Delta E|<1.000000e-08 for 2 iters).

Setting wave functions to eigenvectors of Hamiltonian

# Ionic positions in lattice coordinates:
ion Ru   0.250931981310053   0.247763679771956   0.251184380436505 1
ion Ru   0.000976788491954  -0.002248396412096  -0.000607562372059 1
ion Ru   0.250992551219796   0.247687513542263   0.746936136085955 1
ion Ru  -0.002504341065700  -0.005683910128201   0.499164555509545 1
ion Ru   0.249998848891020   0.746781371525965   0.249343047308599 1
ion Ru   0.000387593777661   0.496015519796247  -0.000948071800061 1
ion Ru   0.249941556064497   0.746821977379637   0.749199534427895 1
ion Ru  -0.001569664360447   0.497003317931242   0.498962727707409 1
ion Ru   0.750026159105578   0.246863568490026   0.249041818256311 1
ion Ru   0.499162485913085  -0.002907857198391  -0.000673783053954 1
ion Ru   0.750149204688439   0.246713933111540   0.749128905754999 1
ion Ru   0.500234188358511  -0.004765045094331   0.499310594390273 1
ion Ru   0.748638628183307   0.745550460012644   0.240450103581056 1
ion Ru   0.502852104418898   0.499639599193537  -0.000980245614909 1
ion Ru   0.748684907043021   0.745428026316691   0.758307190988377 1
ion Ru   0.502435838262650   0.499114327226957   0.499102114837678 1
ion O   0.347146976379348   0.344232453388925  -0.000994718297256 1
ion O   0.403600520583622   0.095003752979869   0.250479768423444 1
ion O   0.154153971530450   0.150400506078755  -0.000919484831124 1
ion O   0.097600643039769   0.399837338149298   0.250196497902355 1
ion O   0.349502272117430   0.346566080449980   0.499083273557018 1
ion O   0.403562081862655   0.094723549601970   0.748041140555930 1
ion O   0.151393848424513   0.147838242730200   0.499071082437668 1
ion O   0.097720938918276   0.399993687251063   0.747731344717086 1
ion O   0.345595896755520   0.845533204039921  -0.000670689550051 1
ion O   0.407271484184030   0.598191381785374   0.246981925035520 1
ion O   0.153375850073615   0.648622616025299  -0.000719345939185 1
ion O   0.096223246210511   0.898387967667596   0.248795317368392 1
ion O   0.346447012431485   0.844464539245397   0.499255272413524 1
ion O   0.407172687712514   0.598210625456461   0.751167226512367 1
ion O   0.152532531140310   0.649038614651281   0.499146414522474 1
ion O   0.096207468351345   0.898514759223833   0.749731812116550 1
ion O   0.848424999054568   0.342915782475091  -0.001001044187064 1
ion O   0.902119114754966   0.093641179668018   0.248702967676447 1
ion O   0.652253182922783   0.149697167723806  -0.000907985271436 1
ion O   0.601268721392606   0.403846437809665   0.246867404047245 1
ion O   0.847325615735736   0.343571022092160   0.499078601390799 1
ion O   0.902228870973945   0.093446827722663   0.749788732047941 1
ion O   0.652783983645491   0.148923722578388   0.499136723311376 1
ion O   0.601289247165121   0.403666748899868   0.751208028409933 1
ion O   0.846465262490393   0.843882885676906  -0.000646752183447 1
ion O   0.899307995250300   0.592632823693034   0.245876861415153 1
ion O   0.595425940674768   0.895852242176942   0.246302221411752 1
ion O   0.846287861305579   0.843699127455895   0.499225860408742 1
ion O   0.899696016480861   0.592732371463905   0.752147620480973 1
ion O   0.654114134285807   0.650377579608942   0.499386929178331 1
ion O   0.595282793849360   0.895686676763811   0.752475548474923 1

# Forces in Lattice coordinates:
force Ru   0.002397056070114  -0.000396486249980  -0.001491657642642 1
force Ru  -0.000453104392304   0.000922575117656  -0.004151949417396 1
force Ru  -0.000372267455158   0.002253150244556   0.001924824818559 1
force Ru   0.000981845895489   0.000922089477795   0.001756318106095 1
force Ru  -0.000137830256016  -0.000023558163672  -0.001766259737470 1
force Ru  -0.001807313261263  -0.002865857760584  -0.000398295935387 1
force Ru  -0.000268587882595   0.000777081599770  -0.000258380931020 1
force Ru   0.000125225908351   0.000006610602714   0.000630522154156 1
force Ru   0.000880358827877  -0.002592169034546   0.001878625648450 1
force Ru  -0.003073778294391  -0.000306501407761   0.000309139378737 1
force Ru  -0.002201799035659   0.000280653791038  -0.002038201661161 1
force Ru  -0.000200137252548  -0.000199457723326  -0.001385545672587 1
force Ru   0.001429588619652  -0.000799466784050   0.000075390709602 1
force Ru   0.001579304842652   0.001331027515058  -0.001765966053215 1
force Ru   0.000826422504677   0.002865587964048  -0.002385106804850 1
force Ru   0.000676982495991   0.003837476367993   0.001415117367518 1
force O   0.000670909394052  -0.000208426786596   0.000986172360577 1
force O  -0.000384648154249  -0.006177256582104   0.000690421210022 1
force O  -0.002151880074810   0.000517142518928   0.000689655789651 1
force O   0.000704217024184   0.001234195420655   0.001430734548725 1
force O   0.002343417069969   0.000348784340726  -0.000249892707258 1
force O  -0.003493190418542   0.001521542935942  -0.000778496104850 1
force O   0.001768913063300   0.000539748843245   0.000196223865671 1
force O   0.000050844214598  -0.001780589357336   0.000949070788674 1
force O   0.000575948275739  -0.001515239657213  -0.001048524250972 1
force O  -0.000498052722935   0.002502567114299   0.000448198376588 1
force O  -0.001592258827439  -0.002746196040887  -0.000851613624846 1
force O   0.001692010611906   0.001719170061803  -0.000605160003649 1
force O  -0.002796732757603   0.001184594057709  -0.000195968708370 1
force O  -0.000332040565756   0.001671627613893   0.000444787264046 1
force O   0.000838492147670  -0.000246276134044   0.000521380107785 1
force O   0.000335915422822   0.000284101315404   0.000501990289257 1
force O  -0.000340885474339  -0.002061090087149   0.000968681169156 1
force O   0.001423816259568  -0.004415910982289  -0.000422855970341 1
force O  -0.004391298068703  -0.001279913567233   0.000509863748787 1
force O   0.000834140958853   0.000813400532832   0.000842779613819 1
force O   0.001555226510733  -0.002693313704717   0.000316448540570 1
force O  -0.000573955546783  -0.000466810271063  -0.000205331698723 1
force O  -0.002551162808496   0.001901963993450  -0.000080763999127 1
force O   0.000423885083500   0.002481635334001   0.000018463051681 1
force O   0.002539137306731  -0.001450691949826  -0.000529500263915 1
force O   0.002503906898972  -0.001258277174957   0.000722207578022 1
force O  -0.000982899098291   0.001904611106435  -0.002368275736519 1
force O   0.003225857579778   0.000720145696824   0.000561270009240 1
force O  -0.005260213466410  -0.000019609297430   0.001007439672056 1
force O  -0.000310009245073   0.002679985987849  -0.001199087415530 1
force O   0.002560678990248   0.002656872997180  -0.000276155760712 1

# Energy components:
   Eewald =    -1525.8891856949624071
       EH =      459.6497393047221749
     Eloc =    -1711.6341262991472831
      Enl =      357.3949832805067217
      Exc =     -316.3168243795029184
 Exc_core =       35.1437618165726917
       KE =      683.9081290386047840
-------------------------------------
     Etot =    -2017.7435229332063500
       TS =        0.2833765218045045
-------------------------------------
        F =    -2018.0268994550108346

IonicMinimize: Iter:  12  F: -2018.026899455010835  |grad|_K:  1.102e-04  alpha:  1.000e+00  linmin: -5.687e-01  t[s]:  16771.20

#--- Lowdin population analysis ---
# oxidation-state Ru +0.432 +0.428 +0.432 +0.432 +0.429 +0.429 +0.429 +0.426 +0.429 +0.429 +0.429 +0.426 +0.337 +0.351 +0.337 +0.424
# oxidation-state O -0.174 -0.190 -0.193 -0.189 -0.190 -0.189 -0.197 -0.190 -0.191 -0.185 -0.192 -0.190 -0.187 -0.184 -0.192 -0.191 -0.191 -0.190 -0.192 -0.184 -0.187 -0.190 -0.192 -0.185 -0.160 -0.186 -0.186 -0.162 -0.186 -0.202 -0.186


-------- Electronic minimization -----------
Will mix electronic density at each iteration.
	FillingsUpdate:  mu: +0.482203581  nElectrons: 442.000000
	FillingsUpdate:  mu: +0.482199695  nElectrons: 442.000000
SCF: Cycle:  0   F: -2018.026886818969388   dF: -4.320e-07   |Residual|: 2.178e-03   |deigs|: 3.433e-07  t[s]:  16852.49
	FillingsUpdate:  mu: +0.482204390  nElectrons: 442.000000
SCF: Cycle:  1   F: -2018.026715240866224   dF: +1.716e-04   |Residual|: 5.246e-03   |deigs|: 7.866e-05  t[s]:  16899.76
	FillingsUpdate:  mu: +0.482199285  nElectrons: 442.000000
SCF: Cycle:  2   F: -2018.026899476422841   dF: -1.842e-04   |Residual|: 1.365e-03   |deigs|: 7.715e-05  t[s]:  16947.97
	FillingsUpdate:  mu: +0.482201031  nElectrons: 442.000000
SCF: Cycle:  3   F: -2018.026905334187859   dF: -5.858e-06   |Residual|: 8.434e-04   |deigs|: 2.095e-05  t[s]:  16995.03
	FillingsUpdate:  mu: +0.482199814  nElectrons: 442.000000
SCF: Cycle:  4   F: -2018.026904926267207   dF: +4.079e-07   |Residual|: 8.790e-04   |deigs|: 1.918e-05  t[s]:  17042.73
	FillingsUpdate:  mu: +0.482200602  nElectrons: 442.000000
SCF: Cycle:  5   F: -2018.026908719696394   dF: -3.793e-06   |Residual|: 1.524e-04   |deigs|: 1.051e-05  t[s]:  17091.74
	FillingsUpdate:  mu: +0.482200700  nElectrons: 442.000000
SCF: Cycle:  6   F: -2018.026908682460316   dF: +3.724e-08   |Residual|: 1.657e-04   |deigs|: 3.907e-06  t[s]:  17139.03
	FillingsUpdate:  mu: +0.482200700  nElectrons: 442.000000
SCF: Cycle:  7   F: -2018.026908834476217   dF: -1.520e-07   |Residual|: 4.532e-05   |deigs|: 2.399e-06  t[s]:  17187.42
	FillingsUpdate:  mu: +0.482200733  nElectrons: 442.000000
SCF: Cycle:  8   F: -2018.026908833019206   dF: +1.457e-09   |Residual|: 3.660e-05   |deigs|: 8.435e-07  t[s]:  17236.73
	FillingsUpdate:  mu: +0.482200727  nElectrons: 442.000000
SCF: Cycle:  9   F: -2018.026908839609405   dF: -6.590e-09   |Residual|: 1.541e-05   |deigs|: 6.664e-07  t[s]:  17284.44
	FillingsUpdate:  mu: +0.482200732  nElectrons: 442.000000
SCF: Cycle: 10   F: -2018.026908840539363   dF: -9.300e-10   |Residual|: 5.372e-06   |deigs|: 1.832e-07  t[s]:  17332.36
SCF: Converged (|Delta E|<1.000000e-08 for 2 iters).

Setting wave functions to eigenvectors of Hamiltonian

# Ionic positions in lattice coordinates:
ion Ru   0.250997885284310   0.247766313363560   0.251195912481738 1
ion Ru   0.000982379841991  -0.002241980870412  -0.000738852810846 1
ion Ru   0.250999551249430   0.247742069269949   0.747038893031285 1
ion Ru  -0.002433518737953  -0.005652030704509   0.499157533675546 1
ion Ru   0.249971251231380   0.746772968617706   0.249249728688359 1
ion Ru   0.000321143711707   0.495917597788597  -0.000927709864520 1
ion Ru   0.249908683985149   0.746800345164020   0.749159386511765 1
ion Ru  -0.001573469406267   0.496988565903901   0.499112916626769 1
ion Ru   0.750022712201515   0.246752792785420   0.249110260711844 1
ion Ru   0.499070357216307  -0.002906085644616  -0.000725313129878 1
ion Ru   0.750067025799355   0.246711487845949   0.749139703361416 1
ion Ru   0.500194677638678  -0.004766142422937   0.499268894654465 1
ion Ru   0.748692107492256   0.745512981048005   0.240374103622382 1
ion Ru   0.502962051793762   0.499735971842708  -0.001000407887841 1
ion Ru   0.748731968784602   0.745554664561033   0.758170359064654 1
ion Ru   0.502454317998786   0.499193287387764   0.499127859031421 1
ion O   0.347232949335419   0.344236632454662  -0.000947345588494 1
ion O   0.403533471361727   0.094847486644907   0.250442441048667 1
ion O   0.154100802978869   0.150403645762546  -0.000877320493838 1
ion O   0.097621573449849   0.399887614235197   0.250366346001932 1
ion O   0.349557393518658   0.346547015675789   0.499115864481936 1
ion O   0.403430943329638   0.094736842516961   0.747971580986940 1
ion O   0.151492120470384   0.147838408653767   0.499130180293013 1
ion O   0.097703368713887   0.399900122929157   0.747868784432644 1
ion O   0.345597343652061   0.845475444642397  -0.000764222515185 1
ion O   0.407278541672636   0.598245485131095   0.246961088766050 1
ion O   0.153306259619825   0.648541347596840  -0.000781132667002 1
ion O   0.096300093592601   0.898505402226374   0.248716116832295 1
ion O   0.346306534931052   0.844548185566036   0.499205221876696 1
ion O   0.407149952682587   0.598256134617542   0.751224955407319 1
ion O   0.152549143447860   0.649023744481025   0.499164772842806 1
ion O   0.096231172200690   0.898464726023884   0.749746909453309 1
ion O   0.848421680691020   0.342784487976948  -0.000900211788431 1
ion O   0.902106990100021   0.093439085813548   0.248648100139167 1
ion O   0.652074325232502   0.149745246456067  -0.000849565497075 1
ion O   0.601262587712131   0.403842445604116   0.246909395060932 1
ion O   0.847374650922223   0.343476702370711   0.499121033833833 1
ion O   0.902212350127859   0.093485807393317   0.749738116484036 1
ion O   0.652649520531164   0.148990341445292   0.499139899529805 1
ion O   0.601316404728101   0.403723460612089   0.751223800354487 1
ion O   0.846612210760902   0.843783441773766  -0.000723831650802 1
ion O   0.899445254269305   0.592612602748080   0.245976938061504 1
ion O   0.595433206070975   0.895918374444796   0.246158311127865 1
ion O   0.846413971793575   0.843723209361042   0.499236574520318 1
ion O   0.899544091956868   0.592715670329058   0.752226705612939 1
ion O   0.654106980422872   0.650496416061723   0.499277731327082 1
ion O   0.595384983637727   0.895831662515127   0.752499493956696 1

# Forces in Lattice coordinates:
force Ru   0.000764147923436   0.000976762641334  -0.000600753092153 1
force Ru   0.000580389763120  -0.000793673952979  -0.002014825274470 1
force Ru   0.000718875391205   0.001006115971265   0.000366112008977 1
force Ru   0.001811350485544   0.000451119077599   0.001997567668737 1
force Ru  -0.001096414712998  -0.000765655792815  -0.000963871719178 1
force Ru  -0.000621736677809  -0.000803351844812   0.001363252278347 1
force Ru  -0.000368879643175  -0.000909521882678   0.000609883619564 1
force Ru  -0.000066901949355  -0.000804363001993   0.000221799752585 1
force Ru  -0.001523451083526   0.000256509820377   0.000870264776162 1
force Ru  -0.000871398362491  -0.001118655962682  -0.000727423911637 1
force Ru  -0.001113415293878  -0.000013786860406  -0.000750102546682 1
force Ru  -0.001212567817124  -0.000978112077684  -0.000494767071737 1
force Ru   0.001202275020608   0.001767037276108  -0.000202262002055 1
force Ru  -0.000553144457619   0.000557178272752   0.000846022754738 1
force Ru  -0.000089443398488  -0.000189815535600  -0.000455071937805 1
force Ru   0.000215711347327   0.001733621029808   0.000007199763809 1
force O   0.000537283509617   0.000754020720281   0.001033144092863 1
force O  -0.002050031812854  -0.002141165036582   0.000729643581291 1
force O  -0.000095289676825   0.002930610324042   0.000550859518437 1
force O   0.001152599265356  -0.000375822785954  -0.000697322671969 1
force O   0.002283242420011   0.001587020547344  -0.000034494757867 1
force O  -0.000075334130964  -0.000663057207068   0.000230326136667 1
force O   0.000180477663845   0.001746519851667  -0.000394148756696 1
force O  -0.000832805542921   0.000492205928163  -0.000209519373801 1
force O   0.000339307705148  -0.000847782713031  -0.000540576829030 1
force O   0.000396048921893   0.001264179358383   0.000739003384021 1
force O   0.000042216961245  -0.001404335575895  -0.000541348094275 1
force O   0.000628045912347  -0.000551353812983  -0.000720857333180 1
force O   0.000311114775853  -0.001587255290292  -0.000117388579807 1
force O   0.001897359606720   0.001105437594520  -0.000956968918917 1
force O  -0.000136683647565  -0.000212337164695  -0.000106947563223 1
force O   0.000366681204758   0.002201712098525  -0.000475814808328 1
force O  -0.000554978049894  -0.000966398874829   0.000166652817040 1
force O  -0.000881327049516   0.001231256315889  -0.000040510471460 1
force O  -0.001222793266193  -0.000244537665492  -0.000364419811072 1
force O   0.002777199070801   0.001586850535813   0.000922533301794 1
force O   0.000869596479834  -0.001739105268778   0.000054566618276 1
force O  -0.001997700510385  -0.001196400552074  -0.000163860646415 1
force O  -0.001268436559866   0.000313213097958   0.000304778107824 1
force O   0.000801024508383   0.003342379990511  -0.000630748951379 1
force O   0.000474114810503   0.000225856632114  -0.000217090025767 1
force O  -0.001325028659283  -0.001134955297973   0.000329668399473 1
force O   0.000536956812061  -0.000976435628316  -0.000558378077116 1
force O   0.000775464742384  -0.001051579195166  -0.000673055686374 1
force O  -0.002522443158410  -0.002193010306121   0.000360621886875 1
force O  -0.001221413582980   0.001633658671084  -0.000647222673409 1
force O   0.000774596074135   0.001139793046322  -0.002019906874473 1

# Energy components:
   Eewald =    -1525.8888506312721347
       EH =      459.6497286859370774
     Eloc =    -1711.6341206898257497
      Enl =      357.3949002052768833
      Exc =     -316.3166920319731616
 Exc_core =       35.1437629316498885
       KE =      683.9077440008429676
-------------------------------------
     Etot =    -2017.7435275293644281
       TS =        0.2833813111750140
-------------------------------------
        F =    -2018.0269088405393632

IonicMinimize: Iter:  13  F: -2018.026908840539363  |grad|_K:  6.946e-05  alpha:  1.000e+00  linmin: -3.046e-01  t[s]:  17345.49
IonicMinimize: Converged (|grad|_K<1.000000e-04).

#--- Lowdin population analysis ---
# oxidation-state Ru +0.432 +0.429 +0.432 +0.432 +0.429 +0.429 +0.429 +0.426 +0.429 +0.429 +0.429 +0.426 +0.337 +0.351 +0.337 +0.424
# oxidation-state O -0.174 -0.189 -0.193 -0.189 -0.190 -0.189 -0.197 -0.189 -0.191 -0.185 -0.192 -0.190 -0.187 -0.184 -0.192 -0.191 -0.191 -0.190 -0.193 -0.184 -0.187 -0.191 -0.192 -0.184 -0.160 -0.186 -0.186 -0.162 -0.186 -0.202 -0.186


Dumping '/data/rc652/RuO2/vac/RuO2_vac.Ecomponents' ... done
End date and time: Sat Jul 13 21:17:43 2024  (Duration: 0-4:49:13.58)
Done!
