--------------------------------------------------------------------------
[[44433,1],2]: A high-performance Open MPI point-to-point messaging module
was unable to find any relevant network interfaces:

Module: OpenFabrics (openib)
  Host: node3220

Another transport will be used instead, although this may result in
lower performance.
--------------------------------------------------------------------------

*************** JDFTx 1.7.0 (git hash 3664913) ***************

Start date and time: Sat Jul 13 16:27:06 2024
Executable jdftx with command-line: -i RuO2_ion.in
Running on hosts (process indices):  node3220.physics.cornell.edu (0-15)
Divided in process groups (process indices):  0 (0)  1 (1)  2 (2)  3 (3)  4 (4)  5 (5)  6 (6)  7 (7)  8 (8)  9 (9)  10 (10)  11 (11)  12 (12)  13 (13)  14 (14)  15 (15)
Resource initialization completed at t[s]:      0.00
Run totals: 16 processes, 32 threads, 0 GPUs


Input parsed successfully to the following command list (including defaults):

basis kpoint-dependent
coords-type Lattice
core-overlap-check vector
coulomb-interaction Periodic
davidson-band-ratio 1.1
dump End Ecomponents
dump-name /data/rc652/RuO2/ion/RuO2_ion.$VAR
elec-cutoff 20 100
elec-eigen-algo Davidson
elec-ex-corr gga-PBEsol
elec-smearing Fermi 0.01
electronic-minimize  \
	dirUpdateScheme      FletcherReeves \
	linminMethod         DirUpdateRecommended \
	nIterations          100 \
	history              15 \
	knormThreshold       0 \
	maxThreshold         no \
	energyDiffThreshold  1e-08 \
	nEnergyDiff          2 \
	alphaTstart          1 \
	alphaTmin            1e-10 \
	updateTestStepSize   yes \
	alphaTreduceFactor   0.1 \
	alphaTincreaseFactor 3 \
	nAlphaAdjustMax      3 \
	wolfeEnergy          0.0001 \
	wolfeGradient        0.9 \
	fdTest               no
electronic-scf  \
	nIterations	50 \
	energyDiffThreshold	1e-08 \
	residualThreshold	1e-07 \
	mixFraction	0.5 \
	qMetric	0.8 \
	history	10 \
	nEigSteps	2 \
	eigDiffThreshold	1e-08 \
	mixedVariable	Density \
	qKerker	0.8 \
	qKappa	-1 \
	verbose	no \
	mixFractionMag	1.5
exchange-regularization WignerSeitzTruncated
fluid None
fluid-ex-corr lda-TF lda-PZ
fluid-gummel-loop 10 1.000000e-05
fluid-minimize  \
	dirUpdateScheme      PolakRibiere \
	linminMethod         DirUpdateRecommended \
	nIterations          100 \
	history              15 \
	knormThreshold       0 \
	maxThreshold         no \
	energyDiffThreshold  0 \
	nEnergyDiff          2 \
	alphaTstart          1 \
	alphaTmin            1e-10 \
	updateTestStepSize   yes \
	alphaTreduceFactor   0.1 \
	alphaTincreaseFactor 3 \
	nAlphaAdjustMax      3 \
	wolfeEnergy          0.0001 \
	wolfeGradient        0.9 \
	fdTest               no
fluid-solvent H2O 55.338 ScalarEOS \
	epsBulk 78.4 \
	pMol 0.92466 \
	epsInf 1.77 \
	Pvap 1.06736e-10 \
	sigmaBulk 4.62e-05 \
	Rvdw 2.61727 \
	Res 1.42 \
	tauNuc 343133 \
	poleEl 15 7 1
forces-output-coords Positions
ion Ru   0.264740000000000   0.235760000000000   0.233870000000000 1
ion Ru   0.015310000000000   0.006770000000000   0.002790000000000 1
ion Ru   0.255540000000000   0.235990000000000   0.748690000000000 1
ion Ru  -0.010120000000000  -0.014950000000000   0.507480000000000 1
ion Ru   0.243600000000000   0.761530000000000   0.260100000000000 1
ion Ru   0.000280000000000   0.485130000000000  -0.016500000000000 1
ion Ru   0.253580000000000   0.744890000000000   0.751100000000000 1
ion Ru  -0.003010000000000   0.494740000000000   0.503210000000000 1
ion Ru   0.745240000000000   0.251000000000000   0.246080000000000 1
ion Ru   0.503470000000000  -0.002200000000000   0.008490000000000 1
ion Ru   0.759610000000000   0.242390000000000   0.723690000000000 1
ion Ru   0.485920000000000  -0.002970000000000   0.502520000000000 1
ion Ru   0.746770000000000   0.770000000000000   0.258740000000000 1
ion Ru   0.499850000000000   0.494700000000000   0.008690000000000 1
ion Ru   0.749910000000000   0.741110000000000   0.749890000000000 1
ion Ru   0.485230000000000   0.511350000000000   0.499130000000000 1
ion O   0.349300000000000   0.342430000000000   0.008510000000000 1
ion O   0.391040000000000   0.097660000000000   0.271920000000000 1
ion O   0.158360000000000   0.163110000000000  -0.000710000000000 1
ion O   0.085990000000000   0.416930000000000   0.229170000000000 1
ion O   0.349080000000000   0.340840000000000   0.489820000000000 1
ion O   0.412540000000000   0.092430000000000   0.762460000000000 1
ion O   0.169090000000000   0.151630000000000   0.494240000000000 1
ion O   0.102960000000000   0.394740000000000   0.729160000000000 1
ion O   0.347900000000000   0.857130000000000  -0.013420000000000 1
ion O   0.403990000000000   0.605430000000000   0.262490000000000 1
ion O   0.161600000000000   0.659500000000000   0.001650000000000 1
ion O   0.101150000000000   0.902340000000000   0.254870000000000 1
ion O   0.324030000000000   0.846380000000000   0.510520000000000 1
ion O   0.414750000000000   0.582040000000000   0.742360000000000 1
ion O   0.148300000000000   0.650520000000000   0.486230000000000 1
ion O   0.081890000000000   0.894760000000000   0.752550000000000 1
ion O   0.855580000000000   0.339320000000000   0.007750000000000 1
ion O   0.912490000000000   0.080100000000000   0.259820000000000 1
ion O   0.639430000000000   0.151980000000000  -0.011340000000000 1
ion O   0.608980000000000   0.388040000000000   0.257180000000000 1
ion O   0.848110000000000   0.349860000000000   0.487920000000000 1
ion O   0.909090000000000   0.098380000000000   0.753930000000000 1
ion O   0.646340000000000   0.145360000000000   0.508660000000000 1
ion O   0.599560000000000   0.388440000000000   0.741740000000000 1
ion O   0.846400000000000   0.829380000000000   0.007320000000000 1
ion O   0.898860000000000   0.609340000000000   0.248470000000000 1
ion O   0.650260000000000   0.657340000000000   0.008360000000000 1
ion O   0.598980000000000   0.885890000000000   0.239030000000000 1
ion O   0.839940000000000   0.835700000000000   0.503140000000000 1
ion O   0.906120000000000   0.598690000000000   0.744710000000000 1
ion O   0.645950000000000   0.640920000000000   0.505990000000000 1
ion O   0.601400000000000   0.909400000000000   0.736830000000000 1
ion-species GBRV/$ID_pbesol.uspp
ion-width 0
ionic-minimize  \
	dirUpdateScheme      L-BFGS \
	linminMethod         DirUpdateRecommended \
	nIterations          30 \
	history              15 \
	knormThreshold       0.0001 \
	maxThreshold         no \
	energyDiffThreshold  1e-06 \
	nEnergyDiff          2 \
	alphaTstart          1 \
	alphaTmin            1e-10 \
	updateTestStepSize   yes \
	alphaTreduceFactor   0.1 \
	alphaTincreaseFactor 3 \
	nAlphaAdjustMax      3 \
	wolfeEnergy          0.0001 \
	wolfeGradient        0.9 \
	fdTest               no
kpoint   0.500000000000   0.500000000000   0.500000000000  1.00000000000000
kpoint-folding 3 3 5 
latt-move-scale 1 1 1
latt-scale 1 1 1 
lattice  \
	  16.993028931585204   -0.000000000000000   -0.000000000000000  \
	  -0.000000000000000   16.993028931585204    0.000000000000000  \
	  -0.000000000000000    0.000000000000000   11.627305865430465 
lattice-minimize  \
	dirUpdateScheme      L-BFGS \
	linminMethod         DirUpdateRecommended \
	nIterations          0 \
	history              15 \
	knormThreshold       0 \
	maxThreshold         no \
	energyDiffThreshold  1e-06 \
	nEnergyDiff          2 \
	alphaTstart          1 \
	alphaTmin            1e-10 \
	updateTestStepSize   yes \
	alphaTreduceFactor   0.1 \
	alphaTincreaseFactor 3 \
	nAlphaAdjustMax      3 \
	wolfeEnergy          0.0001 \
	wolfeGradient        0.9 \
	fdTest               no
lcao-params -1 1e-06 0.01
pcm-variant GLSSA13
perturb-minimize  \
	nIterations            0 \
	algorithm              MINRES \
	residualTol            0.0001 \
	residualDiffThreshold  0.0001 \
	CGBypass               no \
	recomputeResidual      no
spintype no-spin
subspace-rotation-factor 1 yes
symmetries automatic
symmetry-threshold 0.0001



---------- Setting up symmetries ----------

Found 16 point-group symmetries of the bravais lattice
Found 1 space-group symmetries with basis
Applied RMS atom displacement 0 bohrs to make symmetries exact.

---------- Initializing the Grid ----------
R = 
[       16.993            0            0  ]
[            0       16.993            0  ]
[            0            0      11.6273  ]
unit cell volume = 3357.54
G =
[   0.369751          0          0  ]
[          0   0.369751          0  ]
[          0          0   0.540382  ]
Minimum fftbox size, Smin = [  80  80  56  ]
Chosen fftbox size, S = [  80  80  56  ]

---------- Initializing tighter grid for wavefunction operations ----------
R = 
[       16.993            0            0  ]
[            0       16.993            0  ]
[            0            0      11.6273  ]
unit cell volume = 3357.54
G =
[   0.369751          0          0  ]
[          0   0.369751          0  ]
[          0          0   0.540382  ]
Minimum fftbox size, Smin = [  72  72  48  ]
Chosen fftbox size, S = [  72  72  48  ]

---------- Exchange Correlation functional ----------
Initalized PBEsol GGA exchange.
Initalized PBEsol GGA correlation.

---------- Setting up pseudopotentials ----------
Width of ionic core gaussian charges (only for fluid interactions / plotting) set to 0

Reading pseudopotential file '/home/rc652/build/pseudopotentials/GBRV/ru_pbesol.uspp':
  Title: Ru.  Created by USPP 7.3.6 on 3-2-2014
  Reference state energy: -96.377317.  16 valence electrons in orbitals:
    |400>  occupation: 2  eigenvalue: -3.215115
    |410>  occupation: 6  eigenvalue: -2.110081
    |420>  occupation: 6  eigenvalue: -0.566695
    |500>  occupation: 1  eigenvalue: -0.433966
    |510>  occupation: 0  eigenvalue: -0.255949
  lMax: 2  lLocal: 3  QijEcut: 6
  6 projectors sampled on a log grid with 713 points:
    l: 0  eig: -0.433966  rCut: 1.5
    l: 0  eig: -3.215115  rCut: 1.5
    l: 1  eig: -2.110081  rCut: 1.6
    l: 1  eig: -0.255949  rCut: 1.6
    l: 2  eig: -0.566695  rCut: 1.75
    l: 2  eig: 0.000000  rCut: 1.75
  Partial core density with radius 1.1
  Transforming core density to a uniform radial grid of dG=0.02 with 1296 points.
  Transforming local potential to a uniform radial grid of dG=0.02 with 1296 points.
  Transforming nonlocal projectors to a uniform radial grid of dG=0.02 with 432 points.
  Transforming density augmentations to a uniform radial grid of dG=0.02 with 1296 points.
  Transforming atomic orbitals to a uniform radial grid of dG=0.02 with 432 points.
  Core radius for overlap checks: 1.75 bohrs.

Reading pseudopotential file '/home/rc652/build/pseudopotentials/GBRV/o_pbesol.uspp':
  Title: O.  Created by USPP 7.3.6 on 3-2-2014
  Reference state energy: -15.849885.  6 valence electrons in orbitals:
    |200>  occupation: 2  eigenvalue: -0.873214
    |210>  occupation: 4  eigenvalue: -0.330058
  lMax: 2  lLocal: 2  QijEcut: 6
  5 projectors sampled on a log grid with 511 points:
    l: 0  eig: -0.873214  rCut: 1.25
    l: 0  eig: 0.000000  rCut: 1.25
    l: 1  eig: -0.330058  rCut: 1.25
    l: 1  eig: 0.000000  rCut: 1.25
    l: 2  eig: 1.000000  rCut: 1.25
  Partial core density with radius 0.7
  Transforming core density to a uniform radial grid of dG=0.02 with 1296 points.
  Transforming local potential to a uniform radial grid of dG=0.02 with 1296 points.
  Transforming nonlocal projectors to a uniform radial grid of dG=0.02 with 432 points.
  Transforming density augmentations to a uniform radial grid of dG=0.02 with 1296 points.
  Transforming atomic orbitals to a uniform radial grid of dG=0.02 with 432 points.
  Core radius for overlap checks: 1.25 bohrs.

Initialized 2 species with 48 total atoms.

Folded 1 k-points by 3x3x5 to 45 k-points.

---------- Setting up k-points, bands, fillings ----------
Adding inversion symmetry to k-mesh for non-inversion-symmetric unit cell.
Reduced to 23 k-points under symmetry. 
Computing the number of bands and number of electrons
Calculating initial fillings.
nElectrons: 448.000000   nBands: 336   nStates: 23

----- Setting up reduced wavefunction bases (one per k-point) -----
average nbasis = 14340.444 , ideal nbasis = 14343.650

---------- Setting up ewald sum ----------
Optimum gaussian width for ewald sums = 3.133599 bohr.
Real space sum over 441 unit cells with max indices [  3  3  4  ]
Reciprocal space sum over 6615 terms with max indices [  10  10  7  ]

---------- Allocating electronic variables ----------
Initializing wave functions:  linear combination of atomic orbitals
Ru pseudo-atom occupations:   s ( 2 0 )  p ( 6 0 )  d ( 8 )
O pseudo-atom occupations:   s ( 2 )  p ( 4 )
	FillingsUpdate:  mu: +0.747165560  nElectrons: 448.000000
LCAOMinimize: Iter:   0  F: -2002.4160676791636888  |grad|_K:  9.107e-03  alpha:  1.000e+00
	FillingsUpdate:  mu: +0.560461223  nElectrons: 448.000000
LCAOMinimize: Iter:   1  F: -2030.5240836775838034  |grad|_K:  4.115e-03  alpha:  3.590e-01  linmin:  1.343e-01  cgtest: -4.224e-01  t[s]:     68.43
	FillingsUpdate:  mu: +0.592462574  nElectrons: 448.000000
LCAOMinimize: Iter:   2  F: -2030.7450284746407760  |grad|_K:  2.914e-03  alpha:  3.245e-02  linmin:  5.597e-02  cgtest:  8.035e-01  t[s]:     90.92
LCAOMinimize: Encountered beta<0, resetting CG.
LCAOMinimize: 	Predicted alpha/alphaT>3.000000, increasing alphaT to 9.734196e-02.
	FillingsUpdate:  mu: +0.548671216  nElectrons: 448.000000
LCAOMinimize: Iter:   3  F: -2032.0056414731975565  |grad|_K:  2.178e-03  alpha:  1.144e-01  linmin:  1.448e-02  cgtest:  4.720e-02  t[s]:    119.86
	FillingsUpdate:  mu: +0.523666753  nElectrons: 448.000000
LCAOMinimize: Iter:   4  F: -2032.4461080738062719  |grad|_K:  8.290e-04  alpha:  7.035e-02  linmin: -6.838e-03  cgtest: -8.771e-02  t[s]:    142.81
	FillingsUpdate:  mu: +0.512706844  nElectrons: 448.000000
LCAOMinimize: Iter:   5  F: -2032.5129960760418726  |grad|_K:  3.850e-04  alpha:  7.390e-02  linmin:  2.429e-02  cgtest: -1.038e-01  t[s]:    165.82
	FillingsUpdate:  mu: +0.510929948  nElectrons: 448.000000
LCAOMinimize: Iter:   6  F: -2032.5322236402064391  |grad|_K:  3.060e-04  alpha:  1.042e-01  linmin:  4.499e-03  cgtest:  6.420e-02  t[s]:    188.29
	FillingsUpdate:  mu: +0.511624462  nElectrons: 448.000000
LCAOMinimize: Iter:   7  F: -2032.5422302164229222  |grad|_K:  2.282e-04  alpha:  8.253e-02  linmin:  8.848e-04  cgtest:  9.199e-04  t[s]:    210.92
	FillingsUpdate:  mu: +0.514182517  nElectrons: 448.000000
LCAOMinimize: Iter:   8  F: -2032.5496883846010405  |grad|_K:  2.066e-04  alpha:  1.101e-01  linmin:  5.989e-04  cgtest:  2.638e-03  t[s]:    233.91
	FillingsUpdate:  mu: +0.517234461  nElectrons: 448.000000
LCAOMinimize: Iter:   9  F: -2032.5570916343708632  |grad|_K:  1.721e-04  alpha:  1.334e-01  linmin:  5.371e-04  cgtest:  1.201e-02  t[s]:    256.68
	FillingsUpdate:  mu: +0.518016570  nElectrons: 448.000000
LCAOMinimize: Iter:  10  F: -2032.5592447829644698  |grad|_K:  6.428e-05  alpha:  5.591e-02  linmin:  1.294e-04  cgtest:  1.559e-02  t[s]:    279.59
	FillingsUpdate:  mu: +0.518249440  nElectrons: 448.000000
LCAOMinimize: Iter:  11  F: -2032.5596575704166753  |grad|_K:  3.313e-05  alpha:  7.649e-02  linmin: -5.288e-04  cgtest:  1.557e-03  t[s]:    302.26
	FillingsUpdate:  mu: +0.518231824  nElectrons: 448.000000
LCAOMinimize: Iter:  12  F: -2032.5597539234208853  |grad|_K:  1.951e-05  alpha:  6.713e-02  linmin:  9.971e-05  cgtest: -5.976e-04  t[s]:    325.16
	FillingsUpdate:  mu: +0.518202565  nElectrons: 448.000000
LCAOMinimize: Iter:  13  F: -2032.5597903758573466  |grad|_K:  6.955e-06  alpha:  7.338e-02  linmin:  3.007e-04  cgtest:  2.468e-03  t[s]:    347.60
	FillingsUpdate:  mu: +0.518201115  nElectrons: 448.000000
LCAOMinimize: Iter:  14  F: -2032.5597959076112602  |grad|_K:  6.036e-06  alpha:  8.759e-02  linmin: -4.160e-05  cgtest:  5.037e-04  t[s]:    370.22
	FillingsUpdate:  mu: +0.518198746  nElectrons: 448.000000
LCAOMinimize: Iter:  15  F: -2032.5598005539434325  |grad|_K:  4.741e-06  alpha:  9.765e-02  linmin:  2.998e-06  cgtest: -5.656e-04  t[s]:    393.47
	FillingsUpdate:  mu: +0.518195871  nElectrons: 448.000000
LCAOMinimize: Iter:  16  F: -2032.5598040643833428  |grad|_K:  3.766e-06  alpha:  1.196e-01  linmin:  3.476e-05  cgtest:  2.077e-04  t[s]:    416.38
	FillingsUpdate:  mu: +0.518201947  nElectrons: 448.000000
LCAOMinimize: Iter:  17  F: -2032.5598060814124892  |grad|_K:  3.340e-06  alpha:  1.089e-01  linmin: -3.219e-06  cgtest:  1.918e-04  t[s]:    439.56
	FillingsUpdate:  mu: +0.518212221  nElectrons: 448.000000
LCAOMinimize: Iter:  18  F: -2032.5598072134173435  |grad|_K:  1.863e-06  alpha:  7.773e-02  linmin:  2.958e-05  cgtest: -1.180e-04  t[s]:    462.20
	FillingsUpdate:  mu: +0.518215061  nElectrons: 448.000000
LCAOMinimize: Iter:  19  F: -2032.5598075267846525  |grad|_K:  8.078e-07  alpha:  6.913e-02  linmin:  5.641e-05  cgtest:  2.006e-04  t[s]:    485.63
	FillingsUpdate:  mu: +0.518215887  nElectrons: 448.000000
LCAOMinimize: Iter:  20  F: -2032.5598076207738814  |grad|_K:  7.585e-07  alpha:  1.108e-01  linmin:  7.385e-04  cgtest: -3.175e-03  t[s]:    508.49
LCAOMinimize: Converged (|Delta F|<1.000000e-06 for 2 iters).


---- Citations for features of the code used in this run ----

   Software package:
      R. Sundararaman, K. Letchworth-Weaver, K.A. Schwarz, D. Gunceler, Y. Ozhabes and T.A. Arias, 'JDFTx: software for joint density-functional theory', SoftwareX 6, 278 (2017)

   gga-PBEsol exchange-correlation functional:
      J.P. Perdew et al., Phys. Rev. Lett. 100, 136406 (2008)

   Pseudopotentials:
      KF Garrity, JW Bennett, KM Rabe and D Vanderbilt, Comput. Mater. Sci. 81, 446 (2014)

This list may not be complete. Please suggest additional citations or
report any other bugs at https://github.com/shankar1729/jdftx/issues

Initialization completed successfully at t[s]:    519.53


-------- Electronic minimization -----------
Will mix electronic density at each iteration.
	FillingsUpdate:  mu: +0.518215887  nElectrons: 448.000000
	FillingsUpdate:  mu: +0.512721104  nElectrons: 448.000000
SCF: Cycle:  0   F: -2033.717693419297802   dF: -1.158e+00   |Residual|: 5.425e-01   |deigs|: 4.584e-02  t[s]:    617.70
	FillingsUpdate:  mu: +0.498506704  nElectrons: 448.000000
SCF: Cycle:  1   F: -2033.758797397899343   dF: -4.110e-02   |Residual|: 2.225e-01   |deigs|: 1.502e-02  t[s]:    699.25
	FillingsUpdate:  mu: +0.494772635  nElectrons: 448.000000
SCF: Cycle:  2   F: -2032.885868112203070   dF: +8.729e-01   |Residual|: 4.476e-01   |deigs|: 9.444e-03  t[s]:    780.63
	FillingsUpdate:  mu: +0.493368778  nElectrons: 448.000000
SCF: Cycle:  3   F: -2033.805530575720240   dF: -9.197e-01   |Residual|: 9.735e-02   |deigs|: 7.474e-03  t[s]:    863.55
	FillingsUpdate:  mu: +0.493885898  nElectrons: 448.000000
SCF: Cycle:  4   F: -2033.812190673384293   dF: -6.660e-03   |Residual|: 7.452e-02   |deigs|: 1.637e-03  t[s]:    942.91
	FillingsUpdate:  mu: +0.494436809  nElectrons: 448.000000
SCF: Cycle:  5   F: -2033.829835948994287   dF: -1.765e-02   |Residual|: 4.577e-02   |deigs|: 1.279e-03  t[s]:   1011.72
	FillingsUpdate:  mu: +0.494694289  nElectrons: 448.000000
SCF: Cycle:  6   F: -2033.836461300609926   dF: -6.625e-03   |Residual|: 2.408e-02   |deigs|: 7.042e-04  t[s]:   1060.31
	FillingsUpdate:  mu: +0.494673888  nElectrons: 448.000000
SCF: Cycle:  7   F: -2033.839257904832721   dF: -2.797e-03   |Residual|: 9.621e-03   |deigs|: 3.330e-04  t[s]:   1108.09
	FillingsUpdate:  mu: +0.494643653  nElectrons: 448.000000
SCF: Cycle:  8   F: -2033.839618318100520   dF: -3.604e-04   |Residual|: 3.847e-03   |deigs|: 1.527e-04  t[s]:   1156.70
	FillingsUpdate:  mu: +0.494654693  nElectrons: 448.000000
SCF: Cycle:  9   F: -2033.839578619057193   dF: +3.970e-05   |Residual|: 3.794e-03   |deigs|: 8.025e-05  t[s]:   1206.92
	FillingsUpdate:  mu: +0.494666923  nElectrons: 448.000000
SCF: Cycle: 10   F: -2033.839640426108417   dF: -6.181e-05   |Residual|: 1.852e-03   |deigs|: 6.824e-05  t[s]:   1255.55
	FillingsUpdate:  mu: +0.494696174  nElectrons: 448.000000
SCF: Cycle: 11   F: -2033.839644094895448   dF: -3.669e-06   |Residual|: 1.386e-03   |deigs|: 4.261e-05  t[s]:   1304.90
	FillingsUpdate:  mu: +0.494694133  nElectrons: 448.000000
SCF: Cycle: 12   F: -2033.839650951354542   dF: -6.856e-06   |Residual|: 8.236e-04   |deigs|: 3.017e-05  t[s]:   1352.94
	FillingsUpdate:  mu: +0.494702552  nElectrons: 448.000000
SCF: Cycle: 13   F: -2033.839653628228007   dF: -2.677e-06   |Residual|: 3.487e-04   |deigs|: 1.645e-05  t[s]:   1401.36
	FillingsUpdate:  mu: +0.494705729  nElectrons: 448.000000
SCF: Cycle: 14   F: -2033.839653665668038   dF: -3.744e-08   |Residual|: 3.004e-04   |deigs|: 1.029e-05  t[s]:   1449.45
	FillingsUpdate:  mu: +0.494707332  nElectrons: 448.000000
SCF: Cycle: 15   F: -2033.839654037100445   dF: -3.714e-07   |Residual|: 1.506e-04   |deigs|: 7.949e-06  t[s]:   1498.39
	FillingsUpdate:  mu: +0.494708310  nElectrons: 448.000000
SCF: Cycle: 16   F: -2033.839654121877629   dF: -8.478e-08   |Residual|: 8.630e-05   |deigs|: 5.914e-06  t[s]:   1546.85
	FillingsUpdate:  mu: +0.494709033  nElectrons: 448.000000
SCF: Cycle: 17   F: -2033.839654111927530   dF: +9.950e-09   |Residual|: 7.906e-05   |deigs|: 4.817e-06  t[s]:   1596.44
	FillingsUpdate:  mu: +0.494709115  nElectrons: 448.000000
SCF: Cycle: 18   F: -2033.839654143263488   dF: -3.134e-08   |Residual|: 2.933e-05   |deigs|: 4.703e-06  t[s]:   1645.09
	FillingsUpdate:  mu: +0.494709146  nElectrons: 448.000000
SCF: Cycle: 19   F: -2033.839654146048588   dF: -2.785e-09   |Residual|: 1.645e-05   |deigs|: 4.490e-06  t[s]:   1693.98
	FillingsUpdate:  mu: +0.494709214  nElectrons: 448.000000
SCF: Cycle: 20   F: -2033.839654146707289   dF: -6.587e-10   |Residual|: 1.146e-05   |deigs|: 3.919e-06  t[s]:   1740.93
SCF: Converged (|Delta E|<1.000000e-08 for 2 iters).

Setting wave functions to eigenvectors of Hamiltonian

# Ionic positions in lattice coordinates:
ion Ru   0.264740000000000   0.235760000000000   0.233870000000000 1
ion Ru   0.015310000000000   0.006770000000000   0.002790000000000 1
ion Ru   0.255540000000000   0.235990000000000   0.748690000000000 1
ion Ru  -0.010120000000000  -0.014950000000000   0.507480000000000 1
ion Ru   0.243600000000000   0.761530000000000   0.260100000000000 1
ion Ru   0.000280000000000   0.485130000000000  -0.016500000000000 1
ion Ru   0.253580000000000   0.744890000000000   0.751100000000000 1
ion Ru  -0.003010000000000   0.494740000000000   0.503210000000000 1
ion Ru   0.745240000000000   0.251000000000000   0.246080000000000 1
ion Ru   0.503470000000000  -0.002200000000000   0.008490000000000 1
ion Ru   0.759610000000000   0.242390000000000   0.723690000000000 1
ion Ru   0.485920000000000  -0.002970000000000   0.502520000000000 1
ion Ru   0.746770000000000   0.770000000000000   0.258740000000000 1
ion Ru   0.499850000000000   0.494700000000000   0.008690000000000 1
ion Ru   0.749910000000000   0.741110000000000   0.749890000000000 1
ion Ru   0.485230000000000   0.511350000000000   0.499130000000000 1
ion O   0.349300000000000   0.342430000000000   0.008510000000000 1
ion O   0.391040000000000   0.097660000000000   0.271920000000000 1
ion O   0.158360000000000   0.163110000000000  -0.000710000000000 1
ion O   0.085990000000000   0.416930000000000   0.229170000000000 1
ion O   0.349080000000000   0.340840000000000   0.489820000000000 1
ion O   0.412540000000000   0.092430000000000   0.762460000000000 1
ion O   0.169090000000000   0.151630000000000   0.494240000000000 1
ion O   0.102960000000000   0.394740000000000   0.729160000000000 1
ion O   0.347900000000000   0.857130000000000  -0.013420000000000 1
ion O   0.403990000000000   0.605430000000000   0.262490000000000 1
ion O   0.161600000000000   0.659500000000000   0.001650000000000 1
ion O   0.101150000000000   0.902340000000000   0.254870000000000 1
ion O   0.324030000000000   0.846380000000000   0.510520000000000 1
ion O   0.414750000000000   0.582040000000000   0.742360000000000 1
ion O   0.148300000000000   0.650520000000000   0.486230000000000 1
ion O   0.081890000000000   0.894760000000000   0.752550000000000 1
ion O   0.855580000000000   0.339320000000000   0.007750000000000 1
ion O   0.912490000000000   0.080100000000000   0.259820000000000 1
ion O   0.639430000000000   0.151980000000000  -0.011340000000000 1
ion O   0.608980000000000   0.388040000000000   0.257180000000000 1
ion O   0.848110000000000   0.349860000000000   0.487920000000000 1
ion O   0.909090000000000   0.098380000000000   0.753930000000000 1
ion O   0.646340000000000   0.145360000000000   0.508660000000000 1
ion O   0.599560000000000   0.388440000000000   0.741740000000000 1
ion O   0.846400000000000   0.829380000000000   0.007320000000000 1
ion O   0.898860000000000   0.609340000000000   0.248470000000000 1
ion O   0.650260000000000   0.657340000000000   0.008360000000000 1
ion O   0.598980000000000   0.885890000000000   0.239030000000000 1
ion O   0.839940000000000   0.835700000000000   0.503140000000000 1
ion O   0.906120000000000   0.598690000000000   0.744710000000000 1
ion O   0.645950000000000   0.640920000000000   0.505990000000000 1
ion O   0.601400000000000   0.909400000000000   0.736830000000000 1

# Forces in Lattice coordinates:
force Ru  -1.388291186158773   1.707923141071033   0.845904175734560 1
force Ru  -0.687490893272296  -0.497207107379479   0.078860598667365 1
force Ru   0.347082712645397   0.880167219021091  -0.387856882498544 1
force Ru   0.665764382681436   0.364271308779981  -0.070566935543043 1
force Ru   0.331616514996363  -0.958331607488152  -0.702704948649121 1
force Ru  -0.057222376751032   1.219041976078303   0.075348453679007 1
force Ru  -0.509759716806563  -0.188736004185385   0.214178878245243 1
force Ru   0.128801462226488   0.638916102599443  -0.745656120226201 1
force Ru   0.746082524001783  -1.097317665536062  -0.067550073063658 1
force Ru  -0.054715222852800  -0.237189055280786  -0.278123744049064 1
force Ru  -0.726685841060026   0.286782471565636   0.815049907978681 1
force Ru   0.534576079306991  -0.210879876229821   0.175501161872307 1
force Ru   0.779391608270926  -2.662559096588022  -0.412553876027929 1
force Ru   0.610993685439497  -0.060972979126352   0.003454590707606 1
force Ru  -0.384887768276557   0.056768166695665   0.316171341235798 1
force Ru   1.229482278107906  -1.734945701328046  -0.412634392001385 1
force O   0.260837245602966   0.216151604658272  -0.383120464631013 1
force O   1.210488167891036  -1.234912504575261  -0.309946318294455 1
force O  -0.461921456719369  -0.652748102870045  -0.154694896977798 1
force O   0.641242481177406  -0.652480834441759   0.476955098287250 1
force O   0.011713866851954   0.098783232780847   0.062687148107158 1
force O  -0.414130319809942   0.173654869630300  -0.142172549747480 1
force O  -0.639002913487777  -0.506725392739041   0.026594515100092 1
force O   0.139343190051303  -0.226087975499215   0.331045052369641 1
force O  -0.218056661641808  -0.345338632404195   0.260764301572898 1
force O  -0.401618975722774   0.299979176571573  -0.388689932630891 1
force O  -0.245443386982677  -0.416696650596663   0.007206963284422 1
force O  -0.523923292955436   0.456349383466114  -0.038618104180039 1
force O   0.884337943560512   0.607811454526999  -0.057268033509582 1
force O  -1.033345235850146   0.936167671163694   0.778490955224514 1
force O   0.090328107859209   0.011918050387592   0.359510859409375 1
force O   0.561163078565020  -0.254585589232303   0.099784275957466 1
force O  -0.396841838152458  -0.329919773314022  -0.321601332399727 1
force O  -0.525811654960729   0.642495970778514  -0.205770442988679 1
force O   0.819538519920755   0.400441733595913   0.187963120422843 1
force O  -1.151925312528739   1.115266742451933  -0.159737094957676 1
force O   0.008271144263962  -0.241345754812452   0.017912118517903 1
force O   0.067611910672774  -0.161464776159268  -0.036873995099125 1
force O   0.114433810187024  -0.058717838985354  -0.504424666186472 1
force O  -0.205873048660733   0.413591653584436   0.129058008659032 1
force O   0.448866382377966   0.837955311667732  -0.222925926951077 1
force O   0.216516974546002  -0.504789875384660   0.060142708325806 1
force O  -0.054237933342543  -0.226149191073097  -0.118987853945413 1
force O  -1.465040856329216   1.457811444624074   0.217142603116559 1
force O   0.511569434769806   0.607734073732739   0.236634237498511 1
force O  -0.111228950223403  -0.143008453810673   0.079582699690700 1
force O   0.358375547257527   0.552721674993395  -0.017240821671602 1
force O  -0.064281824546141  -0.375891050012042   0.286013949212677 1

# Energy components:
   Eewald =    -1540.4774152829611467
       EH =      464.5692329614041114
     Eloc =    -1725.3158970799950112
      Enl =      359.9133034802745215
      Exc =     -320.3880286038308896
 Exc_core =       35.2066408923876395
       KE =      692.9257812947546427
-------------------------------------
     Etot =    -2033.5663823379661608
       TS =        0.2732718087412291
-------------------------------------
        F =    -2033.8396541467072893

IonicMinimize: Iter:   0  F: -2033.839654146707289  |grad|_K:  3.773e-02  t[s]:   1754.19

#--- Lowdin population analysis ---
# oxidation-state Ru +0.448 +0.399 +0.413 +0.411 +0.424 +0.450 +0.411 +0.430 +0.425 +0.401 +0.434 +0.382 +0.481 +0.386 +0.420 +0.473
# oxidation-state O -0.181 -0.093 -0.135 -0.201 -0.237 -0.153 -0.229 -0.185 -0.207 -0.183 -0.227 -0.148 -0.155 -0.119 -0.200 -0.186 -0.178 -0.217 -0.213 -0.151 -0.147 -0.172 -0.186 -0.254 -0.192 -0.275 -0.230 -0.129 -0.127 -0.177 -0.214 -0.222


-------- Electronic minimization -----------
Will mix electronic density at each iteration.
	FillingsUpdate:  mu: +0.494709214  nElectrons: 448.000000
	FillingsUpdate:  mu: +0.496637854  nElectrons: 448.000000
SCF: Cycle:  0   F: -2024.139039477116285   dF: +8.273e+00   |Residual|: 1.306e+00   |deigs|: 6.508e-03  t[s]:   1868.78
	FillingsUpdate:  mu: +0.509812885  nElectrons: 448.000000
SCF: Cycle:  1   F: -2003.480747449497358   dF: +2.066e+01   |Residual|: 2.144e+00   |deigs|: 3.213e-02  t[s]:   1952.04
	FillingsUpdate:  mu: +0.495159122  nElectrons: 448.000000
SCF: Cycle:  2   F: -2030.818450308053343   dF: -2.734e+01   |Residual|: 7.347e-01   |deigs|: 3.391e-02  t[s]:   2032.55
	FillingsUpdate:  mu: +0.494811530  nElectrons: 448.000000
SCF: Cycle:  3   F: -2031.964815150035520   dF: -1.146e+00   |Residual|: 5.814e-01   |deigs|: 5.224e-03  t[s]:   2115.27
	FillingsUpdate:  mu: +0.493472639  nElectrons: 448.000000
SCF: Cycle:  4   F: -2033.413455407944639   dF: -1.449e+00   |Residual|: 3.294e-01   |deigs|: 5.802e-03  t[s]:   2197.42
	FillingsUpdate:  mu: +0.493025474  nElectrons: 448.000000
SCF: Cycle:  5   F: -2033.854071299749194   dF: -4.406e-01   |Residual|: 1.420e-01   |deigs|: 3.088e-03  t[s]:   2279.37
	FillingsUpdate:  mu: +0.492920263  nElectrons: 448.000000
SCF: Cycle:  6   F: -2033.837506088912960   dF: +1.657e-02   |Residual|: 1.492e-01   |deigs|: 1.228e-03  t[s]:   2360.22
	FillingsUpdate:  mu: +0.492676063  nElectrons: 448.000000
SCF: Cycle:  7   F: -2033.931779182670425   dF: -9.427e-02   |Residual|: 5.523e-02   |deigs|: 1.209e-03  t[s]:   2440.75
	FillingsUpdate:  mu: +0.492756318  nElectrons: 448.000000
SCF: Cycle:  8   F: -2033.935369010318936   dF: -3.590e-03   |Residual|: 3.860e-02   |deigs|: 5.040e-04  t[s]:   2489.36
	FillingsUpdate:  mu: +0.492731318  nElectrons: 448.000000
SCF: Cycle:  9   F: -2033.941744191561611   dF: -6.375e-03   |Residual|: 1.989e-02   |deigs|: 4.083e-04  t[s]:   2537.58
	FillingsUpdate:  mu: +0.492720492  nElectrons: 448.000000
SCF: Cycle: 10   F: -2033.943338308164357   dF: -1.594e-03   |Residual|: 5.711e-03   |deigs|: 2.415e-04  t[s]:   2585.16
	FillingsUpdate:  mu: +0.492722335  nElectrons: 448.000000
SCF: Cycle: 11   F: -2033.943041469610080   dF: +2.968e-04   |Residual|: 9.196e-03   |deigs|: 1.572e-04  t[s]:   2634.39
	FillingsUpdate:  mu: +0.492728843  nElectrons: 448.000000
SCF: Cycle: 12   F: -2033.943424380942133   dF: -3.829e-04   |Residual|: 3.619e-03   |deigs|: 1.446e-04  t[s]:   2684.19
	FillingsUpdate:  mu: +0.492731509  nElectrons: 448.000000
SCF: Cycle: 13   F: -2033.943441025139009   dF: -1.664e-05   |Residual|: 2.142e-03   |deigs|: 5.931e-05  t[s]:   2731.99
	FillingsUpdate:  mu: +0.492729164  nElectrons: 448.000000
SCF: Cycle: 14   F: -2033.943451258469850   dF: -1.023e-05   |Residual|: 1.820e-03   |deigs|: 4.269e-05  t[s]:   2780.35
	FillingsUpdate:  mu: +0.492728252  nElectrons: 448.000000
SCF: Cycle: 15   F: -2033.943463358381678   dF: -1.210e-05   |Residual|: 1.220e-03   |deigs|: 3.457e-05  t[s]:   2827.70
	FillingsUpdate:  mu: +0.492725935  nElectrons: 448.000000
SCF: Cycle: 16   F: -2033.943469300809056   dF: -5.942e-06   |Residual|: 5.722e-04   |deigs|: 2.074e-05  t[s]:   2875.06
	FillingsUpdate:  mu: +0.492726731  nElectrons: 448.000000
SCF: Cycle: 17   F: -2033.943469134378120   dF: +1.664e-07   |Residual|: 6.474e-04   |deigs|: 1.277e-05  t[s]:   2924.73
	FillingsUpdate:  mu: +0.492726453  nElectrons: 448.000000
SCF: Cycle: 18   F: -2033.943470777528546   dF: -1.643e-06   |Residual|: 3.243e-04   |deigs|: 1.070e-05  t[s]:   2973.22
	FillingsUpdate:  mu: +0.492726373  nElectrons: 448.000000
SCF: Cycle: 19   F: -2033.943471146707452   dF: -3.692e-07   |Residual|: 1.618e-04   |deigs|: 4.869e-06  t[s]:   3021.06
	FillingsUpdate:  mu: +0.492726039  nElectrons: 448.000000
SCF: Cycle: 20   F: -2033.943471185112003   dF: -3.840e-08   |Residual|: 1.231e-04   |deigs|: 3.456e-06  t[s]:   3070.04
	FillingsUpdate:  mu: +0.492725897  nElectrons: 448.000000
SCF: Cycle: 21   F: -2033.943471243039312   dF: -5.793e-08   |Residual|: 6.402e-05   |deigs|: 2.067e-06  t[s]:   3118.21
	FillingsUpdate:  mu: +0.492725888  nElectrons: 448.000000
SCF: Cycle: 22   F: -2033.943471245587489   dF: -2.548e-09   |Residual|: 5.758e-05   |deigs|: 1.473e-06  t[s]:   3167.74
	FillingsUpdate:  mu: +0.492725945  nElectrons: 448.000000
SCF: Cycle: 23   F: -2033.943471257018246   dF: -1.143e-08   |Residual|: 2.655e-05   |deigs|: 1.021e-06  t[s]:   3215.93
	FillingsUpdate:  mu: +0.492725967  nElectrons: 448.000000
SCF: Cycle: 24   F: -2033.943471256203566   dF: +8.147e-10   |Residual|: 2.519e-05   |deigs|: 6.799e-07  t[s]:   3264.87
	FillingsUpdate:  mu: +0.492725935  nElectrons: 448.000000
SCF: Cycle: 25   F: -2033.943471259036414   dF: -2.833e-09   |Residual|: 1.375e-05   |deigs|: 5.623e-07  t[s]:   3312.59
	FillingsUpdate:  mu: +0.492725904  nElectrons: 448.000000
SCF: Cycle: 26   F: -2033.943471259477747   dF: -4.413e-10   |Residual|: 9.656e-06   |deigs|: 3.600e-07  t[s]:   3358.01
SCF: Converged (|Delta E|<1.000000e-08 for 2 iters).

Setting wave functions to eigenvectors of Hamiltonian

# Ionic positions in lattice coordinates:
ion Ru   0.261862608425787   0.239299881011522   0.237614730644136 1
ion Ru   0.013885168934711   0.005739270598764   0.003138920547816 1
ion Ru   0.256259546981901   0.237814177442900   0.746972696434798 1
ion Ru  -0.008739916181127  -0.014195128654055   0.507167383779227 1
ion Ru   0.244287489934899   0.759543490121281   0.256988819641085 1
ion Ru   0.000161537049007   0.487656568829674  -0.016166628213386 1
ion Ru   0.252523555322044   0.744498643822765   0.752047993656236 1
ion Ru  -0.002742888223129   0.496064132211748   0.499908668746858 1
ion Ru   0.746786560576112   0.248725411390064   0.245780739854909 1
ion Ru   0.503356733668899  -0.002691785628068   0.007258500515020 1
ion Ru   0.758103928909722   0.242984258934731   0.727298134449223 1
ion Ru   0.487028167624418  -0.003407254151841   0.503296761950908 1
ion Ru   0.748385600873168   0.764481109250417   0.256913359361282 1
ion Ru   0.501116559677020   0.494573460385465   0.008705087515628 1
ion Ru   0.749112379501982   0.741227504431154   0.751289528674489 1
ion Ru   0.487778511345775   0.507753789076867   0.497303002905712 1
ion O   0.349840784557326   0.342877861153477   0.006813665224702 1
ion O   0.393549141935284   0.095100216261796   0.270547617490712 1
ion O   0.157402710485253   0.161756878171332  -0.001395062571103 1
ion O   0.087319256862763   0.415577432143082   0.231281341043230 1
ion O   0.349104422356145   0.341044589762588   0.490097318401150 1
ion O   0.411681767975462   0.092789777458755   0.761830375626186 1
ion O   0.167765670782823   0.150579541889221   0.494357531224472 1
ion O   0.103248961792760   0.394271223765993   0.730625376691405 1
ion O   0.347448173131947   0.856414050931390  -0.012265766104478 1
ion O   0.403157700447978   0.606051611966307   0.260769008404372 1
ion O   0.161091408207471   0.658636145971484   0.001681699798244 1
ion O   0.100064198240450   0.903285723114108   0.254698825761602 1
ion O   0.325863124900691   0.847639661086532   0.510266259894151 1
ion O   0.412608310844085   0.583980250518339   0.745806282809257 1
ion O   0.148487367410656   0.650544542843622   0.487821398833869 1
ion O   0.083053274943243   0.894232156284533   0.752991552618168 1
ion O   0.854757602101061   0.338636009858968   0.006326019099493 1
ion O   0.911400284200883   0.081431552264503   0.258908818783224 1
ion O   0.641128814049603   0.152809842391494  -0.010508067201005 1
ion O   0.606592527932353   0.390351472164190   0.256472614907310 1
ion O   0.848127286567354   0.349359598711167   0.487999093030274 1
ion O   0.909230283168140   0.098045169354022   0.753766547178485 1
ion O   0.646577331703760   0.145238134652220   0.506426634416175 1
ion O   0.599133426310709   0.389297098450980   0.742311151561484 1
ion O   0.847330515699534   0.831116684115271   0.006332869036184 1
ion O   0.899308921188923   0.608293553668470   0.248736053807380 1
ion O   0.650147722954864   0.656871096883447   0.007833017544375 1
ion O   0.595943528098490   0.888911470307694   0.239991114484233 1
ion O   0.841000481366811   0.836959500698063   0.504187406698661 1
ion O   0.905889596719295   0.598393424082588   0.745062117390889 1
ion O   0.646692953829412   0.642065475577468   0.505913466006230 1
ion O   0.601266904813282   0.908620724423511   0.738096017646729 1

# Forces in Lattice coordinates:
force Ru  -0.924036500545056   1.056661433537744   0.606798571855498 1
force Ru  -0.631386945237629  -0.431055990470270   0.037921967080678 1
force Ru   0.200104773458118   0.713607316752041  -0.237175370374101 1
force Ru   0.567295029582866   0.371911391966305  -0.053956443893188 1
force Ru   0.263007264710033  -0.679582662812314  -0.476441148441547 1
force Ru  -0.023303802566439   0.941874626494547   0.112243178161687 1
force Ru  -0.368963665758507  -0.096670676636295   0.077148789447984 1
force Ru   0.132995451151557   0.460815321632114  -0.528435028552473 1
force Ru   0.429917518509825  -0.735189682650514   0.006041112525770 1
force Ru  -0.047461797815719  -0.093883150363040  -0.238682398079310 1
force Ru  -0.596973348775159   0.218702714906907   0.655204542860190 1
force Ru   0.533344414420084  -0.209481081033139   0.129399210133122 1
force Ru   0.167209767670878  -1.776329995559085  -0.271969521930444 1
force Ru   0.408693233040587  -0.006245747567738  -0.042077812413508 1
force Ru  -0.247555192864624   0.131516870703841   0.200247542387689 1
force Ru   0.965062474744330  -1.265431888645547  -0.148518547485171 1
force O   0.201536733321538   0.140178269947157  -0.280200939510322 1
force O   0.653169898118923  -0.625022341792013  -0.381070720108267 1
force O  -0.289349142917392  -0.517805539774697  -0.115388166759338 1
force O   0.575915936243892  -0.605417142894113   0.372163317068156 1
force O   0.007010378313283   0.087467363761638   0.073557849890856 1
force O  -0.350999160272307   0.149837817962564  -0.139335796753295 1
force O  -0.562212356367418  -0.426092775418966   0.045412606904870 1
force O   0.027576208283312  -0.081492316218552   0.249885082865872 1
force O  -0.206915163756038  -0.335577237618525   0.230763743994986 1
force O  -0.256658059662638   0.139088266770648  -0.294287273232537 1
force O  -0.292662268553983  -0.427361238671909   0.005905923260241 1
force O  -0.347613258742114   0.262212021971275  -0.035505855230184 1
force O   0.712456416355315   0.419470396264079  -0.072861540660238 1
force O  -0.728998839219932   0.658322185806961   0.439639890535904 1
force O   0.104482108368570   0.038889159715826   0.296761611301949 1
force O   0.515413368919106  -0.208091328148592   0.081166856045721 1
force O  -0.292143947758310  -0.200746404913459  -0.302001353068369 1
force O  -0.484765690338173   0.584504728574763  -0.167195800936665 1
force O   0.688952717729293   0.267302600432050   0.155219670569650 1
force O  -0.766552094340703   0.749589526959930  -0.143891290649873 1
force O   0.010662534613924  -0.221593726990196   0.037737894321375 1
force O   0.015671345859722  -0.132725078126461  -0.041742007380446 1
force O   0.145830385438251  -0.017540492163229  -0.403422936649775 1
force O  -0.211612361451222   0.407814604296820   0.110025748045984 1
force O   0.346591161678054   0.722079462997131  -0.180044056481254 1
force O   0.242118839378768  -0.494556879036554   0.018076101230517 1
force O  -0.024997309973506  -0.219808293017556  -0.090021577984142 1
force O  -0.708462770255356   0.837046080517809   0.273876594120845 1
force O   0.353083022764035   0.459815136304947   0.140751334778667 1
force O  -0.122018812970967  -0.139354017874934   0.045240623366613 1
force O   0.287442612744427   0.478898903960866  -0.031867819415198 1
force O  -0.072539317060580  -0.348660153918702   0.277541540768566 1

# Energy components:
   Eewald =    -1543.3194184705312182
       EH =      462.0057201954667221
     Eloc =    -1719.5272205800697520
      Enl =      359.7901687220842746
      Exc =     -320.2649268874612858
 Exc_core =       35.2066288912452023
       KE =      692.4408129791169131
-------------------------------------
     Etot =    -2033.6682351501490302
       TS =        0.2752361093287104
-------------------------------------
        F =    -2033.9434712594777466

IonicMinimize: Iter:   1  F: -2033.943471259477747  |grad|_K:  2.698e-02  alpha:  5.985e-01  linmin: -9.810e-01  t[s]:   3371.53

#--- Lowdin population analysis ---
# oxidation-state Ru +0.441 +0.408 +0.418 +0.418 +0.425 +0.445 +0.418 +0.432 +0.423 +0.415 +0.433 +0.402 +0.466 +0.401 +0.426 +0.462
# oxidation-state O -0.182 -0.123 -0.145 -0.202 -0.218 -0.158 -0.222 -0.190 -0.203 -0.184 -0.213 -0.155 -0.166 -0.146 -0.198 -0.187 -0.180 -0.210 -0.210 -0.166 -0.155 -0.176 -0.188 -0.242 -0.195 -0.252 -0.217 -0.160 -0.137 -0.179 -0.210 -0.217


-------- Electronic minimization -----------
Will mix electronic density at each iteration.
	FillingsUpdate:  mu: +0.492725904  nElectrons: 448.000000
	FillingsUpdate:  mu: +0.496533445  nElectrons: 448.000000
SCF: Cycle:  0   F: -2019.290410409679680   dF: +1.254e+01   |Residual|: 1.589e+00   |deigs|: 8.908e-03  t[s]:   3485.02
	FillingsUpdate:  mu: +0.515929941  nElectrons: 448.000000
SCF: Cycle:  1   F: -1986.822113438198130   dF: +3.247e+01   |Residual|: 2.663e+00   |deigs|: 4.105e-02  t[s]:   3566.07
	FillingsUpdate:  mu: +0.494356871  nElectrons: 448.000000
SCF: Cycle:  2   F: -2029.632067875395251   dF: -4.281e+01   |Residual|: 9.108e-01   |deigs|: 4.529e-02  t[s]:   3647.24
	FillingsUpdate:  mu: +0.493891286  nElectrons: 448.000000
SCF: Cycle:  3   F: -2031.546848780938490   dF: -1.915e+00   |Residual|: 6.740e-01   |deigs|: 8.497e-03  t[s]:   3728.57
	FillingsUpdate:  mu: +0.491929813  nElectrons: 448.000000
SCF: Cycle:  4   F: -2033.324465110347774   dF: -1.778e+00   |Residual|: 3.970e-01   |deigs|: 7.848e-03  t[s]:   3811.05
	FillingsUpdate:  mu: +0.491268565  nElectrons: 448.000000
SCF: Cycle:  5   F: -2033.878881192463723   dF: -5.544e-01   |Residual|: 1.774e-01   |deigs|: 3.008e-03  t[s]:   3893.38
	FillingsUpdate:  mu: +0.490847959  nElectrons: 448.000000
SCF: Cycle:  6   F: -2033.843891041987035   dF: +3.499e-02   |Residual|: 1.813e-01   |deigs|: 1.331e-03  t[s]:   3974.13
	FillingsUpdate:  mu: +0.490625524  nElectrons: 448.000000
SCF: Cycle:  7   F: -2034.004838822766715   dF: -1.609e-01   |Residual|: 7.708e-02   |deigs|: 1.000e-03  t[s]:   4054.50
	FillingsUpdate:  mu: +0.490788002  nElectrons: 448.000000
SCF: Cycle:  8   F: -2034.023448068179050   dF: -1.861e-02   |Residual|: 4.444e-02   |deigs|: 6.165e-04  t[s]:   4122.45
	FillingsUpdate:  mu: +0.490786050  nElectrons: 448.000000
SCF: Cycle:  9   F: -2034.028515434638393   dF: -5.067e-03   |Residual|: 2.995e-02   |deigs|: 4.082e-04  t[s]:   4172.05
	FillingsUpdate:  mu: +0.490721181  nElectrons: 448.000000
SCF: Cycle: 10   F: -2034.033188807573197   dF: -4.673e-03   |Residual|: 6.561e-03   |deigs|: 2.519e-04  t[s]:   4220.37
	FillingsUpdate:  mu: +0.490730088  nElectrons: 448.000000
SCF: Cycle: 11   F: -2034.032507655138716   dF: +6.812e-04   |Residual|: 1.205e-02   |deigs|: 1.416e-04  t[s]:   4268.16
	FillingsUpdate:  mu: +0.490738095  nElectrons: 448.000000
SCF: Cycle: 12   F: -2034.033313016621378   dF: -8.054e-04   |Residual|: 4.153e-03   |deigs|: 1.439e-04  t[s]:   4317.64
	FillingsUpdate:  mu: +0.490738168  nElectrons: 448.000000
SCF: Cycle: 13   F: -2034.033296625366802   dF: +1.639e-05   |Residual|: 3.072e-03   |deigs|: 7.347e-05  t[s]:   4365.84
	FillingsUpdate:  mu: +0.490739009  nElectrons: 448.000000
SCF: Cycle: 14   F: -2034.033359512227435   dF: -6.289e-05   |Residual|: 1.636e-03   |deigs|: 4.849e-05  t[s]:   4415.24
	FillingsUpdate:  mu: +0.490736987  nElectrons: 448.000000
SCF: Cycle: 15   F: -2034.033357919588752   dF: +1.593e-06   |Residual|: 1.697e-03   |deigs|: 3.568e-05  t[s]:   4464.58
	FillingsUpdate:  mu: +0.490734612  nElectrons: 448.000000
SCF: Cycle: 16   F: -2034.033370976362448   dF: -1.306e-05   |Residual|: 6.227e-04   |deigs|: 2.559e-05  t[s]:   4513.43
	FillingsUpdate:  mu: +0.490735332  nElectrons: 448.000000
SCF: Cycle: 17   F: -2034.033370587822446   dF: +3.885e-07   |Residual|: 6.864e-04   |deigs|: 1.342e-05  t[s]:   4561.37
	FillingsUpdate:  mu: +0.490735330  nElectrons: 448.000000
SCF: Cycle: 18   F: -2034.033372027100768   dF: -1.439e-06   |Residual|: 4.324e-04   |deigs|: 1.297e-05  t[s]:   4611.70
	FillingsUpdate:  mu: +0.490735419  nElectrons: 448.000000
SCF: Cycle: 19   F: -2034.033373035903196   dF: -1.009e-06   |Residual|: 1.456e-04   |deigs|: 6.270e-06  t[s]:   4660.23
	FillingsUpdate:  mu: +0.490734771  nElectrons: 448.000000
SCF: Cycle: 20   F: -2034.033373012696984   dF: +2.321e-08   |Residual|: 1.478e-04   |deigs|: 3.048e-06  t[s]:   4707.90
	FillingsUpdate:  mu: +0.490734527  nElectrons: 448.000000
SCF: Cycle: 21   F: -2034.033373103589156   dF: -9.089e-08   |Residual|: 6.570e-05   |deigs|: 2.328e-06  t[s]:   4757.21
	FillingsUpdate:  mu: +0.490734684  nElectrons: 448.000000
SCF: Cycle: 22   F: -2034.033373104143948   dF: -5.548e-10   |Residual|: 5.589e-05   |deigs|: 1.112e-06  t[s]:   4805.61
	FillingsUpdate:  mu: +0.490734688  nElectrons: 448.000000
SCF: Cycle: 23   F: -2034.033373111716628   dF: -7.573e-09   |Residual|: 4.281e-05   |deigs|: 1.146e-06  t[s]:   4853.04
SCF: Converged (|Delta E|<1.000000e-08 for 2 iters).

Setting wave functions to eigenvectors of Hamiltonian

# Ionic positions in lattice coordinates:
ion Ru   0.258923872914503   0.242317065153540   0.242137196334605 1
ion Ru   0.011132065446980   0.003938942479147   0.003262546064178 1
ion Ru   0.256763674933479   0.240631601868791   0.745553002227665 1
ion Ru  -0.006403024648485  -0.012457281369622   0.506736254069853 1
ion Ru   0.245305512302411   0.757203074317620   0.253671669398571 1
ion Ru   0.000151013675701   0.491211649494764  -0.014836091899084 1
ion Ru   0.251223044483643   0.744315228774355   0.751972524937866 1
ion Ru  -0.002117022220343   0.497682158775885   0.496023960068020 1
ion Ru   0.747868306202324   0.246366347180944   0.246288247047628 1
ion Ru   0.503158642737183  -0.002716111989070   0.005145912224001 1
ion Ru   0.755719678818627   0.243799069127138   0.732780793169915 1
ion Ru   0.489485889033577  -0.004369949330002   0.504290495563178 1
ion Ru   0.747410380065566   0.758813525940708   0.255089196367073 1
ion Ru   0.502425306931791   0.494700742612440   0.008012252038794 1
ion Ru   0.748362202566636   0.742047603253765   0.752555943760843 1
ion Ru   0.491477253867731   0.503254465889004   0.497448506500797 1
ion O   0.350601726662392   0.343307808294311   0.004678797069900 1
ion O   0.394972862385396   0.093956542878709   0.266357750155256 1
ion O   0.156560247109476   0.159752571143172  -0.002293309958110 1
ion O   0.089790508247855   0.412918075544176   0.234309973912508 1
ion O   0.349123561882469   0.341415826012369   0.490887956458506 1
ion O   0.410242517454126   0.093413136167859   0.760473810437924 1
ion O   0.165390794807838   0.148843441752812   0.494919217472318 1
ion O   0.103057469670743   0.394307753288065   0.732592904344244 1
ion O   0.346525408622918   0.854893372089203  -0.010174862770608 1
ion O   0.402387289093014   0.606234198689785   0.258443395602176 1
ion O   0.159606434967036   0.656633656281274   0.001731384713254 1
ion O   0.098963551921520   0.903941566396193   0.254367265373481 1
ion O   0.328660340065918   0.849037686025602   0.509452512884807 1
ion O   0.410113208614572   0.586224993949388   0.748073290915511 1
ion O   0.149010086754609   0.650800883889045   0.490363150166615 1
ion O   0.085301214814581   0.893404563604654   0.753677444731664 1
ion O   0.853708548150276   0.338078251851150   0.003468433910303 1
ion O   0.909280767036797   0.083963080200462   0.257495504206249 1
ion O   0.643935421945124   0.153663246965319  -0.009178428732623 1
ion O   0.604155370603416   0.392766705449723   0.255150445699621 1
ion O   0.848183525097691   0.348393386840508   0.488491281088390 1
ion O   0.909154585896491   0.097514674244082   0.753324882604479 1
ion O   0.647340050719229   0.145274631753461   0.503065627238318 1
ion O   0.598140814353657   0.391162325978339   0.743278942133009 1
ion O   0.848638147833275   0.834117839729000   0.004819178624962 1
ion O   0.900499409586434   0.606040637521251   0.248657207399758 1
ion O   0.650116035643153   0.655874851999270   0.007121749726575 1
ion O   0.594833727492755   0.891002306637080   0.243035601078028 1
ion O   0.842177658157254   0.838659042548989   0.504989595045564 1
ion O   0.905295985324310   0.597760754657625   0.745298081931043 1
ion O   0.647817097601357   0.644064525607625   0.505509635452409 1
ion O   0.600908834372994   0.907089529830092   0.740779173210567 1

# Forces in Lattice coordinates:
force Ru  -0.684409898386166   0.681374580512001   0.295450601149581 1
force Ru  -0.514640247572431  -0.336186836985289   0.001999689167772 1
force Ru   0.023768650511152   0.483415471279345  -0.090147649645656 1
force Ru   0.420063963341341   0.348548531989441  -0.042425551610395 1
force Ru   0.187350215139749  -0.420555364441198  -0.263485518820786 1
force Ru   0.023124607861051   0.598865070037172   0.149953461369853 1
force Ru  -0.231449895684692  -0.023153569764707   0.012209140500353 1
force Ru   0.101806292703178   0.239641230885443  -0.288143182334459 1
force Ru   0.269621229150458  -0.428225783771265   0.029946806016536 1
force Ru  -0.069117450701158  -0.014099630434268  -0.123740368537383 1
force Ru  -0.378455914417072   0.147403705953286   0.434084400756769 1
force Ru   0.398835900607476  -0.101142131090430  -0.005746781871981 1
force Ru   0.148284609330526  -1.117982441521921  -0.123306146180132 1
force Ru   0.170807908941723   0.047455821855936  -0.065430746654408 1
force Ru  -0.075463286079529   0.174275430187532   0.094455326595984 1
force Ru   0.660527296677937  -0.749807536525759  -0.065009545835589 1
force O   0.107632238827046   0.058055807547250  -0.165798497681259 1
force O   0.442562860904138  -0.380540067196522  -0.309109557617280 1
force O  -0.151621304123851  -0.374358918876112  -0.061792571116518 1
force O   0.463729514025656  -0.509079043841784   0.243373499923941 1
force O   0.014631265550235   0.077514463007881   0.077833947710490 1
force O  -0.245027589340154   0.108422897174417  -0.130322022755090 1
force O  -0.452388689760821  -0.312451985029948   0.067252410046480 1
force O  -0.058328078765358   0.051731321206170   0.172946419571598 1
force O  -0.148612592068120  -0.287404211962178   0.181393339009020 1
force O  -0.074811175525970  -0.051290415611832  -0.176682363798760 1
force O  -0.292062412107582  -0.380896473278853  -0.012577617147611 1
force O  -0.198530543435668   0.093501337754606  -0.035210272337091 1
force O   0.530294138456476   0.226912121319923  -0.082434876370195 1
force O  -0.467656858252721   0.426782645054478   0.232502162883340 1
force O   0.109421289118192   0.052553383284293   0.209283057888000 1
force O   0.418788442428274  -0.123594186558274   0.045087245875513 1
force O  -0.201604013710653  -0.067352165159293  -0.232058685606636 1
force O  -0.378848337038096   0.454704649923093  -0.110302328688597 1
force O   0.504205695953275   0.116582025568776   0.117457999930689 1
force O  -0.454398266159620   0.456762129889079  -0.102830386617478 1
force O   0.009120189304407  -0.176669964625214   0.065203875381911 1
force O  -0.052874708074058  -0.089184069516040  -0.042127396770228 1
force O   0.147105106537159   0.014219762670918  -0.258566318396683 1
force O  -0.178617956251571   0.354386025879596   0.091826607628857 1
force O   0.191543045438596   0.533280945750040  -0.095034274915266 1
force O   0.204722246675950  -0.416384723904349  -0.036662064174903 1
force O  -0.003707609685290  -0.199437820598951  -0.073459923313407 1
force O  -0.435442365297330   0.574636358646984   0.226496734591629 1
force O   0.200790661455506   0.292654630235209   0.039540278488753 1
force O  -0.127451441525579  -0.117559879504089   0.011400667147892 1
force O   0.195948588081228   0.353214755845918  -0.044993328968715 1
force O  -0.070558033495727  -0.288881387981523   0.240018318139669 1

# Energy components:
   Eewald =    -1545.9254511657466082
       EH =      459.6127385452246585
     Eloc =    -1714.1908646681683877
      Enl =      359.6804379539714773
      Exc =     -320.1563966682875275
 Exc_core =       35.2066353805137808
       KE =      692.0166500297209495
-------------------------------------
     Etot =    -2033.7562505927712664
       TS =        0.2771225189454155
-------------------------------------
        F =    -2034.0333731117166280

IonicMinimize: Iter:   2  F: -2034.033373111716628  |grad|_K:  1.808e-02  alpha:  3.907e-01  linmin: -9.821e-01  t[s]:   4866.35

#--- Lowdin population analysis ---
# oxidation-state Ru +0.439 +0.419 +0.424 +0.424 +0.428 +0.439 +0.423 +0.436 +0.425 +0.420 +0.431 +0.413 +0.453 +0.413 +0.431 +0.449
# oxidation-state O -0.186 -0.148 -0.161 -0.204 -0.199 -0.162 -0.215 -0.195 -0.200 -0.191 -0.201 -0.162 -0.175 -0.168 -0.194 -0.186 -0.186 -0.204 -0.202 -0.176 -0.169 -0.180 -0.191 -0.225 -0.202 -0.231 -0.203 -0.173 -0.155 -0.182 -0.204 -0.205


-------- Electronic minimization -----------
Will mix electronic density at each iteration.
	FillingsUpdate:  mu: +0.490734688  nElectrons: 448.000000
	FillingsUpdate:  mu: +0.495611031  nElectrons: 448.000000
SCF: Cycle:  0   F: -2016.404733903576698   dF: +1.495e+01   |Residual|: 1.718e+00   |deigs|: 1.058e-02  t[s]:   4979.12
	FillingsUpdate:  mu: +0.513795063  nElectrons: 448.000000
SCF: Cycle:  1   F: -1982.228664897008457   dF: +3.418e+01   |Residual|: 2.822e+00   |deigs|: 4.598e-02  t[s]:   5060.80
	FillingsUpdate:  mu: +0.492895109  nElectrons: 448.000000
SCF: Cycle:  2   F: -2029.743415048728366   dF: -4.751e+01   |Residual|: 9.430e-01   |deigs|: 5.219e-02  t[s]:   5142.57
	FillingsUpdate:  mu: +0.493048511  nElectrons: 448.000000
SCF: Cycle:  3   F: -2029.825389165587239   dF: -8.197e-02   |Residual|: 8.432e-01   |deigs|: 6.178e-03  t[s]:   5225.59
	FillingsUpdate:  mu: +0.490544774  nElectrons: 448.000000
SCF: Cycle:  4   F: -2033.282788932680205   dF: -3.457e+00   |Residual|: 4.222e-01   |deigs|: 9.510e-03  t[s]:   5307.54
	FillingsUpdate:  mu: +0.489867137  nElectrons: 448.000000
SCF: Cycle:  5   F: -2033.750552744267907   dF: -4.678e-01   |Residual|: 2.678e-01   |deigs|: 4.310e-03  t[s]:   5390.60
	FillingsUpdate:  mu: +0.489484474  nElectrons: 448.000000
SCF: Cycle:  6   F: -2033.918024869271449   dF: -1.675e-01   |Residual|: 1.903e-01   |deigs|: 1.732e-03  t[s]:   5472.98
	FillingsUpdate:  mu: +0.488961288  nElectrons: 448.000000
SCF: Cycle:  7   F: -2034.082339949630068   dF: -1.643e-01   |Residual|: 6.756e-02   |deigs|: 1.626e-03  t[s]:   5553.41
	FillingsUpdate:  mu: +0.489216454  nElectrons: 448.000000
SCF: Cycle:  8   F: -2034.061625873714320   dF: +2.071e-02   |Residual|: 7.307e-02   |deigs|: 6.621e-04  t[s]:   5631.17
	FillingsUpdate:  mu: +0.489258846  nElectrons: 448.000000
SCF: Cycle:  9   F: -2034.098008910668341   dF: -3.638e-02   |Residual|: 2.100e-02   |deigs|: 5.208e-04  t[s]:   5694.53
	FillingsUpdate:  mu: +0.489158569  nElectrons: 448.000000
SCF: Cycle: 10   F: -2034.099595972893894   dF: -1.587e-03   |Residual|: 7.625e-03   |deigs|: 2.177e-04  t[s]:   5742.72
	FillingsUpdate:  mu: +0.489180676  nElectrons: 448.000000
SCF: Cycle: 11   F: -2034.098580017555150   dF: +1.016e-03   |Residual|: 1.530e-02   |deigs|: 1.599e-04  t[s]:   5791.58
	FillingsUpdate:  mu: +0.489197407  nElectrons: 448.000000
SCF: Cycle: 12   F: -2034.099709599171547   dF: -1.130e-03   |Residual|: 4.453e-03   |deigs|: 1.535e-04  t[s]:   5840.27
	FillingsUpdate:  mu: +0.489188683  nElectrons: 448.000000
SCF: Cycle: 13   F: -2034.099712114518070   dF: -2.515e-06   |Residual|: 3.145e-03   |deigs|: 7.566e-05  t[s]:   5888.45
	FillingsUpdate:  mu: +0.489187796  nElectrons: 448.000000
SCF: Cycle: 14   F: -2034.099778608683437   dF: -6.649e-05   |Residual|: 1.441e-03   |deigs|: 4.601e-05  t[s]:   5938.21
	FillingsUpdate:  mu: +0.489188071  nElectrons: 448.000000
SCF: Cycle: 15   F: -2034.099772069162100   dF: +6.540e-06   |Residual|: 1.694e-03   |deigs|: 2.992e-05  t[s]:   5987.94
	FillingsUpdate:  mu: +0.489187161  nElectrons: 448.000000
SCF: Cycle: 16   F: -2034.099778457258935   dF: -6.388e-06   |Residual|: 1.242e-03   |deigs|: 3.154e-05  t[s]:   6036.63
	FillingsUpdate:  mu: +0.489186750  nElectrons: 448.000000
SCF: Cycle: 17   F: -2034.099786179387593   dF: -7.722e-06   |Residual|: 6.016e-04   |deigs|: 2.017e-05  t[s]:   6085.31
	FillingsUpdate:  mu: +0.489186514  nElectrons: 448.000000
SCF: Cycle: 18   F: -2034.099787994703320   dF: -1.815e-06   |Residual|: 2.279e-04   |deigs|: 8.469e-06  t[s]:   6134.30
	FillingsUpdate:  mu: +0.489186784  nElectrons: 448.000000
SCF: Cycle: 19   F: -2034.099788024496092   dF: -2.979e-08   |Residual|: 2.033e-04   |deigs|: 4.260e-06  t[s]:   6182.91
	FillingsUpdate:  mu: +0.489186416  nElectrons: 448.000000
SCF: Cycle: 20   F: -2034.099788157348257   dF: -1.329e-07   |Residual|: 1.121e-04   |deigs|: 3.406e-06  t[s]:   6231.54
	FillingsUpdate:  mu: +0.489186199  nElectrons: 448.000000
SCF: Cycle: 21   F: -2034.099788203568551   dF: -4.622e-08   |Residual|: 7.144e-05   |deigs|: 2.003e-06  t[s]:   6279.95
	FillingsUpdate:  mu: +0.489186322  nElectrons: 448.000000
SCF: Cycle: 22   F: -2034.099788207719712   dF: -4.151e-09   |Residual|: 6.156e-05   |deigs|: 1.462e-06  t[s]:   6327.97
	FillingsUpdate:  mu: +0.489186425  nElectrons: 448.000000
SCF: Cycle: 23   F: -2034.099788224486929   dF: -1.677e-08   |Residual|: 3.631e-05   |deigs|: 1.102e-06  t[s]:   6376.65
	FillingsUpdate:  mu: +0.489186387  nElectrons: 448.000000
SCF: Cycle: 24   F: -2034.099788224297072   dF: +1.899e-10   |Residual|: 3.011e-05   |deigs|: 8.192e-07  t[s]:   6425.34
	FillingsUpdate:  mu: +0.489186327  nElectrons: 448.000000
SCF: Cycle: 25   F: -2034.099788229630576   dF: -5.334e-09   |Residual|: 1.224e-05   |deigs|: 6.209e-07  t[s]:   6474.45
	FillingsUpdate:  mu: +0.489186302  nElectrons: 448.000000
SCF: Cycle: 26   F: -2034.099788230251306   dF: -6.207e-10   |Residual|: 7.279e-06   |deigs|: 3.637e-07  t[s]:   6515.62
SCF: Converged (|Delta E|<1.000000e-08 for 2 iters).

Setting wave functions to eigenvectors of Hamiltonian

# Ionic positions in lattice coordinates:
ion Ru   0.254654862409747   0.245684575721764   0.244354426896960 1
ion Ru   0.007068660858601   0.001412777930284   0.002844680367132 1
ion Ru   0.256046685986425   0.243784627594135   0.745619489555374 1
ion Ru  -0.003380056245048  -0.009413339697943   0.506089304756026 1
ion Ru   0.246565824469266   0.754953250661601   0.251273601218858 1
ion Ru   0.000591671382436   0.494764005737866  -0.011531048506298 1
ion Ru   0.249940241139383   0.744562709034966   0.751090535158897 1
ion Ru  -0.001308033015119   0.498667507324832   0.493316877059060 1
ion Ru   0.749033679752962   0.244394570040744   0.247374613738231 1
ion Ru   0.502482991935153  -0.002255384484977   0.003821251291256 1
ion Ru   0.753382739109692   0.244719300216000   0.738672881474580 1
ion Ru   0.492573873863632  -0.004893265645298   0.502966478483787 1
ion Ru   0.747343819900337   0.753041752373147   0.254489561519202 1
ion Ru   0.502686632119250   0.495428499682924   0.006381823611232 1
ion Ru   0.748582886645057   0.743911690314384   0.753035541879467 1
ion Ru   0.495740553108830   0.499370374880551   0.498047277505113 1
ion O   0.351107972780343   0.343376641265323   0.002842133378746 1
ion O   0.396984757680197   0.092729056488197   0.260673312794721 1
ion O   0.156058799262267   0.157203122257011  -0.002892871510356 1
ion O   0.093396037196792   0.408813877016867   0.237507297084478 1
ion O   0.349270435136692   0.342048182531506   0.492451503705508 1
ion O   0.408561367390029   0.094185032933876   0.758070352197276 1
ion O   0.161903274135333   0.146625333313867   0.496447963905838 1
ion O   0.101997980747508   0.395543624673843   0.734941803681158 1
ion O   0.345426429901700   0.852518451336554  -0.007224683066852 1
ion O   0.402664100293546   0.604768976383796   0.256383800192127 1
ion O   0.156901942685316   0.653374885096393   0.001348016575289 1
ion O   0.098091212253842   0.903770848187926   0.253712225490188 1
ion O   0.332386530919630   0.849986585365992   0.507738473854421 1
ion O   0.407506786224843   0.588627701100192   0.749402552499243 1
ion O   0.150033773358222   0.651375288589947   0.493411163037197 1
ion O   0.088602231225406   0.892695854824506   0.754182225608033 1
ion O   0.852451016037157   0.338219380531388  -0.000344334624647 1
ion O   0.906358262484910   0.087442828634277   0.255992960942972 1
ion O   0.647509272355975   0.153892607574524  -0.007372803091135 1
ion O   0.602018523530295   0.395034405399598   0.253568033958265 1
ion O   0.848264820883993   0.347016333567070   0.490027321780384 1
ion O   0.908333250502211   0.096932461214646   0.752496191125006 1
ion O   0.648724376353468   0.145600625606087   0.499678564308017 1
ion O   0.596650010102349   0.394125084683382   0.744804511630330 1
ion O   0.849587826780020   0.837968650518671   0.003835554851598 1
ion O   0.902250969968810   0.602620486201969   0.247358365675076 1
ion O   0.650220135350084   0.654180635944458   0.005977960668575 1
ion O   0.593532778207644   0.893875186310847   0.247260171883189 1
ion O   0.843097836891614   0.840369678362162   0.504549628533130 1
ion O   0.904117344557941   0.596795857749578   0.745105168155864 1
ion O   0.649094161486622   0.646619225173897   0.504486948431487 1
ion O   0.600268749894638   0.904779439476668   0.745033190335996 1

# Forces in Lattice coordinates:
force Ru  -0.367179607518538   0.296700210084504   0.176672277380809 1
force Ru  -0.325637753811299  -0.215757225830429  -0.010415637541602 1
force Ru  -0.069108434549381   0.228143578489259  -0.036808950372543 1
force Ru   0.240935056267195   0.241385434339151  -0.037077103678306 1
force Ru   0.120706285501971  -0.260260959521469  -0.129120420672363 1
force Ru   0.006440078687528   0.279264102750980   0.088259053551116 1
force Ru  -0.098015217639544   0.004585334980126   0.022266503470062 1
force Ru   0.068598327674269   0.070435818896773  -0.087582486861226 1
force Ru   0.162758115364431  -0.157549610131129   0.004948231611818 1
force Ru  -0.087582150201503   0.007021694343963  -0.064683908744126 1
force Ru  -0.188604041222060   0.109677662366811   0.209428398712917 1
force Ru   0.264678674110025  -0.019259587278780   0.000376264443476 1
force Ru   0.081201099762736  -0.505601237527158  -0.082318788812396 1
force Ru   0.023246514138943   0.064602316062467  -0.058737705607368 1
force Ru  -0.010301866004664   0.136779800951546   0.051618280205667 1
force Ru   0.337006599096177  -0.325194370749637  -0.023321428655106 1
force O   0.023766431399988   0.033272623029315  -0.096619049806466 1
force O   0.209459350004364  -0.119337676534537  -0.219499346701673 1
force O  -0.123321717127646  -0.274532446405338  -0.034584586108962 1
force O   0.317685726724346  -0.369322324725259   0.148780783711986 1
force O   0.009171082561644   0.058627800754959   0.052774325743343 1
force O  -0.144722475992265   0.069813107299536  -0.109061089253725 1
force O  -0.292364836678231  -0.142835237293558   0.051770880438539 1
force O  -0.090164730417155   0.119110266584063   0.129469364237519 1
force O  -0.064318354120608  -0.199861374431544   0.118033154805410 1
force O   0.006775309909797  -0.129991432459845  -0.109578833589170 1
force O  -0.189443646414839  -0.236736027833628  -0.020668986276754 1
force O  -0.112579207480897   0.001591260094643  -0.035951873122042 1
force O   0.355605358077996   0.071021569829987  -0.077272908986868 1
force O  -0.258081799344952   0.248222171301334   0.102165430481706 1
force O   0.079035525229212   0.025595741475791   0.115156135030397 1
force O   0.261700679136745  -0.005818861357732   0.007991408124810 1
force O  -0.125555462991643   0.030009013135486  -0.117826385845360 1
force O  -0.205511867063334   0.269197977099678  -0.064489582248555 1
force O   0.288441710228573  -0.014665138892424   0.088896847015212 1
force O  -0.212514560102543   0.229604684676629  -0.062176450189320 1
force O   0.005821286740150  -0.115070448048120   0.075046285415456 1
force O  -0.094835318793558  -0.055358563095677  -0.030147983603767 1
force O   0.112920184115769   0.027631491025717  -0.115203881899471 1
force O  -0.078375783644920   0.218955951914650   0.076509399339437 1
force O   0.059075782211865   0.326149306820869  -0.034381864745459 1
force O   0.116408666119118  -0.278948934271644  -0.055731384967197 1
force O   0.024946460587590  -0.140150917168881  -0.058983707186689 1
force O  -0.158779750780439   0.274077356460604   0.138094989059952 1
force O   0.148771235205854   0.201858088240671   0.001413511107322 1
force O  -0.076596722001196  -0.101167425033866   0.004510502333782 1
force O   0.126532077272176   0.203387225503209  -0.035833005475184 1
force O  -0.078667398627564  -0.175924012493996   0.144617216608333 1

# Energy components:
   Eewald =    -1547.8716259965942754
       EH =      457.7929297870836081
     Eloc =    -1710.1771103387920903
      Enl =      359.5995725025438787
      Exc =     -320.0770517380403817
 Exc_core =       35.2066389064044643
       KE =      691.7056757623063277
-------------------------------------
     Etot =    -2033.8209711150884687
       TS =        0.2788171151627789
-------------------------------------
        F =    -2034.0997882302513062

IonicMinimize: Iter:   3  F: -2034.099788230251306  |grad|_K:  1.008e-02  alpha:  4.586e-01  linmin: -9.799e-01  t[s]:   6529.21

#--- Lowdin population analysis ---
# oxidation-state Ru +0.435 +0.424 +0.429 +0.427 +0.430 +0.433 +0.428 +0.437 +0.429 +0.426 +0.430 +0.424 +0.442 +0.422 +0.433 +0.441
# oxidation-state O -0.185 -0.171 -0.173 -0.199 -0.190 -0.172 -0.210 -0.198 -0.197 -0.197 -0.193 -0.169 -0.180 -0.185 -0.191 -0.185 -0.193 -0.198 -0.194 -0.184 -0.182 -0.182 -0.192 -0.208 -0.204 -0.210 -0.193 -0.183 -0.171 -0.186 -0.197 -0.199


-------- Electronic minimization -----------
Will mix electronic density at each iteration.
	FillingsUpdate:  mu: +0.489186302  nElectrons: 448.000000
	FillingsUpdate:  mu: +0.493849345  nElectrons: 448.000000
SCF: Cycle:  0   F: -2021.720291251139997   dF: +1.072e+01   |Residual|: 1.386e+00   |deigs|: 6.494e-03  t[s]:   6641.18
	FillingsUpdate:  mu: +0.508655890  nElectrons: 448.000000
SCF: Cycle:  1   F: -1992.100622630827274   dF: +2.962e+01   |Residual|: 2.542e+00   |deigs|: 4.134e-02  t[s]:   6723.11
	FillingsUpdate:  mu: +0.490956770  nElectrons: 448.000000
SCF: Cycle:  2   F: -2031.370845202103283   dF: -3.927e+01   |Residual|: 8.039e-01   |deigs|: 4.635e-02  t[s]:   6804.07
	FillingsUpdate:  mu: +0.491320536  nElectrons: 448.000000
SCF: Cycle:  3   F: -2031.474782131419488   dF: -1.039e-01   |Residual|: 7.008e-01   |deigs|: 4.740e-03  t[s]:   6884.53
	FillingsUpdate:  mu: +0.489626551  nElectrons: 448.000000
SCF: Cycle:  4   F: -2033.715804698933653   dF: -2.241e+00   |Residual|: 3.229e-01   |deigs|: 8.277e-03  t[s]:   6965.47
	FillingsUpdate:  mu: +0.489098360  nElectrons: 448.000000
SCF: Cycle:  5   F: -2033.886376754232288   dF: -1.706e-01   |Residual|: 2.170e-01   |deigs|: 2.314e-03  t[s]:   7047.65
	FillingsUpdate:  mu: +0.488758367  nElectrons: 448.000000
SCF: Cycle:  6   F: -2033.979664551030282   dF: -9.329e-02   |Residual|: 1.721e-01   |deigs|: 1.162e-03  t[s]:   7129.30
	FillingsUpdate:  mu: +0.488351242  nElectrons: 448.000000
SCF: Cycle:  7   F: -2034.117749898571219   dF: -1.381e-01   |Residual|: 5.640e-02   |deigs|: 1.422e-03  t[s]:   7209.82
	FillingsUpdate:  mu: +0.488667612  nElectrons: 448.000000
SCF: Cycle:  8   F: -2034.116555569012689   dF: +1.194e-03   |Residual|: 4.868e-02   |deigs|: 7.012e-04  t[s]:   7274.40
	FillingsUpdate:  mu: +0.488673304  nElectrons: 448.000000
SCF: Cycle:  9   F: -2034.127522865152969   dF: -1.097e-02   |Residual|: 1.928e-02   |deigs|: 4.554e-04  t[s]:   7324.01
	FillingsUpdate:  mu: +0.488577795  nElectrons: 448.000000
SCF: Cycle: 10   F: -2034.128948991446123   dF: -1.426e-03   |Residual|: 6.264e-03   |deigs|: 2.199e-04  t[s]:   7372.95
	FillingsUpdate:  mu: +0.488592276  nElectrons: 448.000000
SCF: Cycle: 11   F: -2034.128285662689450   dF: +6.633e-04   |Residual|: 1.214e-02   |deigs|: 1.342e-04  t[s]:   7420.87
	FillingsUpdate:  mu: +0.488609840  nElectrons: 448.000000
SCF: Cycle: 12   F: -2034.129016815608793   dF: -7.312e-04   |Residual|: 4.712e-03   |deigs|: 1.186e-04  t[s]:   7469.84
	FillingsUpdate:  mu: +0.488601295  nElectrons: 448.000000
SCF: Cycle: 13   F: -2034.129086615129154   dF: -6.980e-05   |Residual|: 1.958e-03   |deigs|: 5.831e-05  t[s]:   7518.36
	FillingsUpdate:  mu: +0.488599277  nElectrons: 448.000000
SCF: Cycle: 14   F: -2034.129098427862800   dF: -1.181e-05   |Residual|: 1.579e-03   |deigs|: 3.189e-05  t[s]:   7567.93
	FillingsUpdate:  mu: +0.488599892  nElectrons: 448.000000
SCF: Cycle: 15   F: -2034.129106014156150   dF: -7.586e-06   |Residual|: 1.290e-03   |deigs|: 2.698e-05  t[s]:   7617.15
	FillingsUpdate:  mu: +0.488599309  nElectrons: 448.000000
SCF: Cycle: 16   F: -2034.129111424918165   dF: -5.411e-06   |Residual|: 6.164e-04   |deigs|: 1.797e-05  t[s]:   7664.84
	FillingsUpdate:  mu: +0.488598972  nElectrons: 448.000000
SCF: Cycle: 17   F: -2034.129112472468478   dF: -1.048e-06   |Residual|: 3.926e-04   |deigs|: 9.834e-06  t[s]:   7713.77
	FillingsUpdate:  mu: +0.488598806  nElectrons: 448.000000
SCF: Cycle: 18   F: -2034.129113143359064   dF: -6.709e-07   |Residual|: 1.380e-04   |deigs|: 4.894e-06  t[s]:   7762.13
	FillingsUpdate:  mu: +0.488598744  nElectrons: 448.000000
SCF: Cycle: 19   F: -2034.129113134490126   dF: +8.869e-09   |Residual|: 1.465e-04   |deigs|: 3.305e-06  t[s]:   7811.05
	FillingsUpdate:  mu: +0.488598349  nElectrons: 448.000000
SCF: Cycle: 20   F: -2034.129113226422078   dF: -9.193e-08   |Residual|: 6.036e-05   |deigs|: 2.409e-06  t[s]:   7859.65
	FillingsUpdate:  mu: +0.488598443  nElectrons: 448.000000
SCF: Cycle: 21   F: -2034.129113225910714   dF: +5.114e-10   |Residual|: 5.525e-05   |deigs|: 1.502e-06  t[s]:   7908.34
	FillingsUpdate:  mu: +0.488598576  nElectrons: 448.000000
SCF: Cycle: 22   F: -2034.129113237713000   dF: -1.180e-08   |Residual|: 3.051e-05   |deigs|: 1.235e-06  t[s]:   7958.02
	FillingsUpdate:  mu: +0.488598544  nElectrons: 448.000000
SCF: Cycle: 23   F: -2034.129113240519246   dF: -2.806e-09   |Residual|: 1.794e-05   |deigs|: 1.041e-06  t[s]:   8006.55
	FillingsUpdate:  mu: +0.488598481  nElectrons: 448.000000
SCF: Cycle: 24   F: -2034.129113242198855   dF: -1.680e-09   |Residual|: 5.224e-06   |deigs|: 8.544e-07  t[s]:   8054.76
SCF: Converged (|Delta E|<1.000000e-08 for 2 iters).

Setting wave functions to eigenvectors of Hamiltonian

# Ionic positions in lattice coordinates:
ion Ru   0.251370102751285   0.247535613648862   0.247010615042331 1
ion Ru   0.003511642717491  -0.000894212724285   0.002293385124673 1
ion Ru   0.254544323610136   0.245674413206138   0.745691988247481 1
ion Ru  -0.000980354788216  -0.006557997806056   0.505177712769233 1
ion Ru   0.247786463197302   0.752646026450315   0.249535099021034 1
ion Ru   0.000764876970684   0.496884191840981  -0.009127200916637 1
ion Ru   0.249301740555357   0.744887689136866   0.751212570212056 1
ion Ru  -0.000546696888508   0.498700259141349   0.493040698345868 1
ion Ru   0.750346904729874   0.243743685042501   0.247653230884278 1
ion Ru   0.501301214664793  -0.001854442833135   0.002819904310347 1
ion Ru   0.751832292043683   0.245855682618521   0.742360866110807 1
ion Ru   0.495458813325780  -0.004791674909039   0.502354711637115 1
ion Ru   0.747705542704394   0.749658202455281   0.253268544674948 1
ion Ru   0.502102479701257   0.496429723134735   0.004627959319307 1
ion Ru   0.749011435489682   0.745736766954647   0.753636880199784 1
ion Ru   0.498675916075824   0.497337744960919   0.498389505843129 1
ion O   0.351038047119374   0.343533953887533   0.001122034915842 1
ion O   0.398378221075416   0.092639859809122   0.255190162230486 1
ion O   0.154950204757176   0.154266282269714  -0.003443198672005 1
ion O   0.096924549616353   0.404570153240856   0.240492030589162 1
ion O   0.349388912391548   0.342733359252800   0.493834863802866 1
ion O   0.407145251137536   0.094908075762864   0.755222015394866 1
ion O   0.158725880912091   0.145377773177905   0.497925380266126 1
ion O   0.100534689728506   0.397553743344148   0.737841248922673 1
ion O   0.344870622054271   0.850220279023116  -0.004499579210427 1
ion O   0.403362946421192   0.602474902472750   0.254301502944259 1
ion O   0.154621632414263   0.650680844105783   0.000677856653641 1
ion O   0.097240816406728   0.903143848588720   0.252738368624357 1
ion O   0.336123366748360   0.850095699480679   0.505586753843810 1
ion O   0.405336901979002   0.590803357754259   0.750240055851316 1
ion O   0.151011249167944   0.651704882196670   0.495730801605479 1
ion O   0.091446300026662   0.893020880282853   0.754083749211691 1
ion O   0.851244157225719   0.339132050327806  -0.002816917698912 1
ion O   0.904270922099766   0.090259221836039   0.254707877660058 1
ion O   0.650352623810367   0.153079999545406  -0.005273107680466 1
ion O   0.600650580815001   0.396697998582818   0.252220421104589 1
ion O   0.848332563748801   0.345756850021081   0.492253185881247 1
ion O   0.906878406657093   0.096392012985532   0.751708132583709 1
ion O   0.650134651756394   0.146070724103958   0.497839917793970 1
ion O   0.595878328541586   0.396577905858988   0.746720503285694 1
ion O   0.849731191747269   0.841310340437545   0.003546486121298 1
ion O   0.903535455822223   0.599456997970161   0.245470891638556 1
ion O   0.650651948493343   0.652538870429786   0.004546468201842 1
ion O   0.593148886293325   0.895823308686754   0.250608410431319 1
ion O   0.844474879183304   0.842337283600382   0.503857829438400 1
ion O   0.903207127364335   0.595579390077727   0.745000210097568 1
ion O   0.650351685870240   0.648651552015977   0.503463658411736 1
ion O   0.599250301753991   0.902865928551670   0.748455514929497 1

# Forces in Lattice coordinates:
force Ru  -0.123051545518293   0.061351456896586   0.026772621262151 1
force Ru  -0.148879556383171  -0.088899800548352  -0.017895944233668 1
force Ru  -0.083879845773236   0.089479410011021   0.024974969044359 1
force Ru   0.080554413736698   0.107465929823968  -0.029860682252687 1
force Ru   0.053406342125416  -0.142506789878490  -0.025924726430141 1
force Ru  -0.008839117762620   0.034742997178243   0.064294504728103 1
force Ru  -0.011281284711653   0.023886488429875  -0.011163935215620 1
force Ru   0.050712656555671   0.000470768059673  -0.025180910656937 1
force Ru   0.055645114983721   0.003822668709627   0.001243153553445 1
force Ru  -0.057716454110632  -0.000391883493651  -0.027120334450587 1
force Ru  -0.086824946747728   0.056930543085170   0.085447900151453 1
force Ru   0.121381446677922   0.032698220125684  -0.020414500672272 1
force Ru   0.085103789265965  -0.177130558764788  -0.024319369792959 1
force Ru  -0.030130805271465   0.027651925997464  -0.040902218055366 1
force Ru   0.019879476782914   0.076747886664584  -0.011432968113092 1
force Ru   0.129454896965500  -0.076552478007918   0.001443926662863 1
force O  -0.054664610508690   0.004301831159856  -0.040239991206077 1
force O   0.115521639742506  -0.026279383640031  -0.099187963594621 1
force O  -0.072707083546927  -0.150067880852795  -0.001398401721834 1
force O   0.112428145003388  -0.162667370059843   0.087143562729837 1
force O   0.001314587297930   0.043829637980088   0.043136374654281 1
force O  -0.088809531160000   0.046962887665527  -0.070671690104774 1
force O  -0.155763807251041  -0.006399368262559   0.032307338238180 1
force O  -0.058642841564708   0.088222631418918   0.090518655711917 1
force O  -0.001018184945442  -0.118308537445195   0.064814248717330 1
force O   0.015446224505515  -0.124031969351216  -0.070833060008691 1
force O  -0.075848211996926  -0.097548400748430  -0.012203484565429 1
force O  -0.043350395379814  -0.051299448876174  -0.029451693456001 1
force O   0.212408105534827  -0.030989113378481  -0.052358738495288 1
force O  -0.118353507659186   0.129675549393140   0.032010542560147 1
force O   0.050310272649008  -0.005416351932951   0.052333380765347 1
force O   0.131592795878533   0.066629042661268  -0.006400142742214 1
force O  -0.066703214994850   0.074382157467052  -0.037853989323578 1
force O  -0.056491711747997   0.118094444681358  -0.040935518235046 1
force O   0.134051544738830  -0.069073538015802   0.057403880682903 1
force O  -0.077024708271319   0.103543743596304  -0.040150516534709 1
force O   0.008060910972978  -0.060662740553276   0.055868111449452 1
force O  -0.091083632663331  -0.034645591170839  -0.019142838764716 1
force O   0.083217798295393   0.041926442101451  -0.035182489009002 1
force O  -0.000583694332493   0.105769671684787   0.052369844012599 1
force O  -0.027028739309671   0.156803078793799  -0.017531807418428 1
force O   0.025199888626899  -0.148175474154602  -0.027157898165763 1
force O   0.031744794142441  -0.081687606138069  -0.041523586462266 1
force O  -0.031688577050118   0.118009263047162   0.045412612376215 1
force O   0.078293034364582   0.101790668196712  -0.012832503916965 1
force O  -0.044460297526943  -0.051320315857674   0.011925371005261 1
force O   0.080859686610582   0.092722213347816  -0.016741076323864 1
force O  -0.060391884841791  -0.095122839319836   0.077517722486876 1

# Energy components:
   Eewald =    -1548.7433321643304680
       EH =      456.9623913533369546
     Eloc =    -1708.3824794854958782
      Enl =      359.5669493303115587
      Exc =     -320.0482148160562588
 Exc_core =       35.2066380248924560
       KE =      691.5882696603961222
-------------------------------------
     Etot =    -2033.8497780969455562
       TS =        0.2793351452532983
-------------------------------------
        F =    -2034.1291132421988550

IonicMinimize: Iter:   4  F: -2034.129113242198855  |grad|_K:  4.709e-03  alpha:  5.283e-01  linmin: -9.594e-01  t[s]:   8068.21

#--- Lowdin population analysis ---
# oxidation-state Ru +0.434 +0.428 +0.431 +0.430 +0.431 +0.431 +0.431 +0.435 +0.431 +0.429 +0.430 +0.429 +0.435 +0.427 +0.432 +0.436
[...]
SCF: Cycle:  0   F: -2034.144098082284700   dF: +6.250e-05   |Residual|: 4.949e-03   |deigs|: 7.613e-07  t[s]:  14906.46
	FillingsUpdate:  mu: +0.488392429  nElectrons: 448.000000
SCF: Cycle:  1   F: -2034.143415176041117   dF: +6.829e-04   |Residual|: 1.242e-02   |deigs|: 9.586e-05  t[s]:  14954.12
	FillingsUpdate:  mu: +0.488391736  nElectrons: 448.000000
SCF: Cycle:  2   F: -2034.144173786212377   dF: -7.586e-04   |Residual|: 3.081e-03   |deigs|: 9.826e-05  t[s]:  15001.92
	FillingsUpdate:  mu: +0.488391616  nElectrons: 448.000000
SCF: Cycle:  3   F: -2034.144208399581203   dF: -3.461e-05   |Residual|: 5.353e-04   |deigs|: 1.618e-05  t[s]:  15050.91
	FillingsUpdate:  mu: +0.488391679  nElectrons: 448.000000
SCF: Cycle:  4   F: -2034.144207948766734   dF: +4.508e-07   |Residual|: 3.938e-04   |deigs|: 3.068e-06  t[s]:  15099.17
	FillingsUpdate:  mu: +0.488391647  nElectrons: 448.000000
SCF: Cycle:  5   F: -2034.144208307071267   dF: -3.583e-07   |Residual|: 2.803e-04   |deigs|: 3.444e-06  t[s]:  15146.35
	FillingsUpdate:  mu: +0.488391589  nElectrons: 448.000000
SCF: Cycle:  6   F: -2034.144208689785046   dF: -3.827e-07   |Residual|: 9.792e-05   |deigs|: 2.314e-06  t[s]:  15194.70
	FillingsUpdate:  mu: +0.488391615  nElectrons: 448.000000
SCF: Cycle:  7   F: -2034.144208685374451   dF: +4.411e-09   |Residual|: 7.022e-05   |deigs|: 9.496e-07  t[s]:  15243.33
	FillingsUpdate:  mu: +0.488391618  nElectrons: 448.000000
SCF: Cycle:  8   F: -2034.144208701638263   dF: -1.626e-08   |Residual|: 3.894e-05   |deigs|: 9.074e-07  t[s]:  15292.73
	FillingsUpdate:  mu: +0.488391623  nElectrons: 448.000000
SCF: Cycle:  9   F: -2034.144208708164342   dF: -6.526e-09   |Residual|: 9.931e-06   |deigs|: 3.418e-07  t[s]:  15341.83
	FillingsUpdate:  mu: +0.488391623  nElectrons: 448.000000
SCF: Cycle: 10   F: -2034.144208707418329   dF: +7.460e-10   |Residual|: 1.340e-05   |deigs|: 1.152e-07  t[s]:  15390.14
	FillingsUpdate:  mu: +0.488391622  nElectrons: 448.000000
SCF: Cycle: 11   F: -2034.144208708268707   dF: -8.504e-10   |Residual|: 6.313e-06   |deigs|: 1.071e-07  t[s]:  15437.76
	FillingsUpdate:  mu: +0.488391624  nElectrons: 448.000000
SCF: Cycle: 12   F: -2034.144208708475844   dF: -2.071e-10   |Residual|: 2.099e-06   |deigs|: 3.783e-08  t[s]:  15474.07
SCF: Converged (|Delta E|<1.000000e-08 for 2 iters).

Setting wave functions to eigenvectors of Hamiltonian

# Ionic positions in lattice coordinates:
ion Ru   0.250097807839701   0.247308520789894   0.249258655637430 1
ion Ru   0.000089417544845  -0.002875379309951  -0.000422104680270 1
ion Ru   0.250242702538617   0.247161232692187   0.749182693150417 1
ion Ru   0.000062490553779  -0.002835507453060   0.499251816929242 1
ion Ru   0.250037381885681   0.747062219596071   0.249515262023025 1
ion Ru   0.000143604600576   0.497163754041190  -0.000783895462341 1
ion Ru   0.250026648353782   0.747116474671437   0.749363609289967 1
ion Ru   0.000023277633537   0.496975649668803   0.499146790333757 1
ion Ru   0.750071405080667   0.247117009527107   0.249217956923778 1
ion Ru   0.500068693530302  -0.002947266500571  -0.000434231169121 1
ion Ru   0.750214638396108   0.246936423316057   0.749286506745392 1
ion Ru   0.500031605836246  -0.002923751605292   0.499430762453227 1
ion Ru   0.750004135033951   0.747148913338750   0.249516871342608 1
ion Ru   0.500261060733058   0.497251529493757  -0.000647121977058 1
ion Ru   0.750170042593125   0.747119140352491   0.749502634642708 1
ion Ru   0.500252606477995   0.497099903125083   0.499347849513880 1
ion O   0.347467786243539   0.344762557655694  -0.000771337642151 1
ion O   0.403072689585369   0.094883439961285   0.249425025761062 1
ion O   0.153088558432268   0.149639739679877  -0.000725212319321 1
ion O   0.097263076597411   0.399556841396145   0.249046286212544 1
ion O   0.347343466891933   0.344627855439613   0.499344488492165 1
ion O   0.403100996961559   0.094527733234035   0.749554074842215 1
ion O   0.152902121036378   0.149712525471954   0.499285378845297 1
ion O   0.097365946612628   0.399753195298323   0.749134855418600 1
ion O   0.347007798475255   0.844658084515242  -0.000433270660008 1
ion O   0.403005404169060   0.594608836453743   0.249392354024479 1
ion O   0.152871196227551   0.649718134299448  -0.000543514152043 1
ion O   0.097124188426274   0.899424325718044   0.249487544016454 1
ion O   0.347189304811645   0.844584864476554   0.499448829351391 1
ion O   0.403088863983772   0.594697429185866   0.749243159787414 1
ion O   0.152794719403811   0.649503242970033   0.499368458329080 1
ion O   0.097097726639515   0.899624694580517   0.749346136027161 1
ion O   0.847463251450324   0.344485498280658  -0.000859585929856 1
ion O   0.902902072950014   0.094795051357884   0.249387461040602 1
ion O   0.653026047482944   0.149485596396990  -0.000745828484949 1
ion O   0.597495863790586   0.399753670734361   0.249306328437193 1
ion O   0.847334819300173   0.344354810009865   0.499260370735320 1
ion O   0.903002552610631   0.094389251615092   0.749448630174694 1
ion O   0.652943619506203   0.149525613845393   0.499320200754477 1
ion O   0.597554850459090   0.399711940370801   0.749349055764180 1
ion O   0.847084042096921   0.844813693632177  -0.000435594548778 1
ion O   0.902695848531203   0.594514179075381   0.249213146416064 1
ion O   0.653002142747709   0.649673160335481  -0.000534055876656 1
ion O   0.597125030544558   0.899442846486132   0.249657471207788 1
ion O   0.847107822770363   0.844661984652564   0.499398254653269 1
ion O   0.903063665018131   0.594602243271638   0.749200153122113 1
ion O   0.653011373594831   0.649535931787945   0.499489605732198 1
ion O   0.596985634016381   0.899342162067313   0.749507074771360 1

# Forces in Lattice coordinates:
force Ru   0.005844426046259  -0.006222475928418  -0.001901065260767 1
force Ru   0.004033639680714   0.001710708234225  -0.003619320568443 1
force Ru  -0.001809431949324  -0.000721126999969   0.006322439365759 1
force Ru   0.000573271470166  -0.002619923874765   0.003611014521427 1
force Ru  -0.000098039714464  -0.001560211455995  -0.000289984804937 1
force Ru  -0.002723540348468  -0.001562914403340  -0.000469873861875 1
force Ru  -0.001419114918069  -0.000159710990996   0.000952630752594 1
force Ru   0.000138728468161   0.003884152424997  -0.000437502606604 1
force Ru   0.001539552805953  -0.000668424287861  -0.000255829667121 1
force Ru  -0.001481743644090  -0.000950478985476  -0.000267236497910 1
force Ru  -0.002128599087926   0.002630748922928   0.000681489559250 1
force Ru   0.001484511486778   0.000011775934864   0.001629858436393 1
force Ru   0.003731149809360  -0.000739228659686  -0.001055288820622 1
force Ru  -0.001063172316298  -0.002991047507952  -0.002668712171835 1
force Ru  -0.003731181921195   0.001651805058997  -0.001954521428545 1
force Ru  -0.002209946722321   0.001773178056865   0.001342977173525 1
force O  -0.004619422002155  -0.005131873016673  -0.000178389130632 1
force O  -0.002121423772561  -0.004898095501626   0.000437116123687 1
force O  -0.003050219525664  -0.001098258756585   0.000021835082758 1
force O  -0.001683500438806   0.004362329552729   0.003020253234667 1
force O   0.002398720255127   0.001338828395091  -0.001657778038187 1
force O  -0.006252702934963   0.003882106632338  -0.002483759917771 1
force O   0.002050076640445  -0.000163836343379  -0.001034715549078 1
force O   0.001183578323160  -0.002926829174848   0.001630598357074 1
force O   0.004392253973074  -0.000193676442667  -0.001943659722786 1
force O  -0.001139049224937   0.000450425350940  -0.000155087589337 1
force O   0.001422567622484  -0.000994671922760  -0.001504736986554 1
force O   0.002336697140305   0.003887494455789  -0.000801458776974 1
force O   0.000205137734770   0.001756038873053  -0.000918633867390 1
force O  -0.003766887139297  -0.000219572011237   0.002084407930700 1
force O   0.003610412795779   0.002311266228403   0.000015911591265 1
force O   0.001380926506965  -0.000049201278822   0.000525909753918 1
force O  -0.002420805969983  -0.000736054882057   0.001345676446181 1
force O   0.002388194369934  -0.006261125628216  -0.000623924762998 1
force O  -0.002007000636437  -0.000086591445108   0.001060441716358 1
force O  -0.003779474820305  -0.000409624907392  -0.000236012798130 1
force O   0.001007705624415   0.002445380120981   0.000420979854489 1
force O  -0.001635257912190   0.003811520714730  -0.001117781265824 1
force O   0.000793976382054   0.001817689041333  -0.000356892241667 1
force O  -0.002692219022055  -0.000973959104021   0.000298492268854 1
force O   0.001861716079668  -0.004684752463688  -0.000899907592277 1
force O   0.004500985025992  -0.001674601262820   0.000588253516096 1
force O   0.000533703770671   0.001132647191814  -0.000827120705423 1
force O  -0.001013836839673   0.003791571162284  -0.003534847122699 1
force O   0.004376171796006   0.001393706852887   0.000713119838687 1
force O  -0.003750030422345   0.000623383454256   0.000984485102297 1
force O   0.002262355772494   0.003176625362186   0.000190856075237 1
force O   0.002867028450997   0.004252483324662  -0.000627356752275 1

# Energy components:
   Eewald =    -1548.9468026125705364
       EH =      456.7618658782689067
     Eloc =    -1707.9758460452833333
      Enl =      359.5570412915351426
      Exc =     -320.0503495112241126
 Exc_core =       35.2066607924132953
       KE =      691.5821672787222951
-------------------------------------
     Etot =    -2033.8652629281386908
       TS =        0.2789457803372363
-------------------------------------
        F =    -2034.1442087084758441

IonicMinimize: Iter:  11  F: -2034.144208708475844  |grad|_K:  1.568e-04  alpha:  1.000e+00  linmin: -1.921e-01  t[s]:  15487.76

#--- Lowdin population analysis ---
# oxidation-state Ru +0.431 +0.431 +0.431 +0.431 +0.431 +0.431 +0.431 +0.431 +0.431 +0.431 +0.431 +0.431 +0.431 +0.431 +0.431 +0.431
# oxidation-state O -0.190 -0.190 -0.191 -0.190 -0.190 -0.190 -0.190 -0.190 -0.190 -0.190 -0.190 -0.190 -0.190 -0.190 -0.190 -0.190 -0.190 -0.190 -0.190 -0.190 -0.190 -0.190 -0.190 -0.191 -0.190 -0.191 -0.190 -0.190 -0.190 -0.190 -0.190 -0.190


-------- Electronic minimization -----------
Will mix electronic density at each iteration.
	FillingsUpdate:  mu: +0.488391624  nElectrons: 448.000000
	FillingsUpdate:  mu: +0.488392122  nElectrons: 448.000000
SCF: Cycle:  0   F: -2034.144200030900265   dF: +3.384e-06   |Residual|: 2.126e-03   |deigs|: 2.702e-07  t[s]:  15570.96
	FillingsUpdate:  mu: +0.488392086  nElectrons: 448.000000
SCF: Cycle:  1   F: -2034.144105325705141   dF: +9.471e-05   |Residual|: 4.701e-03   |deigs|: 3.307e-05  t[s]:  15620.29
	FillingsUpdate:  mu: +0.488391977  nElectrons: 448.000000
SCF: Cycle:  2   F: -2034.144210329571479   dF: -1.050e-04   |Residual|: 1.485e-03   |deigs|: 3.235e-05  t[s]:  15668.81
	FillingsUpdate:  mu: +0.488391931  nElectrons: 448.000000
SCF: Cycle:  3   F: -2034.144219335026492   dF: -9.005e-06   |Residual|: 3.322e-04   |deigs|: 5.080e-06  t[s]:  15718.85
	FillingsUpdate:  mu: +0.488391911  nElectrons: 448.000000
SCF: Cycle:  4   F: -2034.144219374446266   dF: -3.942e-08   |Residual|: 1.629e-04   |deigs|: 1.365e-06  t[s]:  15767.06
	FillingsUpdate:  mu: +0.488391913  nElectrons: 448.000000
SCF: Cycle:  5   F: -2034.144219349548621   dF: +2.490e-08   |Residual|: 1.590e-04   |deigs|: 1.608e-06  t[s]:  15815.28
	FillingsUpdate:  mu: +0.488391918  nElectrons: 448.000000
SCF: Cycle:  6   F: -2034.144219477560910   dF: -1.280e-07   |Residual|: 5.576e-05   |deigs|: 1.407e-06  t[s]:  15865.31
	FillingsUpdate:  mu: +0.488391932  nElectrons: 448.000000
SCF: Cycle:  7   F: -2034.144219482752078   dF: -5.191e-09   |Residual|: 2.747e-05   |deigs|: 4.488e-07  t[s]:  15914.80
	FillingsUpdate:  mu: +0.488391932  nElectrons: 448.000000
SCF: Cycle:  8   F: -2034.144219483093138   dF: -3.411e-10   |Residual|: 2.434e-05   |deigs|: 4.076e-07  t[s]:  15964.28
SCF: Converged (|Delta E|<1.000000e-08 for 2 iters).

Setting wave functions to eigenvectors of Hamiltonian

# Ionic positions in lattice coordinates:
ion Ru   0.250116539283866   0.247254233523970   0.249290947951406 1
ion Ru   0.000138339464759  -0.002893966777300  -0.000544077102215 1
ion Ru   0.250211589535658   0.247114142044068   0.749306229076537 1
ion Ru   0.000118490047786  -0.002846868630506   0.499317555532586 1
ion Ru   0.250048698221339   0.747065576461690   0.249447007620293 1
ion Ru   0.000111058789445   0.497162161218174  -0.000741858661812 1
ion Ru   0.250026470696342   0.747097244183296   0.749382579523555 1
ion Ru   0.000024058906964   0.497029290908531   0.499301864159499 1
ion Ru   0.750067046868245   0.247087076587430   0.249266936221038 1
ion Ru   0.500050952568998  -0.002936840538477  -0.000495459302895 1
ion Ru   0.750175561276433   0.246986907642935   0.749352599479522 1
ion Ru   0.500039870519760  -0.002912518345056   0.499447258613583 1
ion Ru   0.750072786446056   0.747127849032955   0.249405940143431 1
ion Ru   0.500245427968037   0.497217604618628  -0.000698130166060 1
ion Ru   0.750130797159308   0.747167771152202   0.749427537069649 1
ion Ru   0.500210188175418   0.497079318996936   0.499373366015898 1
ion O   0.347455752412005   0.344655630697840  -0.000775858394189 1
ion O   0.403022611167830   0.094804907330556   0.249344988022587 1
ion O   0.153053539802652   0.149602674948676  -0.000700886572231 1
ion O   0.097235266034753   0.399630006164582   0.249247496730670 1
ion O   0.347325616418397   0.344612445731442   0.499356966340648 1
ion O   0.402973188474527   0.094523449699798   0.749434841735481 1
ion O   0.152962034713318   0.149675875318268   0.499304693243274 1
ion O   0.097345489656620   0.399660676367424   0.749295445517221 1
ion O   0.347091759277799   0.844621510930150  -0.000510723818772 1
ion O   0.402991387649298   0.594598701521751   0.249352812041409 1
ion O   0.152866014399327   0.649730687319855  -0.000588096544663 1
ion O   0.097236246833145   0.899555572471256   0.249430034909312 1
ion O   0.347191657617301   0.844625687057167   0.499374658577982 1
ion O   0.403020263791545   0.594661632248554   0.749325983072864 1
ion O   0.152843135907636   0.649535622508669   0.499368190246131 1
ion O   0.097157627872991   0.899596703048010   0.749339768445065 1
ion O   0.847414588880894   0.344476138635566  -0.000753749893750 1
ion O   0.902873688032620   0.094646847453787   0.249326491458971 1
ion O   0.652947474650121   0.149571981016850  -0.000690210414788 1
ion O   0.597356093098322   0.399681214717916   0.249269349216325 1
ion O   0.847304500831195   0.344423821539786   0.499304878352928 1
ion O   0.903036456074061   0.094508084753233   0.749401504545454 1
ion O   0.652921690355953   0.149552599259465   0.499338279105470 1
ion O   0.597469271264449   0.399668486634951   0.749394328360426 1
ion O   0.847229246389384   0.844693520604541  -0.000532698344076 1
ion O   0.902827978543548   0.594523742793317   0.249288813817017 1
ion O   0.652987301831573   0.649726295965462  -0.000630111375757 1
ion O   0.597149940376787   0.899541451064192   0.249541307225994 1
ion O   0.847189232304673   0.844670666963453   0.499364974440256 1
ion O   0.903023524922270   0.594632319309694   0.749266858585502 1
ion O   0.653029239280899   0.649581964495073   0.499443196801002 1
ion O   0.597060305205691   0.899460099349237   0.749526178392223 1

# Forces in Lattice coordinates:
force Ru   0.002890088807713  -0.002627858420814  -0.001280834457306 1
force Ru   0.000759875367302   0.001670710425785  -0.001027509018970 1
force Ru  -0.001832991402835   0.001789820787727   0.001432419297093 1
force Ru  -0.000954224393486  -0.001003354584039   0.000001097119087 1
force Ru   0.001579551966040  -0.000003760600885   0.000652479565725 1
force Ru  -0.000548251024789  -0.002337674199111   0.000735896411370 1
force Ru   0.001290457884796   0.000758328412328  -0.001405517225000 1
force Ru   0.001710867664368   0.001551483264886  -0.000585158855099 1
force Ru   0.000715976391709   0.000165581783009   0.000530990090167 1
force Ru  -0.001158925554611   0.000906445353891  -0.000372988057756 1
force Ru  -0.001152611428143   0.001909171670827  -0.000885889171570 1
force Ru   0.000491971094063   0.000637507077587  -0.001365867613418 1
force Ru   0.001568933244721   0.001962168342486   0.001237717496339 1
force Ru  -0.002728878639751  -0.001451683705020  -0.000008506048021 1
force Ru  -0.000057695790668   0.000400389907223  -0.001766089109802 1
force Ru  -0.001502221367085   0.003890702803786  -0.000043415572287 1
force O  -0.003077872333819  -0.001881020534184   0.001072386394710 1
force O  -0.001059837272557  -0.004454048780841   0.001749741272920 1
force O  -0.001555320909326   0.000602941442635   0.000749279063942 1
force O   0.000565976416779   0.001276845840740   0.000350613406259 1
force O   0.001066514588765  -0.000103051610705  -0.000544890633020 1
force O  -0.002038582935816   0.001490762431401  -0.000120583908085 1
force O   0.000782042884498   0.000730323714214  -0.000407986656924 1
force O   0.000258711788289  -0.000395434407671   0.000093728860929 1
force O   0.002755796959318  -0.000564665464916  -0.001203619903571 1
force O  -0.000658188751749  -0.000466952637978   0.000175234963998 1
force O   0.000290622260120  -0.002286863104604  -0.000660497662246 1
force O   0.000840019672252   0.000852041207156  -0.000259214153771 1
force O  -0.000197675441459  -0.001527483809341   0.000437679019613 1
force O  -0.002113364862761   0.000021235619787   0.000113814103651 1
force O   0.001983348725039   0.001750891173999   0.000270364276231 1
force O   0.002265158204654   0.000286396205101   0.000210160647006 1
force O  -0.001563682367382   0.000851288356575   0.000867768127180 1
force O   0.002609700501914  -0.002741910428138   0.000430605632205 1
force O  -0.001455280273961  -0.001649608910915   0.000189608361007 1
force O   0.000342519711622   0.000078049900732   0.000758073889021 1
force O   0.000348765170361   0.001282232825130   0.000308675073613 1
force O  -0.002697656673747   0.001212959832779  -0.000402890801548 1
force O   0.000925329864199   0.001813924396969   0.000316774933843 1
force O  -0.000910970927888  -0.000653665351826  -0.000912824009048 1
force O  -0.000225089042480  -0.002690547613313  -0.000823527036203 1
force O   0.000647543112880  -0.000098511900258   0.000322497796923 1
force O  -0.000429239761095  -0.001295415729493   0.000070765262849 1
force O   0.001650460640617   0.000421039992229  -0.001936295372415 1
force O   0.001936389967109  -0.000756065245650   0.000283248853350 1
force O  -0.004372796116078   0.000807706849810   0.000747599122372 1
force O  -0.000376460008479   0.001278256288695  -0.000525892966124 1
force O   0.002758770345641   0.002211294824696  -0.001553406218487 1

# Energy components:
   Eewald =    -1548.9434238955486762
       EH =      456.7653232610146006
     Eloc =    -1707.9829187218126663
      Enl =      359.5570739865461292
      Exc =     -320.0504437761222221
 Exc_core =       35.2066610883007911
       KE =      691.5824552588564984
-------------------------------------
     Etot =    -2033.8652727987655453
       TS =        0.2789466843275282
-------------------------------------
        F =    -2034.1442194830931385

IonicMinimize: Iter:  12  F: -2034.144219483093138  |grad|_K:  8.877e-05  alpha:  1.000e+00  linmin: -3.871e-01  t[s]:  15977.45
IonicMinimize: Converged (|grad|_K<1.000000e-04).

#--- Lowdin population analysis ---
# oxidation-state Ru +0.431 +0.431 +0.431 +0.431 +0.431 +0.431 +0.431 +0.431 +0.431 +0.431 +0.431 +0.431 +0.431 +0.431 +0.431 +0.431
# oxidation-state O -0.190 -0.190 -0.190 -0.190 -0.190 -0.190 -0.190 -0.190 -0.190 -0.190 -0.190 -0.190 -0.190 -0.190 -0.190 -0.190 -0.190 -0.190 -0.190 -0.190 -0.190 -0.190 -0.190 -0.190 -0.190 -0.190 -0.190 -0.190 -0.190 -0.190 -0.190 -0.190


Dumping '/data/rc652/RuO2/ion/RuO2_ion.Ecomponents' ... done
End date and time: Sat Jul 13 20:53:32 2024  (Duration: 0-4:26:26.15)
Done!
