--------------------------------------------------------------------------
[[46748,1],3]: A high-performance Open MPI point-to-point messaging module
was unable to find any relevant network interfaces:

Module: OpenFabrics (openib)
  Host: node3223

Another transport will be used instead, although this may result in
lower performance.
--------------------------------------------------------------------------

*************** JDFTx 1.7.0 (git hash 3664913) ***************

Start date and time: Thu Jun 27 05:01:13 2024
Executable jdftx with command-line: -i Sc2O3_vac.in
Running on hosts (process indices):  node3223.physics.cornell.edu (0-15)
Divided in process groups (process indices):  0 (0)  1 (1)  2 (2)  3 (3)  4 (4)  5 (5)  6 (6)  7 (7)  8 (8)  9 (9)  10 (10)  11 (11)  12 (12)  13 (13)  14 (14)  15 (15)
Resource initialization completed at t[s]:      0.00
Run totals: 16 processes, 32 threads, 0 GPUs


Input parsed successfully to the following command list (including defaults):

basis kpoint-dependent
coords-type Lattice
core-overlap-check vector
coulomb-interaction Periodic
davidson-band-ratio 1.1
dump End Ecomponents
dump-name /data/rc652/Sc2O3/vac/Sc2O3_vac.$VAR
elec-cutoff 20 100
elec-eigen-algo Davidson
elec-ex-corr gga-PBEsol
elec-smearing Fermi 0.01
electronic-minimize  \
	dirUpdateScheme      FletcherReeves \
	linminMethod         DirUpdateRecommended \
	nIterations          100 \
	history              15 \
	knormThreshold       0 \
	maxThreshold         no \
	energyDiffThreshold  1e-08 \
	nEnergyDiff          2 \
	alphaTstart          1 \
	alphaTmin            1e-10 \
	updateTestStepSize   yes \
	alphaTreduceFactor   0.1 \
	alphaTincreaseFactor 3 \
	nAlphaAdjustMax      3 \
	wolfeEnergy          0.0001 \
	wolfeGradient        0.9 \
	fdTest               no
electronic-scf  \
	nIterations	50 \
	energyDiffThreshold	1e-08 \
	residualThreshold	1e-07 \
	mixFraction	0.5 \
	qMetric	0.8 \
	history	10 \
	nEigSteps	2 \
	eigDiffThreshold	1e-08 \
	mixedVariable	Density \
	qKerker	0.8 \
	qKappa	-1 \
	verbose	no \
	mixFractionMag	1.5
exchange-regularization WignerSeitzTruncated
fluid None
fluid-ex-corr lda-TF lda-PZ
fluid-gummel-loop 10 1.000000e-05
fluid-minimize  \
	dirUpdateScheme      PolakRibiere \
	linminMethod         DirUpdateRecommended \
	nIterations          100 \
	history              15 \
	knormThreshold       0 \
	maxThreshold         no \
	energyDiffThreshold  0 \
	nEnergyDiff          2 \
	alphaTstart          1 \
	alphaTmin            1e-10 \
	updateTestStepSize   yes \
	alphaTreduceFactor   0.1 \
	alphaTincreaseFactor 3 \
	nAlphaAdjustMax      3 \
	wolfeEnergy          0.0001 \
	wolfeGradient        0.9 \
	fdTest               no
fluid-solvent H2O 55.338 ScalarEOS \
	epsBulk 78.4 \
	pMol 0.92466 \
	epsInf 1.77 \
	Pvap 1.06736e-10 \
	sigmaBulk 4.62e-05 \
	Rvdw 2.61727 \
	Res 1.42 \
	tauNuc 343133 \
	poleEl 15 7 1
forces-output-coords Positions
ion O   0.752830000000000   0.248220000000000   0.757050000000000 1
ion O  -0.000820000000000  -0.003080000000000   0.734700000000000 1
ion O   0.499650000000000   0.250350000000000  -0.010460000000000 1
ion O   0.497540000000000   0.508380000000000   0.739940000000000 1
ion O   0.490760000000000   0.749170000000000   0.501340000000000 1
ion O   0.745700000000000   0.763660000000000   0.242990000000000 1
ion O   0.004970000000000   0.745480000000000   0.013940000000000 1
ion O  -0.020560000000000   0.497380000000000   0.261400000000000 1
ion O   0.247090000000000   0.740950000000000   0.742720000000000 1
ion O   0.752230000000000   0.008990000000000   0.011120000000000 1
ion O   0.256280000000000  -0.030300000000000   0.514120000000000 1
ion O   0.744550000000000   0.506270000000000   0.502650000000000 1
ion O   0.011930000000000   0.260030000000000  -0.007900000000000 1
ion O   0.755300000000000  -0.004910000000000   0.499320000000000 1
ion O   0.752870000000000   0.257250000000000   0.253980000000000 1
ion O   0.492900000000000   0.244030000000000   0.492680000000000 1
ion O   0.500880000000000   0.487560000000000   0.244250000000000 1
ion O   0.254500000000000   0.245830000000000   0.740910000000000 1
ion O   0.499630000000000   0.746760000000000  -0.014210000000000 1
ion O   0.244390000000000   0.016270000000000  -0.010180000000000 1
ion O   0.242670000000000   0.742530000000000   0.229460000000000 1
ion O  -0.003610000000000   0.486060000000000   0.747360000000000 1
ion O  -0.003590000000000  -0.005560000000000   0.240050000000000 1
ion Sc   0.762910000000000   0.717880000000000   0.971830000000000 1
ion Sc   0.544260000000000   0.248350000000000   0.779900000000000 1
ion Sc   0.790530000000000   0.541630000000000   0.247960000000000 1
ion Sc   0.957340000000000   0.750120000000000   0.708770000000000 1
ion Sc   0.714800000000000   0.977860000000000   0.728390000000000 1
ion Sc   0.247630000000000   0.786010000000000   0.540350000000000 1
ion Sc   0.732830000000000   0.232800000000000   0.480200000000000 1
ion Sc   0.002630000000000   0.257820000000000   0.287560000000000 1
ion Sc   0.261580000000000   0.019870000000000   0.237360000000000 1
ion Sc   0.479570000000000   0.737720000000000   0.229900000000000 1
ion Sc   0.243200000000000   0.495540000000000   0.732490000000000 1
ion Sc   0.248970000000000   0.279080000000000   0.017650000000000 1
ion Sc  -0.003260000000000   0.510150000000000  -0.001340000000000 1
ion Sc   0.498750000000000  -0.010260000000000  -0.004650000000000 1
ion Sc  -0.004550000000000  -0.005170000000000   0.489850000000000 1
ion Sc   0.503090000000000   0.485970000000000   0.486950000000000 1
ion-species GBRV/$ID_pbesol.uspp
ion-width 0
ionic-minimize  \
	dirUpdateScheme      L-BFGS \
	linminMethod         DirUpdateRecommended \
	nIterations          30 \
	history              15 \
	knormThreshold       0.0001 \
	maxThreshold         no \
	energyDiffThreshold  1e-06 \
	nEnergyDiff          2 \
	alphaTstart          1 \
	alphaTmin            1e-10 \
	updateTestStepSize   yes \
	alphaTreduceFactor   0.1 \
	alphaTincreaseFactor 3 \
	nAlphaAdjustMax      3 \
	wolfeEnergy          0.0001 \
	wolfeGradient        0.9 \
	fdTest               no
kpoint   0.500000000000   0.500000000000   0.500000000000  1.00000000000000
kpoint-folding 4 4 4 
latt-move-scale 1 1 1
latt-scale 1 1 1 
lattice  \
	  15.103010356151813   -7.551485125126342    0.000000030805744  \
	   0.000000021482740   13.079579132467680    0.000000053356926  \
	  -5.339704579097528   -5.339704579097677   16.019163907242984 
lattice-minimize  \
	dirUpdateScheme      L-BFGS \
	linminMethod         DirUpdateRecommended \
	nIterations          0 \
	history              15 \
	knormThreshold       0 \
	maxThreshold         no \
	energyDiffThreshold  1e-06 \
	nEnergyDiff          2 \
	alphaTstart          1 \
	alphaTmin            1e-10 \
	updateTestStepSize   yes \
	alphaTreduceFactor   0.1 \
	alphaTincreaseFactor 3 \
	nAlphaAdjustMax      3 \
	wolfeEnergy          0.0001 \
	wolfeGradient        0.9 \
	fdTest               no
lcao-params -1 1e-06 0.01
pcm-variant GLSSA13
perturb-minimize  \
	nIterations            0 \
	algorithm              MINRES \
	residualTol            0.0001 \
	residualDiffThreshold  0.0001 \
	CGBypass               no \
	recomputeResidual      no
spintype no-spin
subspace-rotation-factor 1 yes
symmetries automatic
symmetry-threshold 0.0001



---------- Setting up symmetries ----------

Found 48 point-group symmetries of the bravais lattice
Found 1 space-group symmetries with basis
Applied RMS atom displacement 0 bohrs to make symmetries exact.

---------- Initializing the Grid ----------
R = 
[       15.103     -7.55149  3.08057e-08  ]
[  2.14827e-08      13.0796  5.33569e-08  ]
[      -5.3397      -5.3397      16.0192  ]
unit cell volume = 3164.44
G =
[   0.416022    0.24019 -1.60006e-09  ]
[ -1.24901e-09   0.480381 -1.60006e-09  ]
[   0.138674    0.24019   0.392229  ]
Minimum fftbox size, Smin = [  76  76  76  ]
Chosen fftbox size, S = [  80  80  80  ]

---------- Initializing tighter grid for wavefunction operations ----------
R = 
[       15.103     -7.55149  3.08057e-08  ]
[  2.14827e-08      13.0796  5.33569e-08  ]
[      -5.3397      -5.3397      16.0192  ]
unit cell volume = 3164.44
G =
[   0.416022    0.24019 -1.60006e-09  ]
[ -1.24901e-09   0.480381 -1.60006e-09  ]
[   0.138674    0.24019   0.392229  ]
Minimum fftbox size, Smin = [  68  68  68  ]
Chosen fftbox size, S = [  70  70  70  ]

---------- Exchange Correlation functional ----------
Initalized PBEsol GGA exchange.
Initalized PBEsol GGA correlation.

---------- Setting up pseudopotentials ----------
Width of ionic core gaussian charges (only for fluid interactions / plotting) set to 0

Reading pseudopotential file '/home/rc652/build/pseudopotentials/GBRV/o_pbesol.uspp':
  Title: O.  Created by USPP 7.3.6 on 3-2-2014
  Reference state energy: -15.849885.  6 valence electrons in orbitals:
    |200>  occupation: 2  eigenvalue: -0.873214
    |210>  occupation: 4  eigenvalue: -0.330058
  lMax: 2  lLocal: 2  QijEcut: 6
  5 projectors sampled on a log grid with 511 points:
    l: 0  eig: -0.873214  rCut: 1.25
    l: 0  eig: 0.000000  rCut: 1.25
    l: 1  eig: -0.330058  rCut: 1.25
    l: 1  eig: 0.000000  rCut: 1.25
    l: 2  eig: 1.000000  rCut: 1.25
  Partial core density with radius 0.7
  Transforming core density to a uniform radial grid of dG=0.02 with 2359 points.
  Transforming local potential to a uniform radial grid of dG=0.02 with 2359 points.
  Transforming nonlocal projectors to a uniform radial grid of dG=0.02 with 432 points.
  Transforming density augmentations to a uniform radial grid of dG=0.02 with 2359 points.
  Transforming atomic orbitals to a uniform radial grid of dG=0.02 with 432 points.
  Core radius for overlap checks: 1.25 bohrs.

Reading pseudopotential file '/home/rc652/build/pseudopotentials/GBRV/sc_pbesol.uspp':
  Title: Sc.  Created by USPP 7.3.6 on 23-7-2013
  Reference state energy: -46.940880.  11 valence electrons in orbitals:
    |300>  occupation: 2  eigenvalue: -2.016614
    |310>  occupation: 6  eigenvalue: -1.232889
    |400>  occupation: 2  eigenvalue: -0.153915
    |320>  occupation: 1  eigenvalue: -0.119309
    |410>  occupation: 0  eigenvalue: -0.053306
  lMax: 2  lLocal: 3  QijEcut: 5
  6 projectors sampled on a log grid with 593 points:
    l: 0  eig: -2.016614  rCut: 2.2
    l: 0  eig: -0.153915  rCut: 2.2
    l: 1  eig: -1.232889  rCut: 2.2
    l: 1  eig: -0.053306  rCut: 2.2
    l: 2  eig: -0.119309  rCut: 2.2
    l: 2  eig: 0.150000  rCut: 2.2
  Partial core density with radius 1
  Transforming core density to a uniform radial grid of dG=0.02 with 2359 points.
  Transforming local potential to a uniform radial grid of dG=0.02 with 2359 points.
  Transforming nonlocal projectors to a uniform radial grid of dG=0.02 with 432 points.
  Transforming density augmentations to a uniform radial grid of dG=0.02 with 2359 points.
  Transforming atomic orbitals to a uniform radial grid of dG=0.02 with 432 points.
  Core radius for overlap checks: 2.20 bohrs.

Initialized 2 species with 39 total atoms.

Folded 1 k-points by 4x4x4 to 64 k-points.

---------- Setting up k-points, bands, fillings ----------
Adding inversion symmetry to k-mesh for non-inversion-symmetric unit cell.
Reduced to 32 k-points under symmetry. 
Computing the number of bands and number of electrons
Calculating initial fillings.
nElectrons: 314.000000   nBands: 300   nStates: 32

----- Setting up reduced wavefunction bases (one per k-point) -----
average nbasis = 13512.844 , ideal nbasis = 13518.737

---------- Setting up ewald sum ----------
Optimum gaussian width for ewald sums = 3.135808 bohr.
Real space sum over 729 unit cells with max indices [  4  4  4  ]
Reciprocal space sum over 6859 terms with max indices [  9  9  9  ]

---------- Allocating electronic variables ----------
Initializing wave functions:  linear combination of atomic orbitals
O pseudo-atom occupations:   s ( 2 )  p ( 4 )
Sc pseudo-atom occupations:   s ( 2 2 )  p ( 6 0 )  d ( 1 )
	FillingsUpdate:  mu: +0.420860035  nElectrons: 314.000000
LCAOMinimize: Iter:   0  F: -1114.7279278404380420  |grad|_K:  3.059e-03  alpha:  1.000e+00
	FillingsUpdate:  mu: +0.423831910  nElectrons: 314.000000
LCAOMinimize: Iter:   1  F: -1116.6734053200473227  |grad|_K:  2.622e-03  alpha:  7.322e-02  linmin: -4.313e-01  cgtest:  9.055e-01  t[s]:     89.82
LCAOMinimize: Encountered beta<0, resetting CG.
LCAOMinimize: 	Predicted alpha/alphaT>3.000000, increasing alphaT to 2.196601e-01.
LCAOMinimize: 	Step increased F by 2.113516e+00, reducing alpha to 3.943613e-02.
	FillingsUpdate:  mu: +0.425221954  nElectrons: 314.000000
LCAOMinimize: Iter:   2  F: -1117.4406921890395097  |grad|_K:  2.378e-03  alpha:  3.944e-02  linmin: -4.325e-01  cgtest:  9.559e-01  t[s]:    156.26
LCAOMinimize: Encountered beta<0, resetting CG.
LCAOMinimize: 	Predicted alpha/alphaT>3.000000, increasing alphaT to 1.183084e-01.
LCAOMinimize: 	Predicted alpha/alphaT>3.000000, increasing alphaT to 3.549252e-01.
	FillingsUpdate:  mu: +0.409356018  nElectrons: 314.000000
LCAOMinimize: Iter:   3  F: -1119.7300298923551054  |grad|_K:  8.039e-04  alpha:  1.824e-01  linmin: -4.174e-01  cgtest:  7.506e-01  t[s]:    206.30
LCAOMinimize: Encountered beta<0, resetting CG.
	FillingsUpdate:  mu: +0.388011558  nElectrons: 314.000000
LCAOMinimize: Iter:   4  F: -1119.9422501041888154  |grad|_K:  1.958e-04  alpha:  2.361e-01  linmin:  2.348e-01  cgtest: -4.479e-01  t[s]:    239.84
	FillingsUpdate:  mu: +0.388066319  nElectrons: 314.000000
LCAOMinimize: Iter:   5  F: -1119.9490120475666117  |grad|_K:  1.475e-04  alpha:  1.956e-01  linmin: -9.213e-04  cgtest:  6.230e-01  t[s]:    272.98
	FillingsUpdate:  mu: +0.387531103  nElectrons: 314.000000
LCAOMinimize: Iter:   6  F: -1119.9561822976070289  |grad|_K:  4.628e-05  alpha:  2.263e-01  linmin: -2.233e-02  cgtest:  2.752e-02  t[s]:    305.75
	FillingsUpdate:  mu: +0.387032548  nElectrons: 314.000000
LCAOMinimize: Iter:   7  F: -1119.9574760923339909  |grad|_K:  3.083e-05  alpha:  4.122e-01  linmin:  6.240e-03  cgtest: -5.997e-02  t[s]:    339.14
	FillingsUpdate:  mu: +0.386748360  nElectrons: 314.000000
LCAOMinimize: Iter:   8  F: -1119.9578279299657879  |grad|_K:  9.099e-06  alpha:  2.600e-01  linmin: -8.556e-05  cgtest:  1.070e-01  t[s]:    372.43
	FillingsUpdate:  mu: +0.386626823  nElectrons: 314.000000
LCAOMinimize: Iter:   9  F: -1119.9578523853674596  |grad|_K:  2.532e-06  alpha:  2.038e-01  linmin: -2.699e-04  cgtest: -2.204e-03  t[s]:    404.87
	FillingsUpdate:  mu: +0.386612639  nElectrons: 314.000000
LCAOMinimize: Iter:  10  F: -1119.9578557910422205  |grad|_K:  1.710e-06  alpha:  3.667e-01  linmin:  4.808e-04  cgtest: -6.171e-04  t[s]:    437.86
	FillingsUpdate:  mu: +0.386610820  nElectrons: 314.000000
LCAOMinimize: Iter:  11  F: -1119.9578571736417416  |grad|_K:  9.259e-07  alpha:  3.264e-01  linmin:  5.034e-05  cgtest:  2.606e-03  t[s]:    471.17
	FillingsUpdate:  mu: +0.386622142  nElectrons: 314.000000
LCAOMinimize: Iter:  12  F: -1119.9578574338277122  |grad|_K:  3.715e-07  alpha:  2.093e-01  linmin: -3.656e-05  cgtest:  5.731e-04  t[s]:    504.40
	FillingsUpdate:  mu: +0.386625052  nElectrons: 314.000000
LCAOMinimize: Iter:  13  F: -1119.9578574895099337  |grad|_K:  1.831e-07  alpha:  2.783e-01  linmin: -2.513e-06  cgtest: -3.386e-04  t[s]:    537.54
LCAOMinimize: Converged (|Delta F|<1.000000e-06 for 2 iters).


---- Citations for features of the code used in this run ----

   Software package:
      R. Sundararaman, K. Letchworth-Weaver, K.A. Schwarz, D. Gunceler, Y. Ozhabes and T.A. Arias, 'JDFTx: software for joint density-functional theory', SoftwareX 6, 278 (2017)

   gga-PBEsol exchange-correlation functional:
      J.P. Perdew et al., Phys. Rev. Lett. 100, 136406 (2008)

   Pseudopotentials:
      KF Garrity, JW Bennett, KM Rabe and D Vanderbilt, Comput. Mater. Sci. 81, 446 (2014)

This list may not be complete. Please suggest additional citations or
report any other bugs at https://github.com/shankar1729/jdftx/issues

Initialization completed successfully at t[s]:    548.16


-------- Electronic minimization -----------
Will mix electronic density at each iteration.
	FillingsUpdate:  mu: +0.386625052  nElectrons: 314.000000
	FillingsUpdate:  mu: +0.379070471  nElectrons: 314.000000
SCF: Cycle:  0   F: -1120.412426281175385   dF: -4.546e-01   |Residual|: 3.691e-01   |deigs|: 3.706e-02  t[s]:    668.71
	FillingsUpdate:  mu: +0.373544586  nElectrons: 314.000000
SCF: Cycle:  1   F: -1120.442886794349988   dF: -3.046e-02   |Residual|: 1.363e-01   |deigs|: 8.200e-03  t[s]:    769.76
	FillingsUpdate:  mu: +0.373082262  nElectrons: 314.000000
SCF: Cycle:  2   F: -1120.470105309220799   dF: -2.722e-02   |Residual|: 1.131e-01   |deigs|: 5.813e-03  t[s]:    870.83
	FillingsUpdate:  mu: +0.371899998  nElectrons: 314.000000
SCF: Cycle:  3   F: -1120.480766734866165   dF: -1.066e-02   |Residual|: 2.826e-02   |deigs|: 1.543e-03  t[s]:    966.20
	FillingsUpdate:  mu: +0.372003842  nElectrons: 314.000000
SCF: Cycle:  4   F: -1120.481533238834800   dF: -7.665e-04   |Residual|: 1.335e-02   |deigs|: 3.206e-04  t[s]:   1051.92
	FillingsUpdate:  mu: +0.372136531  nElectrons: 314.000000
SCF: Cycle:  5   F: -1120.481637619094272   dF: -1.044e-04   |Residual|: 5.052e-03   |deigs|: 3.962e-04  t[s]:   1112.64
	FillingsUpdate:  mu: +0.372172739  nElectrons: 314.000000
SCF: Cycle:  6   F: -1120.481669676223191   dF: -3.206e-05   |Residual|: 1.890e-03   |deigs|: 6.902e-05  t[s]:   1173.88
	FillingsUpdate:  mu: +0.372187153  nElectrons: 314.000000
SCF: Cycle:  7   F: -1120.481671900355650   dF: -2.224e-06   |Residual|: 8.831e-04   |deigs|: 1.829e-05  t[s]:   1234.87
	FillingsUpdate:  mu: +0.372200027  nElectrons: 314.000000
SCF: Cycle:  8   F: -1120.481672482514341   dF: -5.822e-07   |Residual|: 4.064e-04   |deigs|: 1.365e-05  t[s]:   1295.87
	FillingsUpdate:  mu: +0.372208838  nElectrons: 314.000000
SCF: Cycle:  9   F: -1120.481672638012697   dF: -1.555e-07   |Residual|: 1.331e-04   |deigs|: 9.859e-06  t[s]:   1356.37
	FillingsUpdate:  mu: +0.372213457  nElectrons: 314.000000
SCF: Cycle: 10   F: -1120.481672649544862   dF: -1.153e-08   |Residual|: 6.928e-05   |deigs|: 4.977e-06  t[s]:   1417.71
	FillingsUpdate:  mu: +0.372213869  nElectrons: 314.000000
SCF: Cycle: 11   F: -1120.481672654134172   dF: -4.589e-09   |Residual|: 2.359e-05   |deigs|: 1.020e-06  t[s]:   1478.37
	FillingsUpdate:  mu: +0.372214096  nElectrons: 314.000000
SCF: Cycle: 12   F: -1120.481672654669410   dF: -5.352e-10   |Residual|: 1.072e-05   |deigs|: 4.105e-07  t[s]:   1541.90
SCF: Converged (|Delta E|<1.000000e-08 for 2 iters).

Setting wave functions to eigenvectors of Hamiltonian

# Ionic positions in lattice coordinates:
ion O   0.752830000000000   0.248220000000000   0.757050000000000 1
ion O  -0.000820000000000  -0.003080000000000   0.734700000000000 1
ion O   0.499650000000000   0.250350000000000  -0.010460000000000 1
ion O   0.497540000000000   0.508380000000000   0.739940000000000 1
ion O   0.490760000000000   0.749170000000000   0.501340000000000 1
ion O   0.745700000000000   0.763660000000000   0.242990000000000 1
ion O   0.004970000000000   0.745480000000000   0.013940000000000 1
ion O  -0.020560000000000   0.497380000000000   0.261400000000000 1
ion O   0.247090000000000   0.740950000000000   0.742720000000000 1
ion O   0.752230000000000   0.008990000000000   0.011120000000000 1
ion O   0.256280000000000  -0.030300000000000   0.514120000000000 1
ion O   0.744550000000000   0.506270000000000   0.502650000000000 1
ion O   0.011930000000000   0.260030000000000  -0.007900000000000 1
ion O   0.755300000000000  -0.004910000000000   0.499320000000000 1
ion O   0.752870000000000   0.257250000000000   0.253980000000000 1
ion O   0.492900000000000   0.244030000000000   0.492680000000000 1
ion O   0.500880000000000   0.487560000000000   0.244250000000000 1
ion O   0.254500000000000   0.245830000000000   0.740910000000000 1
ion O   0.499630000000000   0.746760000000000  -0.014210000000000 1
ion O   0.244390000000000   0.016270000000000  -0.010180000000000 1
ion O   0.242670000000000   0.742530000000000   0.229460000000000 1
ion O  -0.003610000000000   0.486060000000000   0.747360000000000 1
ion O  -0.003590000000000  -0.005560000000000   0.240050000000000 1
ion Sc   0.762910000000000   0.717880000000000   0.971830000000000 1
ion Sc   0.544260000000000   0.248350000000000   0.779900000000000 1
ion Sc   0.790530000000000   0.541630000000000   0.247960000000000 1
ion Sc   0.957340000000000   0.750120000000000   0.708770000000000 1
ion Sc   0.714800000000000   0.977860000000000   0.728390000000000 1
ion Sc   0.247630000000000   0.786010000000000   0.540350000000000 1
ion Sc   0.732830000000000   0.232800000000000   0.480200000000000 1
ion Sc   0.002630000000000   0.257820000000000   0.287560000000000 1
ion Sc   0.261580000000000   0.019870000000000   0.237360000000000 1
ion Sc   0.479570000000000   0.737720000000000   0.229900000000000 1
ion Sc   0.243200000000000   0.495540000000000   0.732490000000000 1
ion Sc   0.248970000000000   0.279080000000000   0.017650000000000 1
ion Sc  -0.003260000000000   0.510150000000000  -0.001340000000000 1
ion Sc   0.498750000000000  -0.010260000000000  -0.004650000000000 1
ion Sc  -0.004550000000000  -0.005170000000000   0.489850000000000 1
ion Sc   0.503090000000000   0.485970000000000   0.486950000000000 1

# Forces in Lattice coordinates:
force O  -0.137489322829844  -0.282213969503449   0.210974401738972 1
force O  -0.339956757362347  -0.546559943110072   0.151511582120202 1
force O   0.921253483785480  -0.210922646653819  -0.417824778702717 1
force O   0.618768681245019   0.078557701108527  -0.517575758394277 1
force O  -0.339951776939416  -0.411144712883476   0.711495311406302 1
force O   0.801650446751876  -0.916036322475606  -0.110181370082123 1
force O  -0.402192653129140   0.507228031059990  -0.748644446533516 1
force O   1.595528207290431  -0.145160893848547  -0.356574213261905 1
force O  -0.300464190513992   0.319753339289512  -0.038174194879721 1
force O   0.215217319486009   0.106013248772254  -0.887193465806795 1
force O  -0.769934916417584   2.473653067043746  -0.732332345378451 1
force O   0.093230070160652   0.340613538871937  -0.088109417451478 1
force O   0.039022622223222   0.074137968320734   0.563627973499595 1
force O  -0.563474304417627   0.905005923784211  -0.648756246512148 1
force O  -0.122128200158901  -0.850289133851192   0.928123478172453 1
force O   0.161852502793022  -0.262781934577876  -0.519253806002944 1
force O  -0.774147860567560   0.562666996773113  -0.019756922822016 1
force O  -0.722741223430345   0.886084020147504  -0.127397594861060 1
force O  -0.846172736849952  -0.158809517405183   0.873925541906362 1
force O  -0.027849945624209  -0.318726473185718   0.953722351999187 1
force O   0.868201691352662  -0.056558572440885  -0.377573361676048 1
force O   0.601726290452850  -0.411530233031681  -0.347760224394535 1
force O   0.352737850649913   0.759390176818584   0.008056028242077 1
force Sc  -1.498999789012521   1.219807089859136   0.819485917171511 1
force Sc  -1.745053289531644   1.066405023961685  -0.368166748107906 1
force Sc  -2.308070557434287  -0.064807895443344   0.973194879427081 1
force Sc   1.048394882265013  -0.687574265314166   0.883692563523423 1
force Sc   0.979081745515355   0.421823298558443  -0.227987726858668 1
force Sc   1.528225567380353  -2.702496177196593  -0.519953910457128 1
force Sc  -0.211632866152670   0.377228468986356   0.738849555236371 1
force Sc  -0.490740034418953   0.167176293811740  -1.293628108471349 1
force Sc  -0.712122337487661  -0.688684726580818   0.460149098728936 1
force Sc   0.679980626098749  -0.455850515449886   0.450671946697398 1
force Sc   0.198947494604658  -0.132034796441198   0.654830730407069 1
force Sc   0.964511623157260  -0.918403054468425  -1.016788262100837 1
force Sc   0.618822100826937  -0.698953701603708  -0.068245421657306 1
force Sc  -0.052023756497019   0.195170475523955   0.051448757568426 1
force Sc   0.036585543535867   0.304300718769754   0.054777148555657 1
force Sc   0.041613773687567   0.155379567924384  -0.057399134401889 1

# Energy components:
   Eewald =     -833.0128844251862574
       EH =      256.4296020212585177
     Eloc =     -759.1293078611007559
      Enl =      128.4428643101834666
      Exc =     -189.6706072960547260
 Exc_core =        6.3981045942378589
       KE =      270.1202662623716151
-------------------------------------
     Etot =    -1120.4219623942904036
       TS =        0.0597102603790848
-------------------------------------
        F =    -1120.4816726546694099

IonicMinimize: Iter:   0  F: -1120.481672654669410  |grad|_K:  4.669e-02  t[s]:   1555.71

#--- Lowdin population analysis ---
# oxidation-state O -0.325 -0.320 -0.341 -0.374 -0.381 -0.353 -0.310 -0.309 -0.348 -0.356 -0.238 -0.312 -0.375 -0.370 -0.348 -0.373 -0.368 -0.393 -0.362 -0.379 -0.382 -0.398 -0.375
# oxidation-state Sc +0.527 +0.509 +0.493 +0.562 +0.568 +0.368 +0.579 +0.552 +0.583 +0.599 +0.506 +0.510 +0.509 +0.564 +0.525 +0.493


-------- Electronic minimization -----------
Will mix electronic density at each iteration.
	FillingsUpdate:  mu: +0.372214096  nElectrons: 314.000000
	FillingsUpdate:  mu: +0.377353307  nElectrons: 314.000000
SCF: Cycle:  0   F: -1120.058270945072991   dF: +2.056e-02   |Residual|: 5.748e-01   |deigs|: 2.076e-03  t[s]:   1696.02
	FillingsUpdate:  mu: +0.378216662  nElectrons: 314.000000
SCF: Cycle:  1   F: -1120.553394885661874   dF: -4.951e-01   |Residual|: 1.997e-01   |deigs|: 7.370e-03  t[s]:   1796.85
	FillingsUpdate:  mu: +0.375709262  nElectrons: 314.000000
SCF: Cycle:  2   F: -1120.579681665066119   dF: -2.629e-02   |Residual|: 1.082e-01   |deigs|: 2.367e-03  t[s]:   1895.74
	FillingsUpdate:  mu: +0.375373556  nElectrons: 314.000000
SCF: Cycle:  3   F: -1120.601704493613397   dF: -2.202e-02   |Residual|: 4.773e-02   |deigs|: 1.339e-03  t[s]:   1988.60
	FillingsUpdate:  mu: +0.374917813  nElectrons: 314.000000
SCF: Cycle:  4   F: -1120.602974009365880   dF: -1.270e-03   |Residual|: 1.747e-02   |deigs|: 5.039e-04  t[s]:   2081.55
	FillingsUpdate:  mu: +0.374742758  nElectrons: 314.000000
SCF: Cycle:  5   F: -1120.603365315388146   dF: -3.913e-04   |Residual|: 6.605e-03   |deigs|: 2.522e-04  t[s]:   2143.25
	FillingsUpdate:  mu: +0.374678336  nElectrons: 314.000000
SCF: Cycle:  6   F: -1120.603421080104226   dF: -5.576e-05   |Residual|: 3.006e-03   |deigs|: 6.936e-05  t[s]:   2204.14
	FillingsUpdate:  mu: +0.374668844  nElectrons: 314.000000
SCF: Cycle:  7   F: -1120.603429507035798   dF: -8.427e-06   |Residual|: 1.333e-03   |deigs|: 3.076e-05  t[s]:   2266.16
	FillingsUpdate:  mu: +0.374668647  nElectrons: 314.000000
SCF: Cycle:  8   F: -1120.603431055531019   dF: -1.548e-06   |Residual|: 6.160e-04   |deigs|: 1.118e-05  t[s]:   2327.74
	FillingsUpdate:  mu: +0.374667964  nElectrons: 314.000000
SCF: Cycle:  9   F: -1120.603431424859082   dF: -3.693e-07   |Residual|: 2.206e-04   |deigs|: 6.265e-06  t[s]:   2389.56
	FillingsUpdate:  mu: +0.374667368  nElectrons: 314.000000
SCF: Cycle: 10   F: -1120.603431479433311   dF: -5.457e-08   |Residual|: 9.740e-05   |deigs|: 2.474e-06  t[s]:   2451.27
	FillingsUpdate:  mu: +0.374667511  nElectrons: 314.000000
SCF: Cycle: 11   F: -1120.603431489694003   dF: -1.026e-08   |Residual|: 4.440e-05   |deigs|: 1.153e-06  t[s]:   2512.33
	FillingsUpdate:  mu: +0.374667278  nElectrons: 314.000000
SCF: Cycle: 12   F: -1120.603431491083711   dF: -1.390e-09   |Residual|: 1.679e-05   |deigs|: 4.241e-07  t[s]:   2572.90
	FillingsUpdate:  mu: +0.374667302  nElectrons: 314.000000
SCF: Cycle: 13   F: -1120.603431491289484   dF: -2.058e-10   |Residual|: 6.506e-06   |deigs|: 1.677e-07  t[s]:   2635.04
SCF: Converged (|Delta E|<1.000000e-08 for 2 iters).

Setting wave functions to eigenvectors of Hamiltonian

# Ionic positions in lattice coordinates:
ion O   0.752306405173366   0.247477516398353   0.757053412398268 1
ion O  -0.002445647436779  -0.005018115183640   0.733817622013082 1
ion O   0.501485506558795   0.250473329198511  -0.010649500931882 1
ion O   0.498747554111887   0.508770586477716   0.739429134497695 1
ion O   0.490185991863438   0.748488302761947   0.502356097099946 1
ion O   0.746572682320713   0.761935053387208   0.242483786484895 1
ion O   0.003388454672422   0.745273715849356   0.011834565219023 1
ion O  -0.016493054608567   0.498814536371528   0.262514880149864 1
ion O   0.246607039333940   0.741404949343924   0.742633728524001 1
ion O   0.751699563811945   0.008294391708062   0.008922462514294 1
ion O   0.256584629932803  -0.025090215575249   0.514481529821447 1
ion O   0.745213809871527   0.507307896331179   0.503039612168581 1
ion O   0.013012472453158   0.261165553046784  -0.006024149047839 1
ion O   0.753983255857307  -0.004006033808182   0.497874324199887 1
ion O   0.752618301057123   0.255897099867219   0.255316598500723 1
ion O   0.492206864898165   0.242694676788136   0.490956888452215 1
ion O   0.499359570987487   0.488061167439539   0.243870448539106 1
ion O   0.253461363154062   0.247224313463960   0.740771718198676 1
ion O   0.498152146364823   0.746321596996359  -0.013086569219720 1
ion O   0.245266023570261   0.016706116235734  -0.007819541879865 1
ion O   0.244639359745027   0.743100851307386   0.229545451305941 1
ion O  -0.002938328338539   0.485199330739933   0.746595831763185 1
ion O  -0.001362573539472  -0.002717626886372   0.241756209958277 1
ion Sc   0.761460158077840   0.720541699020770   0.973886362566795 1
ion Sc   0.540037938997465   0.248379588984626   0.777760197713734 1
ion Sc   0.784922871366462   0.539415253962036   0.247315059676210 1
ion Sc   0.960807457980293   0.750962185743965   0.711988418157495 1
ion Sc   0.718054371612651   0.980271627227469   0.729818994800019 1
ion Sc   0.247378947821733   0.779360930790172   0.537001594197406 1
ion Sc   0.733877691211098   0.234738184906444   0.482685108983617 1
ion Sc  -0.000557764072705   0.255627151905526   0.283158095097800 1
ion Sc   0.259080537020385   0.017405951408812   0.236633362793246 1
ion Sc   0.481618766674888   0.738051062329259   0.231602026017919 1
ion Sc   0.244592304300787   0.496431747155169   0.734571756522274 1
ion Sc   0.248960656654065   0.276223157039297   0.014644441381752 1
ion Sc  -0.002548582890594   0.508868561044095  -0.001667575303722 1
ion Sc   0.498965585403242  -0.009670615105154  -0.004277900263937 1
ion Sc  -0.003896346125036  -0.004111512663905   0.490531200304112 1
ion Sc   0.503364014152531   0.486416033992030   0.487074316625483 1

# Forces in Lattice coordinates:
force O  -0.268347802693132  -0.231381796648943   0.279064471745903 1
force O  -0.346452292143577  -0.527870430015713   0.157695579040187 1
force O   0.876156798240795  -0.191596843330474  -0.368483513781478 1
force O   0.605864572857807   0.077359619172284  -0.474186463603464 1
force O  -0.326071279639141  -0.380439547953608   0.738293517314852 1
force O   0.796909844544971  -0.896313324376526  -0.109010053119686 1
force O  -0.434541097955162   0.440581787215446  -0.698692745488707 1
force O   1.039121336949108   0.115877821440019  -0.207955065543654 1
force O  -0.273537544642364   0.374598958043382  -0.135844278307387 1
force O   0.195826653088313   0.075748010423053  -0.862193530685570 1
force O  -0.471660084075154   1.243403257972860  -0.174291094345039 1
force O   0.105487508749751   0.384260482755886  -0.101759551288269 1
force O   0.105611734734671   0.033266895175137   0.527929883904706 1
force O  -0.517037680957250   0.845451033490225  -0.646217250764578 1
force O  -0.114904662213303  -0.811475897781782   0.865720190335132 1
force O   0.164827083576541  -0.205400627726682  -0.543060995311778 1
force O  -0.731152551399513   0.532057228831557  -0.050049457957726 1
force O  -0.738947531247800   0.877937162677906  -0.072855385549641 1
force O  -0.817491493337641  -0.143476835013610   0.844812609588613 1
force O  -0.003957470025940  -0.292287929027901   0.877258724511893 1
force O   0.813244040362596  -0.025286324389918  -0.407441471955032 1
force O   0.582819935616041  -0.412338548360224  -0.317607382574125 1
force O   0.311855043558491   0.726253037535262   0.006163118906022 1
force Sc  -1.385120622212455   1.165629997263516   0.784069250568039 1
force Sc  -1.572986204108311   1.009697635715927  -0.474040443195408 1
force Sc  -1.763069744471475  -0.366704857628180   0.878676907468506 1
force Sc   1.013325061318520  -0.717150878018896   0.881458126765231 1
force Sc   0.938437107998008   0.426721459587113  -0.260428513715998 1
force Sc   1.222331191193986  -1.530779712491233  -1.021167833109459 1
force Sc  -0.217939590279642   0.360575035529260   0.721007558471989 1
force Sc  -0.458684237919109   0.200105196920208  -1.257350211147800 1
force Sc  -0.682039775843994  -0.698587257619888   0.523103680890768 1
force Sc   0.629539454746563  -0.423259762838114   0.448896263655151 1
force Sc   0.205626113066318  -0.152927026394990   0.605191463549689 1
force Sc   0.895949787351318  -0.866975139505693  -0.969479951183510 1
force Sc   0.544367373116169  -0.595493260271677  -0.055753157366520 1
force Sc  -0.040283352152627   0.189269584839026   0.060921371588205 1
force Sc   0.075634322449949   0.277666722836041   0.046240831723010 1
force Sc   0.041570300207929   0.113908151258993  -0.039294266375530 1

# Energy components:
   Eewald =     -833.5152839976002497
       EH =      255.9303809420212872
     Eloc =     -758.0223617639243230
      Enl =      128.3392603639447884
      Exc =     -189.6401802831428256
 Exc_core =        6.3981021240251996
       KE =      269.9617156759087493
-------------------------------------
     Etot =    -1120.5483669387672307
       TS =        0.0550645525223567
-------------------------------------
        F =    -1120.6034314912894843

IonicMinimize: Iter:   1  F: -1120.603431491289484  |grad|_K:  4.066e-02  alpha:  5.174e-01  linmin: -9.765e-01  t[s]:   2648.37

#--- Lowdin population analysis ---
# oxidation-state O -0.334 -0.327 -0.347 -0.379 -0.387 -0.355 -0.321 -0.336 -0.349 -0.361 -0.284 -0.318 -0.381 -0.376 -0.352 -0.376 -0.373 -0.397 -0.369 -0.384 -0.384 -0.400 -0.378
# oxidation-state Sc +0.536 +0.520 +0.520 +0.570 +0.577 +0.410 +0.579 +0.551 +0.585 +0.601 +0.509 +0.522 +0.522 +0.579 +0.537 +0.502


-------- Electronic minimization -----------
Will mix electronic density at each iteration.
	FillingsUpdate:  mu: +0.374667302  nElectrons: 314.000000
	FillingsUpdate:  mu: +0.384176142  nElectrons: 314.000000
SCF: Cycle:  0   F: -1120.099370293590482   dF: -1.866e-01   |Residual|: 7.197e-01   |deigs|: 3.015e-03  t[s]:   2786.35
	FillingsUpdate:  mu: +0.382941991  nElectrons: 314.000000
SCF: Cycle:  1   F: -1120.685595163783546   dF: -5.862e-01   |Residual|: 2.286e-01   |deigs|: 6.779e-03  t[s]:   2884.27
	FillingsUpdate:  mu: +0.380626607  nElectrons: 314.000000
SCF: Cycle:  2   F: -1120.723707953480471   dF: -3.811e-02   |Residual|: 1.145e-01   |deigs|: 2.421e-03  t[s]:   2983.55
	FillingsUpdate:  mu: +0.379947357  nElectrons: 314.000000
SCF: Cycle:  3   F: -1120.743971619923968   dF: -2.026e-02   |Residual|: 5.477e-02   |deigs|: 1.546e-03  t[s]:   3076.46
	FillingsUpdate:  mu: +0.379310245  nElectrons: 314.000000
SCF: Cycle:  4   F: -1120.745564607694178   dF: -1.593e-03   |Residual|: 1.346e-02   |deigs|: 5.167e-04  t[s]:   3167.96
	FillingsUpdate:  mu: +0.379131849  nElectrons: 314.000000
SCF: Cycle:  5   F: -1120.745754677937384   dF: -1.901e-04   |Residual|: 6.114e-03   |deigs|: 2.109e-04  t[s]:   3229.27
	FillingsUpdate:  mu: +0.379075228  nElectrons: 314.000000
SCF: Cycle:  6   F: -1120.745797148976180   dF: -4.247e-05   |Residual|: 2.502e-03   |deigs|: 7.327e-05  t[s]:   3290.39
	FillingsUpdate:  mu: +0.379065628  nElectrons: 314.000000
SCF: Cycle:  7   F: -1120.745801955571551   dF: -4.807e-06   |Residual|: 9.948e-04   |deigs|: 2.517e-05  t[s]:   3351.54
	FillingsUpdate:  mu: +0.379063975  nElectrons: 314.000000
SCF: Cycle:  8   F: -1120.745802855378770   dF: -8.998e-07   |Residual|: 4.682e-04   |deigs|: 7.680e-06  t[s]:   3412.62
	FillingsUpdate:  mu: +0.379061900  nElectrons: 314.000000
SCF: Cycle:  9   F: -1120.745803091439484   dF: -2.361e-07   |Residual|: 1.469e-04   |deigs|: 4.283e-06  t[s]:   3474.36
	FillingsUpdate:  mu: +0.379061639  nElectrons: 314.000000
SCF: Cycle: 10   F: -1120.745803115232093   dF: -2.379e-08   |Residual|: 6.888e-05   |deigs|: 1.482e-06  t[s]:   3535.03
	FillingsUpdate:  mu: +0.379061561  nElectrons: 314.000000
SCF: Cycle: 11   F: -1120.745803119268430   dF: -4.036e-09   |Residual|: 3.543e-05   |deigs|: 6.476e-07  t[s]:   3595.89
	FillingsUpdate:  mu: +0.379061356  nElectrons: 314.000000
SCF: Cycle: 12   F: -1120.745803120364371   dF: -1.096e-09   |Residual|: 9.766e-06   |deigs|: 4.118e-07  t[s]:   3657.89
SCF: Converged (|Delta E|<1.000000e-08 for 2 iters).

Setting wave functions to eigenvectors of Hamiltonian
IonicMinimize: 	Wolfe criterion not satisfied: alpha: 0.126486  (E-E0)/|gdotd0|: -0.1209  gdotd/gdotd0: 0.910827 (taking cubic step)

-------- Electronic minimization -----------
Will mix electronic density at each iteration.
	FillingsUpdate:  mu: +0.379061356  nElectrons: 314.000000
	FillingsUpdate:  mu: +0.386176097  nElectrons: 314.000000
SCF: Cycle:  0   F: -1118.630247832475334   dF: -9.897e-01   |Residual|: 1.438e+00   |deigs|: 1.221e-02  t[s]:   3808.74
	FillingsUpdate:  mu: +0.391978894  nElectrons: 314.000000
SCF: Cycle:  1   F: -1120.741327796592941   dF: -2.111e+00   |Residual|: 4.395e-01   |deigs|: 1.467e-02  t[s]:   3906.48
	FillingsUpdate:  mu: +0.391664424  nElectrons: 314.000000
SCF: Cycle:  2   F: -1120.935231907543766   dF: -1.939e-01   |Residual|: 1.913e-01   |deigs|: 3.549e-03  t[s]:   4006.83
	FillingsUpdate:  mu: +0.390497840  nElectrons: 314.000000
SCF: Cycle:  3   F: -1120.982520979430774   dF: -4.729e-02   |Residual|: 1.024e-01   |deigs|: 1.452e-03  t[s]:   4104.92
	FillingsUpdate:  mu: +0.389414217  nElectrons: 314.000000
SCF: Cycle:  4   F: -1120.988716684635847   dF: -6.196e-03   |Residual|: 1.893e-02   |deigs|: 6.362e-04  t[s]:   4203.47
	FillingsUpdate:  mu: +0.389132010  nElectrons: 314.000000
SCF: Cycle:  5   F: -1120.989183320562915   dF: -4.666e-04   |Residual|: 9.290e-03   |deigs|: 2.492e-04  t[s]:   4265.03
	FillingsUpdate:  mu: +0.389058570  nElectrons: 314.000000
SCF: Cycle:  6   F: -1120.989258920477596   dF: -7.560e-05   |Residual|: 4.303e-03   |deigs|: 1.025e-04  t[s]:   4326.22
	FillingsUpdate:  mu: +0.389029468  nElectrons: 314.000000
SCF: Cycle:  7   F: -1120.989274758092961   dF: -1.584e-05   |Residual|: 1.623e-03   |deigs|: 4.607e-05  t[s]:   4388.17
	FillingsUpdate:  mu: +0.389033680  nElectrons: 314.000000
SCF: Cycle:  8   F: -1120.989277752353928   dF: -2.994e-06   |Residual|: 5.944e-04   |deigs|: 1.711e-05  t[s]:   4449.61
	FillingsUpdate:  mu: +0.389030727  nElectrons: 314.000000
SCF: Cycle:  9   F: -1120.989278070015189   dF: -3.177e-07   |Residual|: 2.391e-04   |deigs|: 7.470e-06  t[s]:   4510.22
	FillingsUpdate:  mu: +0.389030433  nElectrons: 314.000000
SCF: Cycle: 10   F: -1120.989278122001679   dF: -5.199e-08   |Residual|: 1.135e-04   |deigs|: 2.436e-06  t[s]:   4571.31
	FillingsUpdate:  mu: +0.389030206  nElectrons: 314.000000
SCF: Cycle: 11   F: -1120.989278130883122   dF: -8.881e-09   |Residual|: 3.284e-05   |deigs|: 1.471e-06  t[s]:   4633.28
	FillingsUpdate:  mu: +0.389030104  nElectrons: 314.000000
SCF: Cycle: 12   F: -1120.989278132091613   dF: -1.208e-09   |Residual|: 1.244e-05   |deigs|: 7.271e-07  t[s]:   4695.59
SCF: Converged (|Delta E|<1.000000e-08 for 2 iters).

Setting wave functions to eigenvectors of Hamiltonian

# Ionic positions in lattice coordinates:
ion O   0.748425493093952   0.244380110732961   0.757629102702368 1
ion O  -0.009957864851418  -0.013745935941612   0.729920618851379 1
ion O   0.509886665927629   0.251479841565129  -0.010812309440075 1
ion O   0.504578992848821   0.510884000633306   0.737755523458467 1
ion O   0.488341457870218   0.746306053557958   0.508104123910492 1
ion O   0.750782729648618   0.754195959253331   0.240280337720664 1
ion O  -0.004846391902526   0.743152462894506   0.001960894153933 1
ion O  -0.004411364217884   0.506687315305853   0.267766678379908 1
ion O   0.244449989576738   0.743928709015552   0.741096872617649 1
ion O   0.748770739773047   0.004481957041258  -0.001389159547224 1
ion O   0.257260444907344  -0.016624463521972   0.518013467654853 1
ion O   0.748872982186318   0.513035930322898   0.505153506742292 1
ion O   0.018657715220303   0.265988996076838   0.002325666838949 1
ion O   0.748159956165152  -0.000461830422582   0.491008310571325 1
ion O   0.751345724859065   0.249770507773343   0.260805394866515 1
ion O   0.489347269988036   0.237363047138589   0.482995743348383 1
ion O   0.492472860761772   0.489930126197151   0.241608472274989 1
ion O   0.248725453981435   0.253988866728502   0.740967130450211 1
ion O   0.491649605878641   0.744565183857518  -0.007954931458173 1
ion O   0.249355678128898   0.018756338572237   0.002237689816481 1
ion O   0.252801858662622   0.745558386513476   0.229115109213036 1
ion O   0.000130039269500   0.481255481375846   0.743413452633008 1
ion O   0.007928697503217   0.009537426058364   0.248989539452507 1
ion Sc   0.756031782765593   0.732737635526020   0.983427803768625 1
ion Sc   0.522029454318543   0.248047909900673   0.766755475450179 1
ion Sc   0.765516320833235   0.527491476966339   0.244826637034181 1
ion Sc   0.976067285405345   0.753954040247625   0.726406536807759 1
ion Sc   0.732245407693730   0.990960887228927   0.735523636335224 1
ion Sc   0.246785733852539   0.763463121476494   0.519922957223017 1
ion Sc   0.738325940408557   0.243263287843939   0.493765501203410 1
ion Sc  -0.014192097624145   0.246671650093508   0.263866767862134 1
ion Sc   0.248476683790904   0.006569886942458   0.234678624861534 1
ion Sc   0.490537155355066   0.739734336586904   0.239377881366461 1
ion Sc   0.250557818979344   0.499772974258186   0.743212190601178 1
ion Sc   0.248534200170290   0.263626777571492   0.001308862349796 1
ion Sc   0.000462275009438   0.504298449822906  -0.002667077396056 1
ion Sc   0.500247151294167  -0.006810215477470  -0.002284274285925 1
ion Sc  -0.000400304797160   0.000630213341110   0.493682269804911 1
ion Sc   0.504416457265054   0.487863096942439   0.487604971801638 1

# Forces in Lattice coordinates:
force O  -0.560609203285872  -0.049996569921868   0.425456063997211 1
force O  -0.298056965445174  -0.379487184106583   0.121691972144116 1
force O   0.640843891257970  -0.104353614558900  -0.230753071955883 1
force O   0.493299718251754   0.032650602252467  -0.235323092368131 1
force O  -0.161164707641460  -0.260390737761524   0.689907780006636 1
force O   0.712510616934247  -0.687711866315875  -0.096723258583816 1
force O  -0.490165626848512   0.256788292748356  -0.517809378396688 1
force O   0.074309712431474   0.396461258006763   0.035609724334883 1
force O  -0.133011832401810   0.522878029240244  -0.471523012805358 1
force O   0.113382333037654  -0.051052326180945  -0.689874522623148 1
force O  -0.186468118422390   0.121761214588221   0.268574953571316 1
force O   0.136948078622701   0.476243108519017  -0.140149605822068 1
force O   0.289230786655856  -0.102987665986320   0.365800647609165 1
force O  -0.277080677445698   0.567282026345652  -0.574761888173597 1
force O  -0.108218038807540  -0.632881407243004   0.587309961721418 1
force O   0.116898777281277  -0.068875071702195  -0.517898059044803 1
force O  -0.569665374536305   0.361381419693446  -0.141591449449638 1
force O  -0.637296966960229   0.630199538687061   0.105253216893890 1
force O  -0.623624348020633  -0.080957094195091   0.698859398744885 1
force O   0.068128120069189  -0.174699557811472   0.577212194000754 1
force O   0.534860386045383   0.087647136430549  -0.426008144392247 1
force O   0.464764697867783  -0.412578308325632  -0.132487668382785 1
force O   0.146182358104021   0.516439656649854   0.057412334269201 1
force Sc  -0.970078117757217   0.911110324883045   0.601368379226992 1
force Sc  -0.965231714129710   0.822059385135757  -0.718658592154579 1
force Sc  -0.758193544252731  -0.821218679200401   0.705030433154643 1
force Sc   0.903665761806549  -0.837153831874895   0.814927802008905 1
force Sc   0.718223641054378   0.372760805931137  -0.334192931506275 1
force Sc   0.753274154028129  -0.567598480478489  -0.970477305740808 1
force Sc  -0.196523943695348   0.296125092027276   0.568803384633428 1
force Sc  -0.276242028350379   0.328164543684627  -1.054611961999896 1
force Sc  -0.464820066812716  -0.654293575540995   0.583373986922609 1
force Sc   0.443583133467565  -0.293128222877937   0.424440064884215 1
force Sc   0.148717930848105   0.029074274395694   0.274118013542656 1
force Sc   0.613978162556529  -0.646362807251237  -0.669517187911300 1
force Sc   0.266801266570510  -0.254538466788461  -0.027503145056961 1
force Sc  -0.045063419894574   0.119887673528324   0.052595985783474 1
force Sc   0.056128210825750   0.200917321641631   0.005659043264993 1
force Sc   0.026222111218001   0.030900269549415  -0.014655249128715 1

# Energy components:
   Eewald =     -832.4242603127356688
       EH =      256.8030859117637306
     Eloc =     -759.9953824402321061
      Enl =      128.1389498930486752
      Exc =     -189.6910510883893721
 Exc_core =        6.3981002153649245
       KE =      269.8266725645368638
-------------------------------------
     Etot =    -1120.9438852566431706
       TS =        0.0453928754483325
-------------------------------------
        F =    -1120.9892781320916129

IonicMinimize: Iter:   2  F: -1120.989278132091613  |grad|_K:  3.028e-02  alpha:  3.795e-01  linmin: -9.646e-01  t[s]:   4709.20

#--- Lowdin population analysis ---
# oxidation-state O -0.361 -0.356 -0.370 -0.397 -0.406 -0.365 -0.361 -0.390 -0.376 -0.380 -0.347 -0.344 -0.401 -0.396 -0.372 -0.392 -0.389 -0.405 -0.388 -0.395 -0.398 -0.405 -0.389
# oxidation-state Sc +0.572 +0.562 +0.579 +0.601 +0.605 +0.474 +0.576 +0.544 +0.592 +0.601 +0.522 +0.565 +0.572 +0.630 +0.587 +0.534


-------- Electronic minimization -----------
Will mix electronic density at each iteration.
	FillingsUpdate:  mu: +0.389030104  nElectrons: 314.000000
	FillingsUpdate:  mu: +0.397981681  nElectrons: 314.000000
SCF: Cycle:  0   F: -1120.686414551901635   dF: -4.012e-01   |Residual|: 6.852e-01   |deigs|: 2.759e-03  t[s]:   4845.80
	FillingsUpdate:  mu: +0.396202548  nElectrons: 314.000000
SCF: Cycle:  1   F: -1121.059447720306252   dF: -3.730e-01   |Residual|: 2.030e-01   |deigs|: 3.837e-03  t[s]:   4942.82
	FillingsUpdate:  mu: +0.395254870  nElectrons: 314.000000
SCF: Cycle:  2   F: -1121.089559073366672   dF: -3.011e-02   |Residual|: 8.358e-02   |deigs|: 1.616e-03  t[s]:   5039.79
	FillingsUpdate:  mu: +0.394746127  nElectrons: 314.000000
SCF: Cycle:  3   F: -1121.095150847477271   dF: -5.592e-03   |Residual|: 4.586e-02   |deigs|: 9.818e-04  t[s]:   5131.82
	FillingsUpdate:  mu: +0.394439691  nElectrons: 314.000000
SCF: Cycle:  4   F: -1121.096131359304763   dF: -9.805e-04   |Residual|: 7.377e-03   |deigs|: 3.408e-04  t[s]:   5219.84
	FillingsUpdate:  mu: +0.394326748  nElectrons: 314.000000
SCF: Cycle:  5   F: -1121.096175459790857   dF: -4.410e-05   |Residual|: 3.364e-03   |deigs|: 8.655e-05  t[s]:   5280.65
	FillingsUpdate:  mu: +0.394317933  nElectrons: 314.000000
SCF: Cycle:  6   F: -1121.096184820660710   dF: -9.361e-06   |Residual|: 1.484e-03   |deigs|: 4.325e-05  t[s]:   5340.87
	FillingsUpdate:  mu: +0.394311030  nElectrons: 314.000000
SCF: Cycle:  7   F: -1121.096186482330722   dF: -1.662e-06   |Residual|: 5.021e-04   |deigs|: 1.260e-05  t[s]:   5401.83
	FillingsUpdate:  mu: +0.394309474  nElectrons: 314.000000
SCF: Cycle:  8   F: -1121.096186754005885   dF: -2.717e-07   |Residual|: 1.658e-04   |deigs|: 4.510e-06  t[s]:   5463.69
	FillingsUpdate:  mu: +0.394308759  nElectrons: 314.000000
SCF: Cycle:  9   F: -1121.096186785803866   dF: -3.180e-08   |Residual|: 7.506e-05   |deigs|: 1.662e-06  t[s]:   5525.27
	FillingsUpdate:  mu: +0.394308533  nElectrons: 314.000000
SCF: Cycle: 10   F: -1121.096186790530737   dF: -4.727e-09   |Residual|: 3.215e-05   |deigs|: 7.319e-07  t[s]:   5587.38
	FillingsUpdate:  mu: +0.394308470  nElectrons: 314.000000
SCF: Cycle: 11   F: -1121.096186791394757   dF: -8.640e-10   |Residual|: 8.422e-06   |deigs|: 5.488e-07  t[s]:   5647.24
SCF: Converged (|Delta E|<1.000000e-08 for 2 iters).

Setting wave functions to eigenvectors of Hamiltonian
IonicMinimize: 	Wolfe criterion not satisfied: alpha: 0.090811  (E-E0)/|gdotd0|: -0.0864957  gdotd/gdotd0: 0.903466 (taking cubic step)

-------- Electronic minimization -----------
Will mix electronic density at each iteration.
	FillingsUpdate:  mu: +0.394308470  nElectrons: 314.000000
	FillingsUpdate:  mu: +0.403138701  nElectrons: 314.000000
SCF: Cycle:  0   F: -1119.701762514893744   dF: -1.687e+00   |Residual|: 1.376e+00   |deigs|: 1.114e-02  t[s]:   5797.62
	FillingsUpdate:  mu: +0.404111624  nElectrons: 314.000000
SCF: Cycle:  1   F: -1121.120364198301559   dF: -1.419e+00   |Residual|: 4.084e-01   |deigs|: 1.150e-02  t[s]:   5896.59
	FillingsUpdate:  mu: +0.405191290  nElectrons: 314.000000
SCF: Cycle:  2   F: -1121.250995774407784   dF: -1.306e-01   |Residual|: 1.623e-01   |deigs|: 3.797e-03  t[s]:   5996.46
	FillingsUpdate:  mu: +0.404581108  nElectrons: 314.000000
SCF: Cycle:  3   F: -1121.270944476833620   dF: -1.995e-02   |Residual|: 8.823e-02   |deigs|: 1.703e-03  t[s]:   6093.82
	FillingsUpdate:  mu: +0.404374735  nElectrons: 314.000000
SCF: Cycle:  4   F: -1121.274781951228761   dF: -3.837e-03   |Residual|: 1.470e-02   |deigs|: 6.427e-04  t[s]:   6191.17
	FillingsUpdate:  mu: +0.404232946  nElectrons: 314.000000
SCF: Cycle:  5   F: -1121.275007119043266   dF: -2.252e-04   |Residual|: 6.467e-03   |deigs|: 1.500e-04  t[s]:   6251.98
	FillingsUpdate:  mu: +0.404201312  nElectrons: 314.000000
SCF: Cycle:  6   F: -1121.275044116219306   dF: -3.700e-05   |Residual|: 2.824e-03   |deigs|: 6.307e-05  t[s]:   6313.13
	FillingsUpdate:  mu: +0.404191080  nElectrons: 314.000000
SCF: Cycle:  7   F: -1121.275050763114905   dF: -6.647e-06   |Residual|: 1.082e-03   |deigs|: 2.307e-05  t[s]:   6373.34
	FillingsUpdate:  mu: +0.404195791  nElectrons: 314.000000
SCF: Cycle:  8   F: -1121.275052423552097   dF: -1.660e-06   |Residual|: 3.470e-04   |deigs|: 9.534e-06  t[s]:   6434.42
	FillingsUpdate:  mu: +0.404194612  nElectrons: 314.000000
SCF: Cycle:  9   F: -1121.275052545133349   dF: -1.216e-07   |Residual|: 1.395e-04   |deigs|: 3.464e-06  t[s]:   6496.64
	FillingsUpdate:  mu: +0.404194408  nElectrons: 314.000000
SCF: Cycle: 10   F: -1121.275052557637309   dF: -1.250e-08   |Residual|: 6.712e-05   |deigs|: 1.377e-06  t[s]:   6558.81
	FillingsUpdate:  mu: +0.404194312  nElectrons: 314.000000
SCF: Cycle: 11   F: -1121.275052561846451   dF: -4.209e-09   |Residual|: 1.675e-05   |deigs|: 1.031e-06  t[s]:   6620.88
	FillingsUpdate:  mu: +0.404194302  nElectrons: 314.000000
SCF: Cycle: 12   F: -1121.275052562229348   dF: -3.829e-10   |Residual|: 8.050e-06   |deigs|: 6.648e-07  t[s]:   6682.96
SCF: Converged (|Delta E|<1.000000e-08 for 2 iters).

Setting wave functions to eigenvectors of Hamiltonian

# Ionic positions in lattice coordinates:
ion O   0.741125641024536   0.242511891230943   0.760185559364627 1
ion O  -0.017696322916893  -0.022110880552069   0.725968767076815 1
ion O   0.518459757714850   0.253454675836259  -0.010030152723342 1
ion O   0.511978034801983   0.513982937015579   0.738812281068535 1
ion O   0.490048180905474   0.746896132138696   0.517429690170680 1
ion O   0.757020991412871   0.747608399650718   0.238959919744417 1
ion O  -0.016768820624406   0.738210429680947  -0.009934662132158 1
ion O   0.000145743668694   0.514591617135314   0.272493079425737 1
ion O   0.242576136247533   0.748278677588046   0.735247554720301 1
ion O   0.743694254389597  -0.002243615265059  -0.013716575025494 1
ion O   0.257420507148325  -0.011768619400038   0.522053593995050 1
ion O   0.754827827930383   0.522289226500363   0.508366921330673 1
ion O   0.026712327076195   0.269869442312819   0.010629019134466 1
ion O   0.743301545480050   0.001900393370913   0.483034452951910 1
ion O   0.748652940260535   0.242345846660391   0.264341490303748 1
ion O   0.485983333770842   0.232475434577786   0.473800961562854 1
ion O   0.483704241965094   0.489552119808052   0.236589467292534 1
ion O   0.243821722858071   0.260392493673171   0.743141412648755 1
ion O   0.486189719604694   0.744046294324032  -0.001335976095869 1
ion O   0.254445146814089   0.021614480407306   0.011659656947815 1
ion O   0.259079295788643   0.748191078455820   0.226704670003682 1
ion O   0.003727511909346   0.476649700816454   0.741838708287823 1
ion O   0.015462898691470   0.020495535381475   0.256061385320695 1
ion Sc   0.752404745162091   0.746132344961307   0.993957913356034 1
ion Sc   0.505754931975084   0.247794689741526   0.751734824783882 1
ion Sc   0.750832551496280   0.511534322946653   0.243506843537575 1
ion Sc   0.992577476604657   0.753703879354447   0.742058634997274 1
ion Sc   0.745411760682758   1.001056080239208   0.738907634410448 1
ion Sc   0.246468344165648   0.748956487406336   0.504951393108476 1
ion Sc   0.742598125466519   0.252095154047299   0.505009932325349 1
ion Sc  -0.025251611025070   0.241282979673069   0.245367502381369 1
ion Sc   0.239781929473624  -0.004225328874646   0.235564070197997 1
ion Sc   0.499913533262180   0.742516253878567   0.248795345692587 1
ion Sc   0.255886514398777   0.504617567162622   0.749276516312485 1
ion Sc   0.247714173819971   0.251507372116520  -0.010828447131627 1
ion Sc   0.002542426794093   0.502260245271542  -0.002970205932691 1
ion Sc   0.500738383804027  -0.004830863949278  -0.000855713652147 1
ion Sc   0.002143177571252   0.004646393961692   0.495850017242566 1
ion Sc   0.504940920426133   0.488408730715217   0.487772512996170 1

# Forces in Lattice coordinates:
force O  -0.447136922428395   0.070026513155828   0.344048368770473 1
force O  -0.122001723472280  -0.360347628703110   0.096970206604302 1
force O   0.455756729483211  -0.021135643372253  -0.302006723334439 1
force O   0.344003574015258  -0.031798038271758  -0.032313144176783 1
force O   0.046088298449701  -0.197836330435960   0.471241344491204 1
force O   0.555739024708515  -0.557750191534963   0.004943570999415 1
force O  -0.390436679195552   0.143601007939661  -0.339637225876784 1
force O  -0.139523262598946   0.266462385250790  -0.030460494418134 1
force O  -0.057302648231824   0.388972194207494  -0.349708083802267 1
force O   0.029033521562884  -0.086887294233362  -0.486058180801413 1
force O  -0.071425496293342  -0.254947131362961   0.296012986008036 1
force O   0.119040902112818   0.386818529416968  -0.123044988559306 1
force O   0.221311475203324  -0.078365464159059   0.217486208867180 1
force O  -0.140945156573723   0.406084941850069  -0.394144060369944 1
force O  -0.106456653748646  -0.457322812714143   0.367645992974370 1
force O   0.072119166415999   0.015759068177049  -0.407123779638647 1
force O  -0.413337621706802   0.168421363098646  -0.085001374400774 1
force O  -0.454165085468674   0.379938606289714   0.139003166393215 1
force O  -0.437682072405601   0.017489170919377   0.505580801907342 1
force O   0.119696561787530  -0.198993688581131   0.404415738270048 1
force O   0.294300649577267   0.083907474508609  -0.317224882660142 1
force O   0.321530750535944  -0.301966255103923   0.024447645315040 1
force O  -0.014874747556481   0.392346844969840   0.040079218289870 1
force Sc  -0.677607197060325   0.665392681718563   0.410327164911380 1
force Sc  -0.702383345717563   0.639691722051863  -0.558017446479546 1
force Sc  -0.481270777643410  -0.694467491050020   0.587190635882302 1
force Sc   0.657120115151088  -0.627050168224554   0.600733874419242 1
force Sc   0.501451630927660   0.232330017170737  -0.281019386359669 1
force Sc   0.449750415326007  -0.021046630411497  -0.758553956176737 1
force Sc  -0.135249722560308   0.217920331231358   0.326204400170541 1
force Sc  -0.069715131866976   0.302121225036931  -0.763301348516535 1
force Sc  -0.277186438985430  -0.516894658614730   0.480624782301518 1
force Sc   0.323248499180769  -0.210806582346506   0.308754835739188 1
force Sc   0.136946647515789   0.168615770274657   0.001444554970079 1
force Sc   0.405625866995797  -0.444154641320635  -0.385417997957012 1
force Sc   0.118379398312294  -0.122324574164311   0.013013827102816 1
force Sc  -0.071165205370252   0.105376713847032   0.028000994198432 1
force Sc   0.030344039704593   0.096299042905307  -0.021313729453123 1
force Sc   0.008220266815326   0.036530419947061  -0.033153402617568 1

# Energy components:
   Eewald =     -830.1431856732000369
       EH =      258.6221990976336542
     Eloc =     -764.2691221013704990
      Enl =      128.0632656796367428
      Exc =     -189.7946171319813686
 Exc_core =        6.3981001707503653
       KE =      269.8883816282827866
-------------------------------------
     Etot =    -1121.2349783302483957
       TS =        0.0400742319808621
-------------------------------------
        F =    -1121.2750525622293480

IonicMinimize: Iter:   3  F: -1121.275052562229348  |grad|_K:  2.133e-02  alpha:  2.724e-01  linmin: -9.693e-01  t[s]:   6696.47

#--- Lowdin population analysis ---
# oxidation-state O -0.379 -0.387 -0.392 -0.411 -0.415 -0.382 -0.389 -0.403 -0.394 -0.391 -0.383 -0.369 -0.413 -0.405 -0.386 -0.401 -0.398 -0.401 -0.397 -0.403 -0.408 -0.403 -0.394
# oxidation-state Sc +0.595 +0.591 +0.604 +0.624 +0.619 +0.502 +0.580 +0.533 +0.599 +0.600 +0.524 +0.585 +0.614 +0.665 +0.623 +0.560


-------- Electronic minimization -----------
Will mix electronic density at each iteration.
	FillingsUpdate:  mu: +0.404194302  nElectrons: 314.000000
	FillingsUpdate:  mu: +0.409399286  nElectrons: 314.000000
SCF: Cycle:  0   F: -1121.026126843555403   dF: -3.908e-01   |Residual|: 6.282e-01   |deigs|: 2.374e-03  t[s]:   6833.29
	FillingsUpdate:  mu: +0.408618341  nElectrons: 314.000000
SCF: Cycle:  1   F: -1121.316064705760937   dF: -2.899e-01   |Residual|: 1.882e-01   |deigs|: 3.860e-03  t[s]:   6933.23
	FillingsUpdate:  mu: +0.408778178  nElectrons: 314.000000
SCF: Cycle:  2   F: -1121.339136986407084   dF: -2.307e-02   |Residual|: 7.242e-02   |deigs|: 1.231e-03  t[s]:   7031.28
	FillingsUpdate:  mu: +0.408495489  nElectrons: 314.000000
SCF: Cycle:  3   F: -1121.342797999112918   dF: -3.661e-03   |Residual|: 3.916e-02   |deigs|: 6.236e-04  t[s]:   7121.84
	FillingsUpdate:  mu: +0.408433233  nElectrons: 314.000000
SCF: Cycle:  4   F: -1121.343486666359468   dF: -6.887e-04   |Residual|: 6.901e-03   |deigs|: 2.447e-04  t[s]:   7182.41
	FillingsUpdate:  mu: +0.408415039  nElectrons: 314.000000
SCF: Cycle:  5   F: -1121.343533936708809   dF: -4.727e-05   |Residual|: 3.110e-03   |deigs|: 7.813e-05  t[s]:   7242.76
	FillingsUpdate:  mu: +0.408396000  nElectrons: 314.000000
SCF: Cycle:  6   F: -1121.343542682748648   dF: -8.746e-06   |Residual|: 1.283e-03   |deigs|: 2.655e-05  t[s]:   7303.73
	FillingsUpdate:  mu: +0.408388942  nElectrons: 314.000000
SCF: Cycle:  7   F: -1121.343544284581867   dF: -1.602e-06   |Residual|: 5.701e-04   |deigs|: 1.411e-05  t[s]:   7364.35
	FillingsUpdate:  mu: +0.408389194  nElectrons: 314.000000
SCF: Cycle:  8   F: -1121.343544753484593   dF: -4.689e-07   |Residual|: 1.559e-04   |deigs|: 5.368e-06  t[s]:   7425.94
	FillingsUpdate:  mu: +0.408388568  nElectrons: 314.000000
SCF: Cycle:  9   F: -1121.343544785102495   dF: -3.162e-08   |Residual|: 6.277e-05   |deigs|: 1.437e-06  t[s]:   7488.22
	FillingsUpdate:  mu: +0.408388625  nElectrons: 314.000000
SCF: Cycle: 10   F: -1121.343544788911458   dF: -3.809e-09   |Residual|: 2.904e-05   |deigs|: 5.895e-07  t[s]:   7549.25
	FillingsUpdate:  mu: +0.408388666  nElectrons: 314.000000
SCF: Cycle: 11   F: -1121.343544789701582   dF: -7.901e-10   |Residual|: 7.978e-06   |deigs|: 4.539e-07  t[s]:   7611.46
SCF: Converged (|Delta E|<1.000000e-08 for 2 iters).

Setting wave functions to eigenvectors of Hamiltonian

# Ionic positions in lattice coordinates:
ion O   0.739741290361115   0.243452068646488   0.761893377938528 1
ion O  -0.019285146134399  -0.025454307400188   0.724872788784382 1
ion O   0.520450349396852   0.253670518511726  -0.011793799057034 1
ion O   0.514679956718096   0.514978591125272   0.740531165592075 1
ion O   0.492553427188117   0.747666329645210   0.520805728500767 1
ion O   0.759636478282234   0.745300992394187   0.239503574894946 1
ion O  -0.020846244729115   0.736314638769584  -0.013677724802283 1
ion O  -0.000526750512645   0.514583166208687   0.271382014678758 1
ion O   0.242588851881289   0.749903255002967   0.734133634500897 1
ion O   0.741121540264274  -0.005247172211441  -0.018161838673996 1
ion O   0.256690813355577  -0.011739530468547   0.522410082753996 1
ion O   0.756981678766123   0.525545548654077   0.509428191856824 1
ion O   0.028814470731181   0.270918423131784   0.012670662587788 1
ion O   0.742724897751471   0.003452773052843   0.481370433771260 1
ion O   0.746983149296774   0.239329715770709   0.264586164440391 1
ion O   0.484945757759633   0.231430250497775   0.470818623064704 1
ion O   0.480347915308035   0.488286315797093   0.234771912986942 1
ion O   0.242239555160332   0.261775114278910   0.744023393340419 1
ion O   0.485128458113280   0.745093795983550   0.001435494136833 1
ion O   0.256461326920428   0.021751990554914   0.014664965610113 1
ion O   0.259987815588371   0.748562561315612   0.225468897775062 1
ion O   0.005573840228738   0.476010072960317   0.742966852350789 1
ion O   0.016368172584563   0.023597139773521   0.257611207593378 1
ion Sc   0.751132316324109   0.750497002282755   0.997133564526502 1
ion Sc   0.500093386517554   0.248170296023241   0.747063928249368 1
ion Sc   0.745592616156151   0.506478617332476   0.243901179528288 1
ion Sc   0.997924904080588   0.753787686497098   0.747144342237673 1
ion Sc   0.748971879421401   1.003367430162264   0.739231551047308 1
ion Sc   0.247423608733924   0.746966555229440   0.501663388857820 1
ion Sc   0.743504466345454   0.254421935774825   0.507397344454516 1
ion Sc  -0.026555984631424   0.241191495261376   0.240729095548243 1
ion Sc   0.237753464677588  -0.007566139335189   0.236494137284366 1
ion Sc   0.503067106629469   0.743361475174278   0.251791301533546 1
ion Sc   0.257815727412699   0.507236992273186   0.749824725985732 1
ion Sc   0.247909773256207   0.248322134000341  -0.013450731611545 1
ion Sc   0.002887330638966   0.501858788915890  -0.002770229476538 1
ion Sc   0.500354577650402  -0.004233216143128  -0.000718448545150 1
ion Sc   0.002191741554827   0.004934553190134   0.495728325523426 1
ion Sc   0.504941480951761   0.488712141365962   0.487520720230909 1

# Forces in Lattice coordinates:
force O  -0.433679068030813   0.090444344830769   0.308365046159391 1
force O  -0.078041803275199  -0.318120914300373   0.072371775783475 1
force O   0.371481507301527  -0.021722484547051  -0.258660303069699 1
force O   0.299287915534766  -0.037697392463274  -0.009500733947203 1
force O   0.073039911278058  -0.165617114527310   0.388215082791144 1
force O   0.471989724246917  -0.502940045870980   0.036582216679480 1
force O  -0.377055195084824   0.120799863696616  -0.248078580659859 1
force O  -0.187714738086579   0.272125838496015  -0.034358057562189 1
force O  -0.012544204128467   0.350189572286819  -0.343540357405004 1
force O   0.019661344921188  -0.061494455220100  -0.437845195418613 1
force O  -0.067617346240454  -0.256493348648538   0.255985377345114 1
force O   0.101426236326702   0.336284500450688  -0.099761479637028 1
force O   0.230773764818897  -0.091390949014102   0.160728257700428 1
force O  -0.100904623051958   0.349551166566737  -0.339003584977231 1
force O  -0.088787604779538  -0.402003124027029   0.302097468620079 1
force O   0.051718345088576   0.026594630715476  -0.362610222137097 1
force O  -0.353846568380722   0.124062769195372  -0.069835788747160 1
force O  -0.404113219782122   0.342566416009490   0.108515245678300 1
force O  -0.376253174379155   0.018238200423217   0.459820146303150 1
force O   0.123545774243130  -0.192800864115588   0.362596850983913 1
force O   0.276478369805555   0.049246174106201  -0.258500364725915 1
force O   0.298488042178304  -0.259417733108514   0.024733675899278 1
force O  -0.027057078213123   0.336343758702224   0.036874239231088 1
force Sc  -0.570690464750601   0.583103032525552   0.341915567963649 1
force Sc  -0.565118632378188   0.575326505152007  -0.529668199915103 1
force Sc  -0.343211025972373  -0.660720477411158   0.524916283659438 1
force Sc   0.560274840290863  -0.560482766347388   0.523890776056835 1
force Sc   0.426884173401223   0.224946698829888  -0.240047264581846 1
force Sc   0.371926459667582  -0.008890514228063  -0.672818647636200 1
force Sc  -0.119721910120208   0.205752667555506   0.285849398564075 1
force Sc  -0.072562821563407   0.288980644634132  -0.666161781644852 1
force Sc  -0.259618876548570  -0.442627674842434   0.426427303542624 1
force Sc   0.269600176823029  -0.169577889507264   0.263986716711930 1
force Sc   0.129227877867738   0.151635146855621  -0.020743687785461 1
force Sc   0.328993118257760  -0.398726202232229  -0.321686435842415 1
force Sc   0.080778130968810  -0.108112408013993   0.020906730227278 1
force Sc  -0.060062539934320   0.103280977149574   0.021416659597268 1
force Sc   0.013606381011925   0.082708380615619  -0.012791285257297 1
force Sc  -0.001378114239951   0.026752424799390  -0.000038676710275 1

# Energy components:
   Eewald =     -829.5366986632890303
       EH =      259.0606269559440875
     Eloc =     -765.3536455897624364
      Enl =      128.0490459611760343
      Exc =     -189.8186226769264806
 Exc_core =        6.3981012915157027
       KE =      269.8959056980665423
-------------------------------------
     Etot =    -1121.3052870232754685
       TS =        0.0382577664260975
-------------------------------------
        F =    -1121.3435447897015820

IonicMinimize: Iter:   4  F: -1121.343544789701582  |grad|_K:  1.866e-02  alpha:  1.131e-01  linmin: -9.753e-01  t[s]:   7625.54

#--- Lowdin population analysis ---
# oxidation-state O -0.388 -0.393 -0.397 -0.415 -0.417 -0.387 -0.396 -0.408 -0.398 -0.393 -0.387 -0.376 -0.414 -0.405 -0.392 -0.402 -0.398 -0.401 -0.398 -0.405 -0.410 -0.404 -0.397
# oxidation-state Sc +0.602 +0.596 +0.610 +0.624 +0.622 +0.511 +0.583 +0.531 +0.602 +0.604 +0.525 +0.590 +0.625 +0.669 +0.632 +0.565


-------- Electronic minimization -----------
Will mix electronic density at each iteration.
	FillingsUpdate:  mu: +0.408388666  nElectrons: 314.000000
	FillingsUpdate:  mu: +0.411647348  nElectrons: 314.000000
SCF: Cycle:  0   F: -1121.118344536209179   dF: -5.056e-01   |Residual|: 6.454e-01   |deigs|: 2.604e-03  t[s]:   7764.83
	FillingsUpdate:  mu: +0.411508791  nElectrons: 314.000000
SCF: Cycle:  1   F: -1121.379445254482334   dF: -2.611e-01   |Residual|: 1.983e-01   |deigs|: 3.337e-03  t[s]:   7863.01
	FillingsUpdate:  mu: +0.412080056  nElectrons: 314.000000
SCF: Cycle:  2   F: -1121.400548684274781   dF: -2.110e-02   |Residual|: 7.465e-02   |deigs|: 1.181e-03  t[s]:   7962.44
	FillingsUpdate:  mu: +0.411954115  nElectrons: 314.000000
SCF: Cycle:  3   F: -1121.403904125462986   dF: -3.355e-03   |Residual|: 3.974e-02   |deigs|: 6.774e-04  t[s]:   8053.35
	FillingsUpdate:  mu: +0.412054907  nElectrons: 314.000000
SCF: Cycle:  4   F: -1121.404498485750992   dF: -5.944e-04   |Residual|: 6.753e-03   |deigs|: 2.573e-04  t[s]:   8113.59
	FillingsUpdate:  mu: +0.412065353  nElectrons: 314.000000
SCF: Cycle:  5   F: -1121.404540973805979   dF: -4.249e-05   |Residual|: 2.858e-03   |deigs|: 5.553e-05  t[s]:   8174.11
	FillingsUpdate:  mu: +0.412060899  nElectrons: 314.000000
SCF: Cycle:  6   F: -1121.404548648868513   dF: -7.675e-06   |Residual|: 1.219e-03   |deigs|: 2.451e-05  t[s]:   8235.33
	FillingsUpdate:  mu: +0.412057653  nElectrons: 314.000000
SCF: Cycle:  7   F: -1121.404550189086649   dF: -1.540e-06   |Residual|: 5.516e-04   |deigs|: 1.139e-05  t[s]:   8296.70
	FillingsUpdate:  mu: +0.412060281  nElectrons: 314.000000
SCF: Cycle:  8   F: -1121.404550674551956   dF: -4.855e-07   |Residual|: 1.401e-04   |deigs|: 5.980e-06  t[s]:   8359.61
	FillingsUpdate:  mu: +0.412060316  nElectrons: 314.000000
SCF: Cycle:  9   F: -1121.404550699604897   dF: -2.505e-08   |Residual|: 6.059e-05   |deigs|: 1.233e-06  t[s]:   8421.21
	FillingsUpdate:  mu: +0.412060536  nElectrons: 314.000000
SCF: Cycle: 10   F: -1121.404550703971154   dF: -4.366e-09   |Residual|: 2.767e-05   |deigs|: 6.339e-07  t[s]:   8483.73
	FillingsUpdate:  mu: +0.412060559  nElectrons: 314.000000
SCF: Cycle: 11   F: -1121.404550704745816   dF: -7.747e-10   |Residual|: 7.295e-06   |deigs|: 4.442e-07  t[s]:   8544.14
SCF: Converged (|Delta E|<1.000000e-08 for 2 iters).

Setting wave functions to eigenvectors of Hamiltonian

# Ionic positions in lattice coordinates:
ion O   0.737320437978859   0.244827893997561   0.763481109702563 1
ion O  -0.019892212177721  -0.028652864441668   0.723738743330936 1
ion O   0.521216710591745   0.253103229361872  -0.014107774306411 1
ion O   0.517489662219674   0.515858987421166   0.742674886445844 1
ion O   0.496004817676499   0.748790824112895   0.523778500337909 1
ion O   0.761884171365358   0.742520569956673   0.240850993076787 1
ion O  -0.025448250921904   0.734730662956132  -0.015938861901566 1
ion O  -0.002711460183182   0.514764859150245   0.269337170249940 1
ion O   0.243763387349213   0.751937876378485   0.732574267590506 1
ion O   0.738436030312183  -0.007807172902585  -0.023028018095862 1
ion O   0.254865001222805  -0.012222502646658   0.521529580369395 1
ion O   0.759022191032736   0.528639446282199   0.510716979030055 1
ion O   0.031392357181027   0.271130793333428   0.013702338402775 1
ion O   0.743141425951626   0.005567777356786   0.480401097816201 1
ion O   0.745071689779065   0.235823944592799   0.264126707062702 1
ion O   0.483453700496503   0.230426608145079   0.467509995936979 1
ion O   0.476927078684702   0.486337916654148   0.232945467919469 1
ion O   0.240180351045275   0.263265841224614   0.744155051637867 1
ion O   0.484763543161194   0.746780533514357   0.005329471823061 1
ion O   0.259178061171126   0.021636891790792   0.018342542679522 1
ion O   0.262034647870097   0.748714512916176   0.225247794101650 1
ion O   0.008510642037672   0.476108374925136   0.744645817610990 1
ion O   0.016732294631424   0.026317876408773   0.258875272939115 1
ion Sc   0.750338952327297   0.755134812781058   1.000093032086731 1
ion Sc   0.495905547143420   0.249570503254766   0.742081975191027 1
ion Sc   0.742355822675839   0.501159694283766   0.245362552738021 1
ion Sc   1.002344758358423   0.753104735092849   0.751604053049162 1
ion Sc   0.752934985853636   1.006857629214687   0.740381593047193 1
ion Sc   0.247191920856612   0.743308832524179   0.497348944659323 1
ion Sc   0.744842981661413   0.257633611902467   0.510347040348632 1
ion Sc  -0.028211338159202   0.241696126590464   0.236129246543293 1
ion Sc   0.234929892289277  -0.010876975990616   0.237250754133076 1
ion Sc   0.505886406957085   0.744427631486463   0.254530712069613 1
ion Sc   0.259903919886401   0.509735548039430   0.749931556736207 1
ion Sc   0.246942481959457   0.244108801569832  -0.016497485126065 1
ion Sc   0.002389257313149   0.500770860022801  -0.002786222393964 1
ion Sc   0.500341305938299  -0.003014356941632  -0.000354586237203 1
ion Sc   0.001763995521829   0.005092133601714   0.495645430298284 1
ion Sc   0.505172830941087   0.489377532079367   0.488442269096246 1

# Forces in Lattice coordinates:
force O  -0.344123089673571   0.093593173499519   0.251950110344113 1
force O  -0.051625550573027  -0.293147541367538   0.075911022626129 1
force O   0.322873293628433  -0.022091124474335  -0.248497401126463 1
force O   0.257455577415821  -0.029339277093683   0.006432068177339 1
force O   0.070674020942770  -0.126145115751762   0.338081812361539 1
force O   0.419780643055336  -0.446726149571827   0.036579473789448 1
force O  -0.303657639169294   0.061099429513599  -0.189190257231374 1
force O  -0.175637312525339   0.232587104078867  -0.063241132474078 1
force O   0.002055395612217   0.301275279207849  -0.302774731446876 1
force O   0.011884340475118  -0.027217714007970  -0.388438776246440 1
force O  -0.039451901631592  -0.286345870756206   0.228049890455337 1
force O   0.100698895538823   0.260112341506463  -0.057814928477101 1
force O   0.159574322761485  -0.054051913054042   0.122123000053416 1
force O  -0.085826877722627   0.330728656998430  -0.280400241050089 1
force O  -0.084590730299145  -0.334643973908113   0.269632075647811 1
force O   0.048965606006611   0.026900294922602  -0.311962876990149 1
force O  -0.312383199335188   0.080436387088016  -0.045151968913344 1
force O  -0.356924729027255   0.304638955947859   0.084687415112504 1
force O  -0.318235808825578   0.033403020069048   0.374459907047792 1
force O   0.106989638249880  -0.192220901829216   0.319623104387079 1
force O   0.198515069186210   0.032422558222918  -0.215935372634357 1
force O   0.235079708020885  -0.208333737010733   0.042036523566590 1
force O  -0.063977138027584   0.322361134622584   0.019850379454176 1
force Sc  -0.513388536335970   0.481645262655137   0.346293464281347 1
force Sc  -0.532967306577459   0.490304452517550  -0.422250926757594 1
force Sc  -0.324113990565456  -0.542829873909668   0.428455611040075 1
force Sc   0.487851518570616  -0.472599836853327   0.441087322431506 1
force Sc   0.371946962495891   0.181373901546303  -0.225923581519145 1
force Sc   0.340260121828479   0.058376884348154  -0.616673509821766 1
force Sc  -0.101217088590123   0.174736997490911   0.234169890547303 1
force Sc  -0.043046120133021   0.223966211800492  -0.551739053071222 1
force Sc  -0.228637498476674  -0.389024955240890   0.394096051113000 1
force Sc   0.265536673480066  -0.193170036754135   0.244928425593404 1
force Sc   0.137634062919377   0.135194415174102  -0.028839709609004 1
force Sc   0.340434454446386  -0.353344585211055  -0.290341640252515 1
force Sc   0.069586182186402  -0.071080196716578   0.021122396612397 1
force Sc  -0.065283966319887   0.099278944658845   0.006983073333202 1
force Sc   0.016239108096217   0.062501567962395  -0.020711258787401 1
force Sc  -0.018760767754762   0.055449528210736  -0.026518633356526 1

# Energy components:
   Eewald =     -829.0600374984595646
       EH =      259.3508022409222349
     Eloc =     -766.1447460277382788
      Enl =      128.0359207192650786
      Exc =     -189.8358651445359726
 Exc_core =        6.3981032653078529
       KE =      269.8873134034092800
-------------------------------------
     Etot =    -1121.3685090418293839
       TS =        0.0360416629164213
-------------------------------------
        F =    -1121.4045507047458159

IonicMinimize: Iter:   5  F: -1121.404550704745816  |grad|_K:  1.615e-02  alpha:  1.261e-01  linmin: -9.392e-01  t[s]:   8557.67

#--- Lowdin population analysis ---
# oxidation-state O -0.393 -0.399 -0.403 -0.417 -0.418 -0.395 -0.400 -0.409 -0.401 -0.396 -0.394 -0.381 -0.413 -0.407 -0.395 -0.404 -0.401 -0.402 -0.401 -0.407 -0.412 -0.404 -0.398
# oxidation-state Sc +0.607 +0.601 +0.613 +0.626 +0.625 +0.519 +0.589 +0.529 +0.605 +0.606 +0.525 +0.595 +0.638 +0.672 +0.637 +0.567


-------- Electronic minimization -----------
Will mix electronic density at each iteration.
	FillingsUpdate:  mu: +0.412060559  nElectrons: 314.000000
	FillingsUpdate:  mu: +0.415476548  nElectrons: 314.000000
SCF: Cycle:  0   F: -1121.167388921806833   dF: -5.163e-01   |Residual|: 6.476e-01   |deigs|: 2.647e-03  t[s]:   8694.27
	FillingsUpdate:  mu: +0.414900040  nElectrons: 314.000000
SCF: Cycle:  1   F: -1121.431518410946410   dF: -2.641e-01   |Residual|: 1.999e-01   |deigs|: 3.884e-03  t[s]:   8791.92
	FillingsUpdate:  mu: +0.415407988  nElectrons: 314.000000
SCF: Cycle:  2   F: -1121.452301286264174   dF: -2.078e-02   |Residual|: 7.471e-02   |deigs|: 1.274e-03  t[s]:   8889.61
	FillingsUpdate:  mu: +0.415272356  nElectrons: 314.000000
SCF: Cycle:  3   F: -1121.455187368401766   dF: -2.886e-03   |Residual|: 3.868e-02   |deigs|: 7.062e-04  t[s]:   8980.49
	FillingsUpdate:  mu: +0.415336838  nElectrons: 314.000000
SCF: Cycle:  4   F: -1121.455689608482771   dF: -5.022e-04   |Residual|: 6.949e-03   |deigs|: 2.613e-04  t[s]:   9041.08
	FillingsUpdate:  mu: +0.415373217  nElectrons: 314.000000
SCF: Cycle:  5   F: -1121.455722348533072   dF: -3.274e-05   |Residual|: 2.882e-03   |deigs|: 6.845e-05  t[s]:   9101.77
	FillingsUpdate:  mu: +0.415375431  nElectrons: 314.000000
SCF: Cycle:  6   F: -1121.455727669958833   dF: -5.321e-06   |Residual|: 1.148e-03   |deigs|: 2.783e-05  t[s]:   9162.66
	FillingsUpdate:  mu: +0.415374050  nElectrons: 314.000000
SCF: Cycle:  7   F: -1121.455728724956998   dF: -1.055e-06   |Residual|: 5.444e-04   |deigs|: 1.381e-05  t[s]:   9223.39
	FillingsUpdate:  mu: +0.415376670  nElectrons: 314.000000
SCF: Cycle:  8   F: -1121.455729064751722   dF: -3.398e-07   |Residual|: 1.301e-04   |deigs|: 6.148e-06  t[s]:   9285.66
	FillingsUpdate:  mu: +0.415377324  nElectrons: 314.000000
SCF: Cycle:  9   F: -1121.455729084444556   dF: -1.969e-08   |Residual|: 5.401e-05   |deigs|: 1.353e-06  t[s]:   9347.17
	FillingsUpdate:  mu: +0.415377685  nElectrons: 314.000000
SCF: Cycle: 10   F: -1121.455729087657346   dF: -3.213e-09   |Residual|: 2.575e-05   |deigs|: 6.525e-07  t[s]:   9408.56
	FillingsUpdate:  mu: +0.415377791  nElectrons: 314.000000
SCF: Cycle: 11   F: -1121.455729088397220   dF: -7.399e-10   |Residual|: 6.556e-06   |deigs|: 6.116e-07  t[s]:   9469.53
SCF: Converged (|Delta E|<1.000000e-08 for 2 iters).

Setting wave functions to eigenvectors of Hamiltonian

# Ionic positions in lattice coordinates:
ion O   0.736399488030040   0.247116626252442   0.765305537483314 1
ion O  -0.019910291665082  -0.031853809405135   0.723193960746442 1
ion O   0.521422673306454   0.251849610104500  -0.017407197846408 1
ion O   0.520537249578139   0.517170510647736   0.745338348785319 1
ion O   0.499961804151020   0.750840507481761   0.527271643811150 1
ion O   0.764381352225637   0.739662488790361   0.242302104305925 1
ion O  -0.029225650182429   0.732353621870882  -0.017398454942432 1
ion O  -0.005804870745156   0.513896629798728   0.265621083792085 1
ion O   0.245303014767162   0.753980006730815   0.731006790311220 1
ion O   0.736085389792886  -0.009289526070321  -0.027675563024705 1
ion O   0.252718024044100  -0.014138918729590   0.519876878550878 1
ion O   0.761517770186500   0.531096489641988   0.512892734388708 1
ion O   0.032215729643608   0.271190556256197   0.013598593239584 1
ion O   0.744506305507093   0.009270057971639   0.480708295501984 1
ion O   0.743433311912445   0.233101269905529   0.264309912941006 1
ion O   0.482303087765119   0.229680131876503   0.464562937160428 1
ion O   0.473065692039720   0.483495836799091   0.231142383475193 1
ion O   0.237795238005108   0.264767487531782   0.743796188937903 1
ion O   0.484548593630619   0.748751806509765   0.008557656694887 1
ion O   0.261332788403372   0.020536969471629   0.021652004698299 1
ion O   0.262204702311693   0.747646164409997   0.224292732105717 1
ion O   0.011087468110772   0.476831755247161   0.746919739843797 1
ion O   0.015805558268497   0.029278125667068   0.259414604830553 1
ion Sc   0.749251665384523   0.759295850287499   1.004383302449239 1
ion Sc   0.490423479359059   0.250382570972295   0.737748276874408 1
ion Sc   0.737751766352989   0.496165014480439   0.245509302347950 1
ion Sc   1.006813546602861   0.752808254973343   0.755734916369877 1
ion Sc   0.756277226511064   1.009388540314169   0.740509493024038 1
ion Sc   0.248429846795211   0.741369663757521   0.493447390754825 1
ion Sc   0.745943378222311   0.260438578038272   0.512729538344789 1
[...]
ion Sc   0.506650112952870   0.499222433942277   0.495284278182698 1

# Forces in Lattice coordinates:
force O  -0.004701125945724   0.001092178092206  -0.001388248337862 1
force O  -0.004127791459884   0.001366321384944   0.003932859232686 1
force O   0.005200408105520   0.001008223644686  -0.001078726950666 1
force O   0.000448292729061   0.002515557875703   0.000788651121121 1
force O  -0.003299669662168  -0.000066325781484   0.002665974433378 1
force O   0.003937590134319  -0.001232218138582  -0.001430517032267 1
force O  -0.000007596574678   0.007672120458075  -0.009230466569815 1
force O  -0.006266424585233  -0.000006040632571   0.008702668564562 1
force O  -0.001545021978251  -0.006025449801232   0.003503891979552 1
force O   0.005860280331531  -0.003151114904651  -0.001936380272441 1
force O   0.001456556040162  -0.014218214342085   0.011181662192132 1
force O   0.003290163979482  -0.000525587800931  -0.000201569346291 1
force O  -0.001317277505239   0.005819663616261  -0.000815267756768 1
force O  -0.000196079201914  -0.001433848510894  -0.001800129664164 1
force O  -0.003579222926686  -0.004387037401238   0.000823205634643 1
force O  -0.007118741336680   0.004485911876079   0.000054669468229 1
force O   0.001778717348518  -0.000588942584486  -0.000045936694061 1
force O   0.001236700920299  -0.002277387934944   0.002811157290640 1
force O   0.003313506721741   0.001609247724285  -0.001131373278237 1
force O   0.003569191925458   0.002110057145079  -0.003501686905535 1
force O  -0.001771843220334   0.004804106832972  -0.006982470805347 1
force O  -0.003830128452830  -0.005485305700600   0.002481720705247 1
force O   0.004177703301797   0.001669929886839   0.002534427070525 1
force Sc  -0.003666157879681   0.003555876112760   0.002453416791679 1
force Sc  -0.000038161826994   0.002336401936622  -0.004861019383554 1
force Sc   0.004894275186854  -0.002668080074052  -0.000930079114320 1
force Sc   0.004627467455035  -0.001629197999112  -0.004821746381015 1
force Sc  -0.000798589702725   0.004190118396236  -0.003117236905323 1
force Sc  -0.001701628807278   0.007452367619080  -0.003581331894349 1
force Sc  -0.004777703745867  -0.003653651410084   0.003911352559286 1
force Sc  -0.000640606868521   0.003097174171956  -0.005061153225649 1
force Sc   0.003189077756753  -0.001679369114527   0.001241234019799 1
force Sc   0.000325789120971  -0.000438391199181  -0.003802122702584 1
force Sc  -0.000990093502855  -0.001372461914517   0.007409163143147 1
force Sc  -0.002831950295744   0.003772772025286   0.002230595486568 1
force Sc  -0.001736077686276  -0.002328305439743   0.001339101944929 1
force Sc   0.004778873947957  -0.003598541939350  -0.003752984839376 1
force Sc   0.003337687157292  -0.001606973115884  -0.000912095272521 1
force Sc   0.000279971560422   0.000036840434976   0.002795116184819 1

# Energy components:
   Eewald =     -824.7974721780099117
       EH =      262.2837424527464805
     Eloc =     -773.2150237275292284
      Enl =      127.9697519388364810
      Exc =     -189.8229221425253854
 Exc_core =        6.3981140661441511
       KE =      269.6058742983818775
-------------------------------------
     Etot =    -1121.5779352919555549
       TS =        0.0270952066289926
-------------------------------------
        F =    -1121.6050304985844832

IonicMinimize: Iter:  14  F: -1121.605030498584483  |grad|_K:  2.339e-04  alpha:  1.000e+00  linmin: -2.648e-01  t[s]:  16588.20

#--- Lowdin population analysis ---
# oxidation-state O -0.416 -0.415 -0.414 -0.415 -0.415 -0.417 -0.416 -0.412 -0.415 -0.403 -0.405 -0.400 -0.411 -0.411 -0.410 -0.412 -0.410 -0.411 -0.404 -0.410 -0.414 -0.407 -0.410
# oxidation-state Sc +0.629 +0.625 +0.634 +0.631 +0.631 +0.533 +0.627 +0.542 +0.628 +0.630 +0.537 +0.625 +0.642 +0.639 +0.636 +0.554


-------- Electronic minimization -----------
Will mix electronic density at each iteration.
	FillingsUpdate:  mu: +0.424860229  nElectrons: 314.000000
	FillingsUpdate:  mu: +0.424959185  nElectrons: 314.000000
SCF: Cycle:  0   F: -1121.605047187827722   dF: -5.101e-06   |Residual|: 1.022e-03   |deigs|: 1.838e-07  t[s]:  16690.74
	FillingsUpdate:  mu: +0.424925939  nElectrons: 314.000000
SCF: Cycle:  1   F: -1121.605050033190992   dF: -2.845e-06   |Residual|: 4.796e-04   |deigs|: 1.380e-05  t[s]:  16751.78
	FillingsUpdate:  mu: +0.424917980  nElectrons: 314.000000
SCF: Cycle:  2   F: -1121.605050293027261   dF: -2.598e-07   |Residual|: 1.939e-04   |deigs|: 2.249e-06  t[s]:  16812.33
	FillingsUpdate:  mu: +0.424909303  nElectrons: 314.000000
SCF: Cycle:  3   F: -1121.605050406107466   dF: -1.131e-07   |Residual|: 7.788e-05   |deigs|: 1.821e-06  t[s]:  16873.84
	FillingsUpdate:  mu: +0.424906888  nElectrons: 314.000000
SCF: Cycle:  4   F: -1121.605050417225129   dF: -1.112e-08   |Residual|: 2.646e-05   |deigs|: 9.089e-07  t[s]:  16933.87
	FillingsUpdate:  mu: +0.424906674  nElectrons: 314.000000
SCF: Cycle:  5   F: -1121.605050418447263   dF: -1.222e-09   |Residual|: 1.374e-05   |deigs|: 2.242e-07  t[s]:  16994.00
	FillingsUpdate:  mu: +0.424906689  nElectrons: 314.000000
SCF: Cycle:  6   F: -1121.605050418771043   dF: -3.238e-10   |Residual|: 5.021e-06   |deigs|: 1.271e-07  t[s]:  17055.61
SCF: Converged (|Delta E|<1.000000e-08 for 2 iters).

Setting wave functions to eigenvectors of Hamiltonian

# Ionic positions in lattice coordinates:
ion O   0.725453226313339   0.261814894914793   0.769822018857498 1
ion O  -0.013485096402949  -0.048811373375924   0.720775540611378 1
ion O   0.508872641209839   0.235530129222136  -0.041047518656130 1
ion O   0.536641708288969   0.533817102194838   0.761351312367470 1
ion O   0.528915741546031   0.765770567546708   0.540516510478639 1
ion O   0.772940865024473   0.725807588081808   0.257683193009586 1
ion O  -0.049773825352394   0.724305341809865  -0.015174711967098 1
ion O  -0.029481532919529   0.508414003030865   0.240402967308377 1
ion O   0.260513993866533   0.766911021804613   0.720167383068941 1
ion O   0.722983816985351  -0.013373678502806  -0.052231893987419 1
ion O   0.235375116887224  -0.033109238581460   0.506163410693262 1
ion O   0.772839536037068   0.544381833836509   0.529909827151395 1
ion O   0.042400155342809   0.269920722096485   0.004653234499813 1
ion O   0.758989721223486   0.032213665643540   0.485238639559375 1
ion O   0.733204212802892   0.223367553153184   0.265955551613305 1
ion O   0.465337430425254   0.226208921224355   0.449194945775060 1
ion O   0.453601397827066   0.462645718485427   0.222078203493678 1
ion O   0.224501308469379   0.271758261387148   0.734765375297890 1
ion O   0.489484635019245   0.763886173937605   0.034340952784046 1
ion O   0.270647604719927   0.007250410156473   0.039508939795605 1
ion O   0.271435903586437   0.738474293426134   0.222392901297928 1
ion O   0.033216764684802   0.489090858833940   0.761748468703128 1
ion O   0.008062266037401   0.046210326465297   0.267942824854798 1
ion Sc   0.746833609322119   0.783763354387708   1.030445100308500 1
ion Sc   0.461727369883252   0.250650585218066   0.708672579411805 1
ion Sc   0.713287372411561   0.461817986657475   0.244023761762104 1
ion Sc   1.034789515406989   0.748499790733592   0.781991047902201 1
ion Sc   0.783510105945577   1.033964585549876   0.745216848190118 1
ion Sc   0.250046232883174   0.720665395527913   0.461182612451866 1
ion Sc   0.750453506288187   0.284088835795343   0.531998005922516 1
ion Sc  -0.042923985268172   0.243409049219103   0.204959411319275 1
ion Sc   0.212092736484185  -0.035402149799000   0.244740659991998 1
ion Sc   0.533632603763946   0.747407684302603   0.282041393996383 1
ion Sc   0.284631323179281   0.536690552457743   0.756334967532694 1
ion Sc   0.247584666380258   0.211617836177690  -0.040453685595988 1
ion Sc  -0.001481331117262   0.498664955628333  -0.002610707194884 1
ion Sc   0.497297929230652  -0.001668955256211  -0.005484515263154 1
ion Sc  -0.002493114928970   0.000767466784341   0.495838828990013 1
ion Sc   0.506703868512569   0.499267929823889   0.495345613664027 1

# Forces in Lattice coordinates:
force O  -0.004379605863794   0.000805683964967  -0.000517287189851 1
force O  -0.002719933192933   0.001061369429093   0.002969394284413 1
force O   0.003825602693442   0.001396181533840  -0.001812318452637 1
force O  -0.000043918779108   0.001338776492095   0.001026191309546 1
force O  -0.002772720089563   0.001136044681405   0.001096239485501 1
force O   0.003320967683985  -0.001677661042480  -0.000771256150017 1
force O   0.000434176932525   0.005065953790786  -0.006699700078239 1
force O  -0.004538777290026   0.001058733223615   0.005500408503851 1
force O  -0.000176236761845  -0.004836820139842   0.001317864166939 1
force O   0.004215785523980  -0.001748932794028  -0.002126297279797 1
force O   0.001728922212200  -0.011484717855192   0.008532744075479 1
force O   0.002069545280280  -0.000743577625435  -0.000712688344845 1
force O  -0.000766620955208   0.005331785702859  -0.001521349179448 1
force O  -0.000363972903048  -0.001490107460797  -0.001809143006373 1
force O  -0.002715692863903  -0.003655084187718   0.000803334498966 1
force O  -0.005472571213455   0.003479738502073   0.000214670311294 1
force O   0.000837591514109   0.000385512367238  -0.000288489900138 1
force O   0.000805888168277  -0.001735553432379   0.002836771201432 1
force O   0.001566617452158   0.001157478268738   0.000354703847779 1
force O   0.003305469138453   0.001449837367161  -0.002462907569129 1
force O  -0.000902923277539   0.002444444865530  -0.004588390247591 1
force O  -0.002071308510401  -0.005028814853016   0.002278247630603 1
force O   0.003345526621145   0.001665252445928   0.002112166785412 1
force Sc   0.000706896084004   0.002603126246795   0.000303909564304 1
force Sc  -0.001175345831783   0.002586004839086  -0.002259698151384 1
force Sc   0.004514613018245  -0.004369444185469   0.000563130984598 1
force Sc   0.001663359056526  -0.001125383030869  -0.001810308999451 1
force Sc   0.000205357657547   0.001822691582190  -0.002422555746110 1
force Sc  -0.000488080056917   0.004880931960461  -0.003133961239496 1
force Sc  -0.002936209543157  -0.001931588769051   0.000959260874927 1
force Sc  -0.000670083409176   0.000630528572816  -0.001582981756279 1
force Sc   0.000927505858570  -0.000235411501590  -0.000842101465981 1
force Sc   0.000547415995923  -0.000218390629605  -0.001336490971773 1
force Sc  -0.000505075595327  -0.002509865727937   0.005296653708115 1
force Sc  -0.001001615506094   0.001140972971774   0.001368038559518 1
force Sc  -0.003711718004676   0.001566082036530   0.000055727611539 1
force Sc   0.003434790341741  -0.000249965659261  -0.003612130172088 1
force Sc   0.000901015358812  -0.000933954098785   0.000215281554646 1
force Sc  -0.000219254973866   0.001195867838844   0.003021313890446 1

# Energy components:
   Eewald =     -824.7984975244485213
       EH =      262.2834325656311307
     Eloc =     -773.2142955430322218
      Enl =      127.9700118677487808
      Exc =     -189.8231174844896145
 Exc_core =        6.3981140017271079
       KE =      269.6064664378556586
-------------------------------------
     Etot =    -1121.5778856790075224
       TS =        0.0271647397634717
-------------------------------------
        F =    -1121.6050504187710430

IonicMinimize: Iter:  15  F: -1121.605050418771043  |grad|_K:  1.726e-04  alpha:  1.000e+00  linmin: -8.750e-01  t[s]:  17069.11

#--- Lowdin population analysis ---
# oxidation-state O -0.415 -0.415 -0.415 -0.415 -0.415 -0.417 -0.416 -0.412 -0.415 -0.403 -0.404 -0.400 -0.411 -0.411 -0.410 -0.412 -0.410 -0.411 -0.404 -0.411 -0.414 -0.407 -0.410
# oxidation-state Sc +0.629 +0.624 +0.633 +0.631 +0.631 +0.533 +0.627 +0.542 +0.628 +0.631 +0.537 +0.625 +0.642 +0.639 +0.636 +0.554


-------- Electronic minimization -----------
Will mix electronic density at each iteration.
	FillingsUpdate:  mu: +0.424906689  nElectrons: 314.000000
	FillingsUpdate:  mu: +0.425186995  nElectrons: 314.000000
SCF: Cycle:  0   F: -1121.605065424686472   dF: -5.825e-05   |Residual|: 2.431e-03   |deigs|: 1.390e-06  t[s]:  17171.00
	FillingsUpdate:  mu: +0.425089145  nElectrons: 314.000000
SCF: Cycle:  1   F: -1121.605079514698900   dF: -1.409e-05   |Residual|: 1.049e-03   |deigs|: 4.069e-05  t[s]:  17231.44
	FillingsUpdate:  mu: +0.425059179  nElectrons: 314.000000
SCF: Cycle:  2   F: -1121.605080924464801   dF: -1.410e-06   |Residual|: 5.137e-04   |deigs|: 5.982e-06  t[s]:  17292.44
	FillingsUpdate:  mu: +0.425038846  nElectrons: 314.000000
SCF: Cycle:  3   F: -1121.605081331937527   dF: -4.075e-07   |Residual|: 1.776e-04   |deigs|: 3.769e-06  t[s]:  17352.62
	FillingsUpdate:  mu: +0.425032655  nElectrons: 314.000000
SCF: Cycle:  4   F: -1121.605081366597005   dF: -3.466e-08   |Residual|: 5.390e-05   |deigs|: 2.016e-06  t[s]:  17413.74
	FillingsUpdate:  mu: +0.425032241  nElectrons: 314.000000
SCF: Cycle:  5   F: -1121.605081370051948   dF: -3.455e-09   |Residual|: 2.462e-05   |deigs|: 4.942e-07  t[s]:  17474.28
	FillingsUpdate:  mu: +0.425032124  nElectrons: 314.000000
SCF: Cycle:  6   F: -1121.605081370975313   dF: -9.234e-10   |Residual|: 1.012e-05   |deigs|: 2.093e-07  t[s]:  17535.37
SCF: Converged (|Delta E|<1.000000e-08 for 2 iters).

Setting wave functions to eigenvectors of Hamiltonian

# Ionic positions in lattice coordinates:
ion O   0.725060167174250   0.261619582061451   0.769514440254000 1
ion O  -0.013554217628140  -0.048640056535490   0.721014508664408 1
ion O   0.509235849820411   0.235751388734167  -0.040998633986268 1
ion O   0.536759658348761   0.534067197776566   0.761555583478946 1
ion O   0.528734343018389   0.765789010563171   0.540484488120925 1
ion O   0.773139148640642   0.725821726657361   0.257694500988573 1
ion O  -0.049766548971474   0.724602811816048  -0.015537935004354 1
ion O  -0.029451182444793   0.508477574280983   0.240788605611123 1
ion O   0.260328664615812   0.766376306172673   0.720109681301175 1
ion O   0.723307127760146  -0.013400584208038  -0.052270792574191 1
ion O   0.235406456877802  -0.033429032345118   0.506496614149158 1
ion O   0.772915029613393   0.544280380959789   0.529880928932657 1
ion O   0.042444494971299   0.270381754276401   0.004702927302772 1
ion O   0.758795073592121   0.031949199577898   0.484995764273143 1
ion O   0.732759494549376   0.222869526725507   0.265693844075925 1
ion O   0.464904543329641   0.226314161460222   0.449148453612073 1
ion O   0.453750190146771   0.462734465851491   0.222191690817622 1
ion O   0.224655633541540   0.271716926359126   0.734959163072618 1
ion O   0.489797964811770   0.764131762815980   0.034512778156891 1
ion O   0.270936306625954   0.007414527015112   0.039473781621876 1
ion O   0.271212294874271   0.738410387321087   0.221981142476046 1
ion O   0.032824888197742   0.488543032053365   0.761589928683501 1
ion O   0.008609440146743   0.046691906323985   0.268443132355186 1
ion Sc   0.747063625449300   0.784025181357723   1.030646952136632 1
ion Sc   0.461589118913190   0.250695746146520   0.708580601542176 1
ion Sc   0.713376829597747   0.461744208460798   0.244058909765992 1
ion Sc   1.034818739408198   0.748417710252177   0.781776030531746 1
ion Sc   0.783469010024805   1.034034434144084   0.745046485891487 1
ion Sc   0.250049552083834   0.720676233370914   0.461187104796809 1
ion Sc   0.750053897160251   0.283767072327208   0.531836304006567 1
ion Sc  -0.043017185119434   0.243368281862686   0.204816471479820 1
ion Sc   0.212172602166862  -0.035396128262890   0.244633565555498 1
ion Sc   0.533551442284648   0.747252456891472   0.281837346995535 1
ion Sc   0.284673450600837   0.536702249436194   0.756783443039220 1
ion Sc   0.247683410968388   0.211814125588538  -0.040228975264489 1
ion Sc  -0.001802878433476   0.498606877689391  -0.002763162353152 1
ion Sc   0.497344636060353  -0.001747565329376  -0.005788005392417 1
ion Sc  -0.002400712486487   0.000698035015125   0.495878076765279 1
ion Sc   0.506939639708554   0.499557125335698   0.495674254119494 1

# Forces in Lattice coordinates:
force O  -0.001225319110342  -0.000168504854623   0.000114590449741 1
force O   0.000712787447987  -0.001263234968571   0.000560984832800 1
force O  -0.000427283331256   0.000369542878196   0.000150049006914 1
force O  -0.000587378008138  -0.000630222996632   0.001758921884151 1
force O   0.000315850070556   0.002363157775990  -0.001165811112461 1
force O   0.002042876047116  -0.001047410290518  -0.000169484407858 1
force O  -0.000206659601636   0.000691573290236  -0.000082932530844 1
force O  -0.001079435055559   0.000778390539236  -0.001111131043387 1
force O   0.001057195518528  -0.000990579674834  -0.001667931380371 1
force O   0.000851033058737   0.000812843404331  -0.000950138958887 1
force O   0.000511870483608  -0.000660253724035  -0.000379153830600 1
force O   0.000477639973897  -0.001186991679099   0.000072372451788 1
force O   0.000406581968886   0.000887910620483  -0.001400962681910 1
force O   0.000109754987718  -0.000101801404143  -0.000353028891522 1
force O   0.001312661862114  -0.000701347099015  -0.000661194587128 1
force O  -0.000423418779440   0.000744516631211   0.000028946440666 1
force O  -0.000005392253485   0.000487783616738   0.000039329680345 1
force O  -0.000871677839336  -0.000458247863683   0.001714010687471 1
force O  -0.000388659617615   0.000746107680670   0.000435491850439 1
force O   0.001135561377087  -0.000836396280108  -0.000261474016594 1
force O  -0.000456010428503  -0.001241847829066   0.000983861197132 1
force O   0.000002045571983  -0.000698512769000   0.000193053673801 1
force O   0.000717245449668  -0.000631769621911   0.000479464865876 1
force Sc   0.003361222527864  -0.000290321169937  -0.001908516684956 1
force Sc  -0.002349932548674   0.000994483646226   0.001807193562369 1
force Sc   0.001617662937607  -0.003687196314374   0.000979191829547 1
force Sc  -0.001468630351213  -0.000140675330818   0.001626008195980 1
force Sc   0.000449117379651  -0.001221768103047   0.000171364587246 1
force Sc   0.000852994090989   0.000494652934050  -0.002409073197451 1
force Sc   0.000600537470508   0.000213430645778  -0.003370392568262 1
force Sc  -0.000382699073441   0.000154718073331   0.002312603241721 1
force Sc   0.000319089041942   0.000257450503796  -0.001545632332544 1
force Sc  -0.001092941276869   0.000544228423858   0.001466161454330 1
force Sc   0.000764854783203  -0.002992630364021   0.000892954351483 1
force Sc   0.001103752317774  -0.001222903558789   0.000812258582566 1
force Sc  -0.004427510843594   0.004651018570785   0.000011325710156 1
force Sc   0.000414245507149   0.003179937500595  -0.002258927918021 1
force Sc  -0.001351447509061  -0.000937471767431   0.002321575023933 1
force Sc  -0.001867691155687   0.002869394640447   0.001404676080027 1

# Energy components:
   Eewald =     -824.8090201594923201
       EH =      262.2732857890633795
     Eloc =     -773.1945352179506017
      Enl =      127.9706179617780748
      Exc =     -189.8232951866058613
 Exc_core =        6.3981137994238040
       KE =      269.6071195431559886
-------------------------------------
     Etot =    -1121.5777134706277138
       TS =        0.0273679003476502
-------------------------------------
        F =    -1121.6050813709753129

IonicMinimize: Iter:  16  F: -1121.605081370975313  |grad|_K:  8.097e-05  alpha:  1.000e+00  linmin: -2.352e-01  t[s]:  17548.99
IonicMinimize: Converged (|grad|_K<1.000000e-04).

#--- Lowdin population analysis ---
# oxidation-state O -0.415 -0.415 -0.415 -0.415 -0.415 -0.417 -0.416 -0.412 -0.415 -0.403 -0.405 -0.400 -0.411 -0.411 -0.410 -0.412 -0.410 -0.410 -0.404 -0.411 -0.414 -0.407 -0.410
# oxidation-state Sc +0.629 +0.624 +0.633 +0.631 +0.631 +0.533 +0.627 +0.542 +0.628 +0.631 +0.538 +0.626 +0.642 +0.639 +0.636 +0.554


Dumping '/data/rc652/Sc2O3/vac/Sc2O3_vac.Ecomponents' ... done
End date and time: Thu Jun 27 09:53:50 2024  (Duration: 0-4:52:37.09)
Done!
