--------------------------------------------------------------------------
Initialization of PSM library failed.

  Error: PSM is in the finalized state
--------------------------------------------------------------------------

*************** JDFTx 1.7.0 (git hash 3664913) ***************

Start date and time: Mon Jul  1 04:14:05 2024
Executable jdftx with command-line: -i TcO2_vac.in
Running on hosts (process indices):  node3204.physics.cornell.edu (0-15)
Divided in process groups (process indices):  0 (0)  1 (1)  2 (2)  3 (3)  4 (4)  5 (5)  6 (6)  7 (7)  8 (8)  9 (9)  10 (10)  11 (11)  12 (12)  13 (13)  14 (14)  15 (15)
Resource initialization completed at t[s]:      0.00
Run totals: 16 processes, 32 threads, 0 GPUs


Input parsed successfully to the following command list (including defaults):

basis kpoint-dependent
coords-type Lattice
core-overlap-check vector
coulomb-interaction Periodic
davidson-band-ratio 1.1
dump End Ecomponents
dump-name /data/rc652/TcO2/vac/TcO2_vac.$VAR
elec-cutoff 20 100
elec-eigen-algo Davidson
elec-ex-corr gga-PBEsol
elec-smearing Fermi 0.01
electronic-minimize  \
	dirUpdateScheme      FletcherReeves \
	linminMethod         DirUpdateRecommended \
	nIterations          100 \
	history              15 \
	knormThreshold       0 \
	maxThreshold         no \
	energyDiffThreshold  1e-08 \
	nEnergyDiff          2 \
	alphaTstart          1 \
	alphaTmin            1e-10 \
	updateTestStepSize   yes \
	alphaTreduceFactor   0.1 \
	alphaTincreaseFactor 3 \
	nAlphaAdjustMax      3 \
	wolfeEnergy          0.0001 \
	wolfeGradient        0.9 \
	fdTest               no
electronic-scf  \
	nIterations	50 \
	energyDiffThreshold	1e-08 \
	residualThreshold	1e-07 \
	mixFraction	0.5 \
	qMetric	0.8 \
	history	10 \
	nEigSteps	2 \
	eigDiffThreshold	1e-08 \
	mixedVariable	Density \
	qKerker	0.8 \
	qKappa	-1 \
	verbose	no \
	mixFractionMag	1.5
exchange-regularization WignerSeitzTruncated
fluid None
fluid-ex-corr lda-TF lda-PZ
fluid-gummel-loop 10 1.000000e-05
fluid-minimize  \
	dirUpdateScheme      PolakRibiere \
	linminMethod         DirUpdateRecommended \
	nIterations          100 \
	history              15 \
	knormThreshold       0 \
	maxThreshold         no \
	energyDiffThreshold  0 \
	nEnergyDiff          2 \
	alphaTstart          1 \
	alphaTmin            1e-10 \
	updateTestStepSize   yes \
	alphaTreduceFactor   0.1 \
	alphaTincreaseFactor 3 \
	nAlphaAdjustMax      3 \
	wolfeEnergy          0.0001 \
	wolfeGradient        0.9 \
	fdTest               no
fluid-solvent H2O 55.338 ScalarEOS \
	epsBulk 78.4 \
	pMol 0.92466 \
	epsInf 1.77 \
	Pvap 1.06736e-10 \
	sigmaBulk 4.62e-05 \
	Rvdw 2.61727 \
	Res 1.42 \
	tauNuc 343133 \
	poleEl 15 7 1
forces-output-coords Positions
ion O   0.157750000000000   0.188850000000000   0.076510000000000 1
ion O   0.094300000000000   0.463450000000000   0.032040000000000 1
ion O   0.152040000000000   0.455970000000000   0.305430000000000 1
ion O   0.342080000000000   0.050360000000000   0.210790000000000 1
ion O   0.345880000000000   0.317460000000000   0.466660000000000 1
ion O   0.404750000000000   0.062000000000000   0.448140000000000 1
ion O   0.115930000000000   0.201530000000000   0.294610000000000 1
ion O   0.399030000000000   0.285420000000000   0.691310000000000 1
ion O   0.140630000000000   0.205840000000000   0.534910000000000 1
ion O   0.087260000000000   0.442900000000000   0.559360000000000 1
ion O   0.127800000000000   0.454230000000000   0.793690000000000 1
ion O   0.359150000000000   0.047990000000000   0.711970000000000 1
ion O   0.361730000000000   0.290960000000000   0.949830000000000 1
ion O   0.413680000000000   0.055980000000000   0.971170000000000 1
ion O   0.103310000000000   0.191770000000000   0.809470000000000 1
ion O   0.401190000000000   0.799090000000000   0.200440000000000 1
ion O   0.144430000000000   0.677810000000000   0.073170000000000 1
ion O   0.100770000000000   0.944510000000000   0.027460000000000 1
ion O   0.140990000000000   0.930320000000000   0.307870000000000 1
ion O   0.341900000000000   0.544820000000000   0.197740000000000 1
ion O   0.368940000000000   0.787800000000000   0.437370000000000 1
ion O   0.405890000000000   0.545800000000000   0.447530000000000 1
ion O   0.119640000000000   0.698480000000000   0.288710000000000 1
ion O   0.385840000000000   0.794980000000000   0.680570000000000 1
ion O   0.131050000000000   0.699600000000000   0.554060000000000 1
ion O   0.101430000000000   0.934790000000000   0.527920000000000 1
ion O   0.139670000000000   0.963780000000000   0.796820000000000 1
ion O   0.328870000000000   0.556990000000000   0.704010000000000 1
ion O   0.365230000000000   0.797830000000000   0.940530000000000 1
ion O   0.393650000000000   0.553310000000000   0.964210000000000 1
ion O   0.101610000000000   0.700020000000000   0.807870000000000 1
ion O   0.907700000000000   0.305040000000000   0.202060000000000 1
ion O   0.639930000000000   0.198220000000000   0.065540000000000 1
ion O   0.591210000000000   0.449700000000000   0.046580000000000 1
ion O   0.637240000000000   0.450960000000000   0.286710000000000 1
ion O   0.833660000000000   0.063430000000000   0.201710000000000 1
ion O   0.846760000000000   0.294590000000000   0.445300000000000 1
ion O   0.899900000000000   0.061650000000000   0.441450000000000 1
ion O   0.598990000000000   0.182360000000000   0.318430000000000 1
ion O   0.891860000000000   0.303560000000000   0.679380000000000 1
ion O   0.650260000000000   0.185380000000000   0.577780000000000 1
ion O   0.599240000000000   0.455970000000000   0.535390000000000 1
ion O   0.656860000000000   0.453780000000000   0.790840000000000 1
ion O   0.848850000000000   0.049800000000000   0.700190000000000 1
ion O   0.867980000000000   0.307490000000000   0.922870000000000 1
ion O   0.908310000000000   0.051910000000000   0.961560000000000 1
ion O   0.592590000000000   0.184000000000000   0.829950000000000 1
ion O   0.877890000000000   0.802610000000000   0.194210000000000 1
ion O   0.659610000000000   0.688370000000000   0.076010000000000 1
ion O   0.596960000000000   0.940000000000000   0.051040000000000 1
ion O   0.655660000000000   0.937690000000000   0.306890000000000 1
ion O   0.856320000000000   0.536400000000000   0.205500000000000 1
ion O   0.861090000000000   0.811020000000000   0.444510000000000 1
ion O   0.919770000000000   0.570670000000000   0.450980000000000 1
ion O   0.592930000000000   0.699680000000000   0.289560000000000 1
ion O   0.892260000000000   0.813870000000000   0.708530000000000 1
ion O   0.627150000000000   0.687710000000000   0.550310000000000 1
ion O   0.596090000000000   0.958800000000000   0.541720000000000 1
ion O   0.661880000000000   0.936400000000000   0.802100000000000 1
ion O   0.841260000000000   0.538000000000000   0.705940000000000 1
ion O   0.849480000000000   0.807650000000000   0.954680000000000 1
ion O   0.911040000000000   0.557220000000000   0.982500000000000 1
ion O   0.604060000000000   0.685190000000000   0.812270000000000 1
ion Tc   0.233270000000000   0.372470000000000   0.114190000000000 1
ion Tc   0.492250000000000   0.136460000000000   0.139240000000000 1
ion Tc  -0.003340000000000   0.360920000000000   0.356220000000000 1
ion Tc   0.255330000000000   0.137120000000000   0.382020000000000 1
ion Tc   0.215830000000000   0.364890000000000   0.615980000000000 1
ion Tc   0.507330000000000   0.125930000000000   0.632630000000000 1
ion Tc   0.004890000000000   0.393950000000000   0.855900000000000 1
ion Tc   0.244780000000000   0.129590000000000   0.889900000000000 1
ion Tc   0.253080000000000   0.860490000000000   0.106290000000000 1
ion Tc   0.496070000000000   0.619870000000000   0.126160000000000 1
ion Tc   0.006740000000000   0.863650000000000   0.365180000000000 1
ion Tc   0.240300000000000   0.625500000000000   0.396110000000000 1
ion Tc   0.259020000000000   0.872960000000000   0.605260000000000 1
ion Tc   0.492410000000000   0.640360000000000   0.646740000000000 1
ion Tc  -0.009710000000000   0.856520000000000   0.869780000000000 1
ion Tc   0.268550000000000   0.635330000000000   0.885690000000000 1
ion Tc   0.738210000000000   0.369880000000000   0.111870000000000 1
ion Tc   0.993480000000000   0.137070000000000   0.141490000000000 1
ion Tc   0.515720000000000   0.376100000000000   0.342950000000000 1
ion Tc   0.746310000000000   0.131380000000000   0.380350000000000 1
ion Tc   0.765760000000000   0.352130000000000   0.611370000000000 1
ion Tc   1.003080000000000   0.151600000000000   0.633000000000000 1
ion Tc   0.500130000000000   0.365280000000000   0.853680000000000 1
ion Tc   0.752190000000000   0.140610000000000   0.894150000000000 1
ion Tc   0.738160000000000   0.854900000000000   0.117160000000000 1
ion Tc   0.999100000000000   0.638160000000000   0.135060000000000 1
ion Tc   0.507480000000000   0.864580000000000   0.374130000000000 1
ion Tc   0.748250000000000   0.657060000000000   0.397270000000000 1
ion Tc   0.741210000000000   0.859750000000000   0.601340000000000 1
ion Tc   1.004090000000000   0.629230000000000   0.628170000000000 1
ion Tc   0.504770000000000   0.876610000000000   0.854050000000000 1
ion Tc   0.764540000000000   0.629530000000000   0.889530000000000 1
ion-species GBRV/$ID_pbesol.uspp
ion-width 0
ionic-minimize  \
	dirUpdateScheme      L-BFGS \
	linminMethod         DirUpdateRecommended \
	nIterations          30 \
	history              15 \
	knormThreshold       0.0001 \
	maxThreshold         no \
	energyDiffThreshold  1e-06 \
	nEnergyDiff          2 \
	alphaTstart          1 \
	alphaTmin            1e-10 \
	updateTestStepSize   yes \
	alphaTreduceFactor   0.1 \
	alphaTincreaseFactor 3 \
	nAlphaAdjustMax      3 \
	wolfeEnergy          0.0001 \
	wolfeGradient        0.9 \
	fdTest               no
kpoint   0.500000000000   0.500000000000   0.500000000000  1.00000000000000
kpoint-folding 3 3 3 
latt-move-scale 1 1 1
latt-scale 1 1 1 
lattice  \
	  18.030928184321727    0.000267607094778   -0.000854123896533  \
	  -0.000659002487015   20.612862791535630   -9.788819170443009  \
	   0.001911667159465   -0.293849722060337   18.404179481686104 
lattice-minimize  \
	dirUpdateScheme      L-BFGS \
	linminMethod         DirUpdateRecommended \
	nIterations          0 \
	history              15 \
	knormThreshold       0 \
	maxThreshold         no \
	energyDiffThreshold  1e-06 \
	nEnergyDiff          2 \
	alphaTstart          1 \
	alphaTmin            1e-10 \
	updateTestStepSize   yes \
	alphaTreduceFactor   0.1 \
	alphaTincreaseFactor 3 \
	nAlphaAdjustMax      3 \
	wolfeEnergy          0.0001 \
	wolfeGradient        0.9 \
	fdTest               no
lcao-params -1 1e-06 0.01
pcm-variant GLSSA13
perturb-minimize  \
	nIterations            0 \
	algorithm              MINRES \
	residualTol            0.0001 \
	residualDiffThreshold  0.0001 \
	CGBypass               no \
	recomputeResidual      no
spintype no-spin
subspace-rotation-factor 1 yes
symmetries automatic
symmetry-threshold 0.0001



---------- Setting up symmetries ----------

Found 2 point-group symmetries of the bravais lattice
Found 1 space-group symmetries with basis
Applied RMS atom displacement 0 bohrs to make symmetries exact.

---------- Initializing the Grid ----------
R = 
[      18.0309  0.000267607 -0.000854124  ]
[ -0.000659002      20.6129     -9.78882  ]
[   0.00191167     -0.29385      18.4042  ]
unit cell volume = 6788.4
G =
[   0.348467 -4.32624e-06 1.3871e-05  ]
[ -6.09452e-06   0.307148   0.163366  ]
[ -3.62931e-05 0.00490406   0.344008  ]
Minimum fftbox size, Smin = [  84  96  96  ]
Chosen fftbox size, S = [  84  96  96  ]

---------- Initializing tighter grid for wavefunction operations ----------
R = 
[      18.0309  0.000267607 -0.000854124  ]
[ -0.000659002      20.6129     -9.78882  ]
[   0.00191167     -0.29385      18.4042  ]
unit cell volume = 6788.4
G =
[   0.348467 -4.32624e-06 1.3871e-05  ]
[ -6.09452e-06   0.307148   0.163366  ]
[ -3.62931e-05 0.00490406   0.344008  ]
Minimum fftbox size, Smin = [  76  84  84  ]
Chosen fftbox size, S = [  80  84  84  ]

---------- Exchange Correlation functional ----------
Initalized PBEsol GGA exchange.
Initalized PBEsol GGA correlation.

---------- Setting up pseudopotentials ----------
Width of ionic core gaussian charges (only for fluid interactions / plotting) set to 0

Reading pseudopotential file '/home/rc652/build/pseudopotentials/GBRV/o_pbesol.uspp':
  Title: O.  Created by USPP 7.3.6 on 3-2-2014
  Reference state energy: -15.849885.  6 valence electrons in orbitals:
    |200>  occupation: 2  eigenvalue: -0.873214
    |210>  occupation: 4  eigenvalue: -0.330058
  lMax: 2  lLocal: 2  QijEcut: 6
  5 projectors sampled on a log grid with 511 points:
    l: 0  eig: -0.873214  rCut: 1.25
    l: 0  eig: 0.000000  rCut: 1.25
    l: 1  eig: -0.330058  rCut: 1.25
    l: 1  eig: 0.000000  rCut: 1.25
    l: 2  eig: 1.000000  rCut: 1.25
  Partial core density with radius 0.7
  Transforming core density to a uniform radial grid of dG=0.02 with 1612 points.
  Transforming local potential to a uniform radial grid of dG=0.02 with 1612 points.
  Transforming nonlocal projectors to a uniform radial grid of dG=0.02 with 432 points.
  Transforming density augmentations to a uniform radial grid of dG=0.02 with 1612 points.
  Transforming atomic orbitals to a uniform radial grid of dG=0.02 with 432 points.
  Core radius for overlap checks: 1.25 bohrs.

Reading pseudopotential file '/home/rc652/build/pseudopotentials/GBRV/tc_pbesol.uspp':
  Title: Tc.  Created by USPP 7.3.6 on 23-7-2013
  Reference state energy: -86.345700.  15 valence electrons in orbitals:
    |400>  occupation: 2  eigenvalue: -2.972801
    |410>  occupation: 6  eigenvalue: -1.943789
    |420>  occupation: 5  eigenvalue: -0.518764
    |500>  occupation: 1  eigenvalue: -0.420062
    |510>  occupation: 0  eigenvalue: -0.251266
  lMax: 2  lLocal: 3  QijEcut: 5
  6 projectors sampled on a log grid with 713 points:
    l: 0  eig: -0.420062  rCut: 1.5
    l: 0  eig: -2.972801  rCut: 1.5
    l: 1  eig: -1.943789  rCut: 1.6
    l: 1  eig: -0.251266  rCut: 1.6
    l: 2  eig: -0.518764  rCut: 1.8
    l: 2  eig: 0.000000  rCut: 1.8
  Partial core density with radius 0.9
  Transforming core density to a uniform radial grid of dG=0.02 with 1612 points.
  Transforming local potential to a uniform radial grid of dG=0.02 with 1612 points.
  Transforming nonlocal projectors to a uniform radial grid of dG=0.02 with 432 points.
  Transforming density augmentations to a uniform radial grid of dG=0.02 with 1612 points.
  Transforming atomic orbitals to a uniform radial grid of dG=0.02 with 432 points.
  Core radius for overlap checks: 1.80 bohrs.

Initialized 2 species with 95 total atoms.

Folded 1 k-points by 3x3x3 to 27 k-points.

---------- Setting up k-points, bands, fillings ----------
Adding inversion symmetry to k-mesh for non-inversion-symmetric unit cell.
Reduced to 14 k-points under symmetry. 
Computing the number of bands and number of electrons
Calculating initial fillings.
nElectrons: 858.000000   nBands: 668   nStates: 14

----- Setting up reduced wavefunction bases (one per k-point) -----
average nbasis = 28996.667 , ideal nbasis = 29000.558

---------- Setting up ewald sum ----------
Optimum gaussian width for ewald sums = 3.536269 bohr.
Real space sum over 343 unit cells with max indices [  3  3  3  ]
Reciprocal space sum over 8379 terms with max indices [  9  10  10  ]

---------- Allocating electronic variables ----------
Initializing wave functions:  linear combination of atomic orbitals
O pseudo-atom occupations:   s ( 2 )  p ( 4 )
Tc pseudo-atom occupations:   s ( 2 0 )  p ( 6 0 )  d ( 7 )
	FillingsUpdate:  mu: +0.694239465  nElectrons: 858.000000
LCAOMinimize: Iter:   0  F: -3547.4154569088577773  |grad|_K:  6.915e-03  alpha:  1.000e+00
	FillingsUpdate:  mu: +0.550786771  nElectrons: 858.000000
LCAOMinimize: Iter:   1  F: -3592.6707651360497948  |grad|_K:  5.064e-03  alpha:  2.801e-01  linmin: -4.995e-02  cgtest:  1.772e-01  t[s]:    335.37
	FillingsUpdate:  mu: +0.512269769  nElectrons: 858.000000
LCAOMinimize: Iter:   2  F: -3597.4125769447587118  |grad|_K:  2.547e-03  alpha:  5.987e-02  linmin:  7.409e-02  cgtest: -6.307e-01  t[s]:    456.52
	FillingsUpdate:  mu: +0.513249916  nElectrons: 858.000000
LCAOMinimize: Iter:   3  F: -3597.8122383420577535  |grad|_K:  2.221e-03  alpha:  3.618e-02  linmin: -4.714e-04  cgtest:  9.147e-01  t[s]:    580.39
LCAOMinimize: Encountered beta<0, resetting CG.
	FillingsUpdate:  mu: +0.515973238  nElectrons: 858.000000
LCAOMinimize: Iter:   4  F: -3598.4548227988957478  |grad|_K:  5.038e-04  alpha:  4.194e-02  linmin:  7.045e-02  cgtest: -1.722e-01  t[s]:    705.01
	FillingsUpdate:  mu: +0.518227804  nElectrons: 858.000000
LCAOMinimize: Iter:   5  F: -3598.5298909895718680  |grad|_K:  4.361e-04  alpha:  1.020e-01  linmin:  2.457e-03  cgtest:  1.087e-01  t[s]:    832.49
	FillingsUpdate:  mu: +0.521724278  nElectrons: 858.000000
LCAOMinimize: Iter:   6  F: -3598.5925868972576609  |grad|_K:  3.646e-04  alpha:  1.060e-01  linmin:  1.739e-03  cgtest: -2.954e-02  t[s]:    958.65
	FillingsUpdate:  mu: +0.524260324  nElectrons: 858.000000
LCAOMinimize: Iter:   7  F: -3598.6261194020817129  |grad|_K:  2.612e-04  alpha:  8.086e-02  linmin:  5.514e-04  cgtest:  2.737e-02  t[s]:   1083.19
	FillingsUpdate:  mu: +0.527357348  nElectrons: 858.000000
LCAOMinimize: Iter:   8  F: -3598.6540954933866487  |grad|_K:  2.621e-04  alpha:  1.320e-01  linmin:  2.073e-03  cgtest: -1.537e-02  t[s]:   1209.52
	FillingsUpdate:  mu: +0.530289556  nElectrons: 858.000000
LCAOMinimize: Iter:   9  F: -3598.6677209169752132  |grad|_K:  1.169e-04  alpha:  6.309e-02  linmin: -2.924e-03  cgtest:  1.140e-01  t[s]:   1336.30
	FillingsUpdate:  mu: +0.530350257  nElectrons: 858.000000
LCAOMinimize: Iter:  10  F: -3598.6707519579613290  |grad|_K:  6.187e-05  alpha:  7.026e-02  linmin:  3.312e-04  cgtest: -2.163e-02  t[s]:   1462.38
	FillingsUpdate:  mu: +0.530320575  nElectrons: 858.000000
LCAOMinimize: Iter:  11  F: -3598.6717559092335250  |grad|_K:  4.971e-05  alpha:  8.378e-02  linmin:  1.267e-04  cgtest:  6.019e-03  t[s]:   1588.31
	FillingsUpdate:  mu: +0.530253983  nElectrons: 858.000000
LCAOMinimize: Iter:  12  F: -3598.6723939396802052  |grad|_K:  2.269e-05  alpha:  8.243e-02  linmin:  3.776e-04  cgtest: -4.044e-03  t[s]:   1714.97
	FillingsUpdate:  mu: +0.530273596  nElectrons: 858.000000
LCAOMinimize: Iter:  13  F: -3598.6725236645211226  |grad|_K:  1.937e-05  alpha:  8.050e-02  linmin:  3.956e-05  cgtest:  1.463e-03  t[s]:   1842.76
	FillingsUpdate:  mu: +0.530340183  nElectrons: 858.000000
LCAOMinimize: Iter:  14  F: -3598.6726744423654054  |grad|_K:  1.656e-05  alpha:  1.283e-01  linmin: -1.401e-04  cgtest: -1.727e-03  t[s]:   1971.05
	FillingsUpdate:  mu: +0.530400435  nElectrons: 858.000000
LCAOMinimize: Iter:  15  F: -3598.6727428592935212  |grad|_K:  9.026e-06  alpha:  7.952e-02  linmin: -1.841e-05  cgtest: -2.274e-03  t[s]:   2098.78
	FillingsUpdate:  mu: +0.530461432  nElectrons: 858.000000
LCAOMinimize: Iter:  16  F: -3598.6727590675682222  |grad|_K:  5.601e-06  alpha:  6.350e-02  linmin: -1.741e-05  cgtest: -4.139e-04  t[s]:   2226.76
	FillingsUpdate:  mu: +0.530510666  nElectrons: 858.000000
LCAOMinimize: Iter:  17  F: -3598.6727704792647273  |grad|_K:  3.798e-06  alpha:  1.161e-01  linmin:  4.057e-05  cgtest: -2.275e-04  t[s]:   2354.72
	FillingsUpdate:  mu: +0.530522829  nElectrons: 858.000000
LCAOMinimize: Iter:  18  F: -3598.6727734952332867  |grad|_K:  2.152e-06  alpha:  6.675e-02  linmin:  9.219e-06  cgtest:  6.869e-04  t[s]:   2481.34
	FillingsUpdate:  mu: +0.530538791  nElectrons: 858.000000
LCAOMinimize: Iter:  19  F: -3598.6727747032155094  |grad|_K:  1.760e-06  alpha:  8.327e-02  linmin: -5.183e-05  cgtest:  2.045e-04  t[s]:   2608.97
	FillingsUpdate:  mu: +0.530550241  nElectrons: 858.000000
LCAOMinimize: Iter:  20  F: -3598.6727762264072226  |grad|_K:  1.694e-06  alpha:  1.570e-01  linmin: -5.315e-05  cgtest: -1.446e-04  t[s]:   2737.16
	FillingsUpdate:  mu: +0.530551685  nElectrons: 858.000000
LCAOMinimize: Iter:  21  F: -3598.6727768245145853  |grad|_K:  9.255e-07  alpha:  6.653e-02  linmin: -9.517e-06  cgtest: -4.598e-04  t[s]:   2867.33
	FillingsUpdate:  mu: +0.530551444  nElectrons: 858.000000
LCAOMinimize: Iter:  22  F: -3598.6727770396864798  |grad|_K:  5.546e-07  alpha:  8.026e-02  linmin:  4.094e-04  cgtest: -1.982e-03  t[s]:   2993.49
LCAOMinimize: Converged (|Delta F|<1.000000e-06 for 2 iters).


---- Citations for features of the code used in this run ----

   Software package:
      R. Sundararaman, K. Letchworth-Weaver, K.A. Schwarz, D. Gunceler, Y. Ozhabes and T.A. Arias, 'JDFTx: software for joint density-functional theory', SoftwareX 6, 278 (2017)

   gga-PBEsol exchange-correlation functional:
      J.P. Perdew et al., Phys. Rev. Lett. 100, 136406 (2008)

   Pseudopotentials:
      KF Garrity, JW Bennett, KM Rabe and D Vanderbilt, Comput. Mater. Sci. 81, 446 (2014)

This list may not be complete. Please suggest additional citations or
report any other bugs at https://github.com/shankar1729/jdftx/issues

Initialization completed successfully at t[s]:   3036.83


-------- Electronic minimization -----------
Will mix electronic density at each iteration.
	FillingsUpdate:  mu: +0.530551444  nElectrons: 858.000000
	FillingsUpdate:  mu: +0.523976261  nElectrons: 858.000000
SCF: Cycle:  0   F: -3601.154096203204972   dF: -2.481e+00   |Residual|: 7.482e-01   |deigs|: 5.643e-02  t[s]:   3523.77
	FillingsUpdate:  mu: +0.514464010  nElectrons: 858.000000
SCF: Cycle:  1   F: -3601.179808824138036   dF: -2.571e-02   |Residual|: 3.461e-01   |deigs|: 1.119e-02  t[s]:   3917.32
	FillingsUpdate:  mu: +0.510587816  nElectrons: 858.000000
SCF: Cycle:  2   F: -3599.549267286571649   dF: +1.631e+00   |Residual|: 5.683e-01   |deigs|: 8.731e-03  t[s]:   4309.40
	FillingsUpdate:  mu: +0.509378387  nElectrons: 858.000000
SCF: Cycle:  3   F: -3601.230895733933721   dF: -1.682e+00   |Residual|: 2.132e-01   |deigs|: 6.615e-03  t[s]:   4703.58
	FillingsUpdate:  mu: +0.509992771  nElectrons: 858.000000
SCF: Cycle:  4   F: -3601.363583821080738   dF: -1.327e-01   |Residual|: 1.156e-01   |deigs|: 1.661e-03  t[s]:   5106.62
	FillingsUpdate:  mu: +0.510456228  nElectrons: 858.000000
SCF: Cycle:  5   F: -3601.429810733964587   dF: -6.623e-02   |Residual|: 5.540e-02   |deigs|: 9.339e-04  t[s]:   5480.16
	FillingsUpdate:  mu: +0.510916846  nElectrons: 858.000000
SCF: Cycle:  6   F: -3601.422004758752337   dF: +7.806e-03   |Residual|: 5.843e-02   |deigs|: 6.280e-04  t[s]:   5856.43
	FillingsUpdate:  mu: +0.510982924  nElectrons: 858.000000
SCF: Cycle:  7   F: -3601.442135195729861   dF: -2.013e-02   |Residual|: 1.624e-02   |deigs|: 4.730e-04  t[s]:   6104.53
	FillingsUpdate:  mu: +0.510999138  nElectrons: 858.000000
SCF: Cycle:  8   F: -3601.442869744759264   dF: -7.345e-04   |Residual|: 1.088e-02   |deigs|: 1.765e-04  t[s]:   6354.84
	FillingsUpdate:  mu: +0.511008587  nElectrons: 858.000000
SCF: Cycle:  9   F: -3601.443396353527987   dF: -5.266e-04   |Residual|: 5.375e-03   |deigs|: 1.174e-04  t[s]:   6603.02
	FillingsUpdate:  mu: +0.511028541  nElectrons: 858.000000
SCF: Cycle: 10   F: -3601.443427810463618   dF: -3.146e-05   |Residual|: 4.122e-03   |deigs|: 6.251e-05  t[s]:   6850.06
	FillingsUpdate:  mu: +0.511047086  nElectrons: 858.000000
SCF: Cycle: 11   F: -3601.443487122264742   dF: -5.931e-05   |Residual|: 2.447e-03   |deigs|: 5.234e-05  t[s]:   7097.62
	FillingsUpdate:  mu: +0.511064236  nElectrons: 858.000000
SCF: Cycle: 12   F: -3601.443498726330290   dF: -1.160e-05   |Residual|: 1.522e-03   |deigs|: 3.337e-05  t[s]:   7345.06
	FillingsUpdate:  mu: +0.511069770  nElectrons: 858.000000
SCF: Cycle: 13   F: -3601.443510194225837   dF: -1.147e-05   |Residual|: 8.066e-04   |deigs|: 1.916e-05  t[s]:   7591.14
	FillingsUpdate:  mu: +0.511073616  nElectrons: 858.000000
SCF: Cycle: 14   F: -3601.443505467554132   dF: +4.727e-06   |Residual|: 1.195e-03   |deigs|: 1.811e-05  t[s]:   7841.17
	FillingsUpdate:  mu: +0.511080014  nElectrons: 858.000000
SCF: Cycle: 15   F: -3601.443512979808474   dF: -7.512e-06   |Residual|: 3.142e-04   |deigs|: 1.380e-05  t[s]:   8090.92
	FillingsUpdate:  mu: +0.511081603  nElectrons: 858.000000
SCF: Cycle: 16   F: -3601.443513286476446   dF: -3.067e-07   |Residual|: 1.814e-04   |deigs|: 4.396e-06  t[s]:   8338.99
	FillingsUpdate:  mu: +0.511082323  nElectrons: 858.000000
SCF: Cycle: 17   F: -3601.443513347779117   dF: -6.130e-08   |Residual|: 1.516e-04   |deigs|: 3.118e-06  t[s]:   8587.85
	FillingsUpdate:  mu: +0.511082912  nElectrons: 858.000000
SCF: Cycle: 18   F: -3601.443513434866873   dF: -8.709e-08   |Residual|: 8.785e-05   |deigs|: 2.774e-06  t[s]:   8834.88
	FillingsUpdate:  mu: +0.511083235  nElectrons: 858.000000
SCF: Cycle: 19   F: -3601.443513461170369   dF: -2.630e-08   |Residual|: 5.572e-05   |deigs|: 1.986e-06  t[s]:   9079.91
	FillingsUpdate:  mu: +0.511083309  nElectrons: 858.000000
SCF: Cycle: 20   F: -3601.443513467248067   dF: -6.078e-09   |Residual|: 4.270e-05   |deigs|: 1.803e-06  t[s]:   9327.02
	FillingsUpdate:  mu: +0.511083403  nElectrons: 858.000000
SCF: Cycle: 21   F: -3601.443513473604071   dF: -6.356e-09   |Residual|: 2.738e-05   |deigs|: 1.619e-06  t[s]:   9572.64
SCF: Converged (|Delta E|<1.000000e-08 for 2 iters).

Setting wave functions to eigenvectors of Hamiltonian

# Ionic positions in lattice coordinates:
ion O   0.157750000000000   0.188850000000000   0.076510000000000 1
ion O   0.094300000000000   0.463450000000000   0.032040000000000 1
ion O   0.152040000000000   0.455970000000000   0.305430000000000 1
ion O   0.342080000000000   0.050360000000000   0.210790000000000 1
ion O   0.345880000000000   0.317460000000000   0.466660000000000 1
ion O   0.404750000000000   0.062000000000000   0.448140000000000 1
ion O   0.115930000000000   0.201530000000000   0.294610000000000 1
ion O   0.399030000000000   0.285420000000000   0.691310000000000 1
ion O   0.140630000000000   0.205840000000000   0.534910000000000 1
ion O   0.087260000000000   0.442900000000000   0.559360000000000 1
ion O   0.127800000000000   0.454230000000000   0.793690000000000 1
ion O   0.359150000000000   0.047990000000000   0.711970000000000 1
ion O   0.361730000000000   0.290960000000000   0.949830000000000 1
ion O   0.413680000000000   0.055980000000000   0.971170000000000 1
ion O   0.103310000000000   0.191770000000000   0.809470000000000 1
ion O   0.401190000000000   0.799090000000000   0.200440000000000 1
ion O   0.144430000000000   0.677810000000000   0.073170000000000 1
ion O   0.100770000000000   0.944510000000000   0.027460000000000 1
ion O   0.140990000000000   0.930320000000000   0.307870000000000 1
ion O   0.341900000000000   0.544820000000000   0.197740000000000 1
ion O   0.368940000000000   0.787800000000000   0.437370000000000 1
ion O   0.405890000000000   0.545800000000000   0.447530000000000 1
ion O   0.119640000000000   0.698480000000000   0.288710000000000 1
ion O   0.385840000000000   0.794980000000000   0.680570000000000 1
ion O   0.131050000000000   0.699600000000000   0.554060000000000 1
ion O   0.101430000000000   0.934790000000000   0.527920000000000 1
ion O   0.139670000000000   0.963780000000000   0.796820000000000 1
ion O   0.328870000000000   0.556990000000000   0.704010000000000 1
ion O   0.365230000000000   0.797830000000000   0.940530000000000 1
ion O   0.393650000000000   0.553310000000000   0.964210000000000 1
ion O   0.101610000000000   0.700020000000000   0.807870000000000 1
ion O   0.907700000000000   0.305040000000000   0.202060000000000 1
ion O   0.639930000000000   0.198220000000000   0.065540000000000 1
ion O   0.591210000000000   0.449700000000000   0.046580000000000 1
ion O   0.637240000000000   0.450960000000000   0.286710000000000 1
ion O   0.833660000000000   0.063430000000000   0.201710000000000 1
ion O   0.846760000000000   0.294590000000000   0.445300000000000 1
ion O   0.899900000000000   0.061650000000000   0.441450000000000 1
ion O   0.598990000000000   0.182360000000000   0.318430000000000 1
ion O   0.891860000000000   0.303560000000000   0.679380000000000 1
ion O   0.650260000000000   0.185380000000000   0.577780000000000 1
ion O   0.599240000000000   0.455970000000000   0.535390000000000 1
ion O   0.656860000000000   0.453780000000000   0.790840000000000 1
ion O   0.848850000000000   0.049800000000000   0.700190000000000 1
ion O   0.867980000000000   0.307490000000000   0.922870000000000 1
ion O   0.908310000000000   0.051910000000000   0.961560000000000 1
ion O   0.592590000000000   0.184000000000000   0.829950000000000 1
ion O   0.877890000000000   0.802610000000000   0.194210000000000 1
ion O   0.659610000000000   0.688370000000000   0.076010000000000 1
ion O   0.596960000000000   0.940000000000000   0.051040000000000 1
ion O   0.655660000000000   0.937690000000000   0.306890000000000 1
ion O   0.856320000000000   0.536400000000000   0.205500000000000 1
ion O   0.861090000000000   0.811020000000000   0.444510000000000 1
ion O   0.919770000000000   0.570670000000000   0.450980000000000 1
ion O   0.592930000000000   0.699680000000000   0.289560000000000 1
ion O   0.892260000000000   0.813870000000000   0.708530000000000 1
ion O   0.627150000000000   0.687710000000000   0.550310000000000 1
ion O   0.596090000000000   0.958800000000000   0.541720000000000 1
ion O   0.661880000000000   0.936400000000000   0.802100000000000 1
ion O   0.841260000000000   0.538000000000000   0.705940000000000 1
ion O   0.849480000000000   0.807650000000000   0.954680000000000 1
ion O   0.911040000000000   0.557220000000000   0.982500000000000 1
ion O   0.604060000000000   0.685190000000000   0.812270000000000 1
ion Tc   0.233270000000000   0.372470000000000   0.114190000000000 1
ion Tc   0.492250000000000   0.136460000000000   0.139240000000000 1
ion Tc  -0.003340000000000   0.360920000000000   0.356220000000000 1
ion Tc   0.255330000000000   0.137120000000000   0.382020000000000 1
ion Tc   0.215830000000000   0.364890000000000   0.615980000000000 1
ion Tc   0.507330000000000   0.125930000000000   0.632630000000000 1
ion Tc   0.004890000000000   0.393950000000000   0.855900000000000 1
ion Tc   0.244780000000000   0.129590000000000   0.889900000000000 1
ion Tc   0.253080000000000   0.860490000000000   0.106290000000000 1
ion Tc   0.496070000000000   0.619870000000000   0.126160000000000 1
ion Tc   0.006740000000000   0.863650000000000   0.365180000000000 1
ion Tc   0.240300000000000   0.625500000000000   0.396110000000000 1
ion Tc   0.259020000000000   0.872960000000000   0.605260000000000 1
ion Tc   0.492410000000000   0.640360000000000   0.646740000000000 1
ion Tc  -0.009710000000000   0.856520000000000   0.869780000000000 1
ion Tc   0.268550000000000   0.635330000000000   0.885690000000000 1
ion Tc   0.738210000000000   0.369880000000000   0.111870000000000 1
ion Tc   0.993480000000000   0.137070000000000   0.141490000000000 1
ion Tc   0.515720000000000   0.376100000000000   0.342950000000000 1
ion Tc   0.746310000000000   0.131380000000000   0.380350000000000 1
ion Tc   0.765760000000000   0.352130000000000   0.611370000000000 1
ion Tc   1.003080000000000   0.151600000000000   0.633000000000000 1
ion Tc   0.500130000000000   0.365280000000000   0.853680000000000 1
ion Tc   0.752190000000000   0.140610000000000   0.894150000000000 1
ion Tc   0.738160000000000   0.854900000000000   0.117160000000000 1
ion Tc   0.999100000000000   0.638160000000000   0.135060000000000 1
ion Tc   0.507480000000000   0.864580000000000   0.374130000000000 1
ion Tc   0.748250000000000   0.657060000000000   0.397270000000000 1
ion Tc   0.741210000000000   0.859750000000000   0.601340000000000 1
ion Tc   1.004090000000000   0.629230000000000   0.628170000000000 1
ion Tc   0.504770000000000   0.876610000000000   0.854050000000000 1
ion Tc   0.764540000000000   0.629530000000000   0.889530000000000 1

# Forces in Lattice coordinates:
force O  -0.019327466034637   0.641764977562572  -0.705557990875482 1
force O   0.623501498312877  -1.550256365397430   0.996745750699548 1
force O  -0.527928365173133  -0.848455850407005  -0.042366678275816 1
force O   0.402721993013764   0.259322416304957  -1.028275942498194 1
force O   0.392064126465511   0.135871269644907  -0.806483371795611 1
force O   0.131039109736662  -0.502902899310332   0.604154316397437 1
force O   0.356563925145916  -0.874904973545104   1.257338647929896 1
force O  -1.263143097035321   1.218359512865028  -0.822449511495641 1
force O  -2.181416022291197  -3.053449654142912   1.645719473874207 1
force O  -0.819537007088912   1.053420622068460  -1.254499257185198 1
force O   2.284532465646652   2.048959039352420  -1.801051067203661 1
force O  -0.161648906558853   0.164252935583157  -0.284013950767443 1
force O   0.055109353456944   0.811211983199345  -0.461860148851087 1
force O  -0.973397997749980   0.434708397402124  -1.418559702892261 1
force O   0.020571793972891   0.938609406057727  -0.764525979057709 1
force O  -0.441469125136217   0.534501109171208  -0.657336937952780 1
force O   1.953844030409819   2.759146922527735  -2.646137229944412 1
force O   0.334124004674671  -0.556615895518896   1.163478994832381 1
force O   1.290388384151392   1.948677254465114  -1.965254908894374 1
force O   0.049094764210738  -0.111462238859217   0.201142045204591 1
force O  -0.272490040350505   0.038537708400614   0.246503503267087 1
force O  -0.418180603272722   0.140322413815975  -0.035125258630591 1
force O   0.463590090870439  -1.202664877873128   2.042660278778536 1
force O  -0.086564581597611   0.634691693972073   0.196555373946428 1
force O   0.540237909492182   0.287564362938746   0.227984302119796 1
force O   0.491560578099522   0.244116230245499   1.009072443643214 1
force O   0.216990585050373  -0.807437700632764   0.012278163106952 1
force O   0.610313790994082   0.232037287444661  -0.389535757720738 1
force O   0.402143116468721   0.939266727722772  -0.499658655196907 1
force O  -0.184257475198885   0.165584260894172  -1.249456625640216 1
force O   0.785863421674074  -0.889794003794728   0.569031951825652 1
force O  -2.155607611133014   1.564685622453657  -2.566580111713487 1
force O   0.296978074252340   0.111780889568613  -0.045283802866610 1
force O   0.556428764319322  -0.756602068839991   0.089448720375102 1
force O   1.228201061434840   1.161664166140276  -1.040331888258852 1
force O   0.177328631597795  -0.268455277956490   0.093967667564091 1
force O   1.409715914225081   1.629963471608354  -1.968780489864061 1
force O   0.500536280938531  -0.609623163925201   0.805353807973510 1
force O  -1.060324989296733   1.404337132472550  -1.287261461315302 1
force O   1.780005392871792  -1.123376320899433   1.802052140435749 1
force O   1.257786119796507   1.439138262906467  -1.511937190431052 1
force O  -0.092854543975969  -0.434216218729582   0.277191670667164 1
force O  -0.181573426936254  -0.854646707855460   0.502003623585455 1
force O  -0.238579851406385   0.110168421164539   0.099129869659617 1
force O  -0.990045294825956  -0.836176641438651   0.976617038069540 1
force O  -0.368410078496775   0.346423979843861  -0.396486856200982 1
force O  -0.175989453490364   0.796822525455888  -1.092362174735747 1
force O   1.000314088926558  -0.421128170609740   0.537265492423033 1
force O  -0.457165849494346  -0.466061091124451  -0.693684257298607 1
force O  -0.120912097891780   0.147900552596600  -0.256087084730720 1
force O   0.038703765453472   0.427315275361484  -0.540758856000822 1
force O  -0.295674645736448   0.678123718508736  -0.014246587982995 1
force O  -0.146162935124601   0.158293846720555   0.013968904587074 1
force O  -0.703850909349388  -0.473285669034012  -0.096101215555911 1
force O   1.794507398149181  -1.843570320934424   2.038467869540191 1
force O  -0.509706308438393  -0.103714450795713  -1.042346039408296 1
force O   0.540102061180389   0.896881653843158  -0.306587597824962 1
force O   1.023922686905253  -1.910063045240254   1.194907167115768 1
force O   0.233710227365283   0.717910497217046  -0.709774699951436 1
force O   0.731110843618388   0.858134990559102  -0.670337099936774 1
force O   0.446879598089862   0.138363576753420  -0.331222757710275 1
force O  -2.055948716080068   1.154039096580076  -3.037770021168748 1
force O  -0.164639994368466   0.668722376984053  -0.384066341270699 1
force Tc   0.592420779838392  -0.243697910001612  -0.437306515781402 1
force Tc   0.269458928298044  -0.634102401286461   1.663049421770741 1
force Tc   0.935138829408227   0.459052513845623   2.078026769516982 1
force Tc   0.564945578223713  -0.111876388723306  -0.293828704801076 1
force Tc   3.013557511999795   1.923603888305816   0.059833591463567 1
force Tc  -1.317530771470455  -0.065731775098047   1.439479414301107 1
force Tc  -1.641790329148037  -4.057803530141329   3.121987657619415 1
force Tc   0.006216196798015   0.222306763858314   0.187130299826572 1
force Tc  -0.313954324314842  -0.445189556964489   0.988257934927590 1
force Tc  -0.847014346497554  -0.033019433597922   0.318320858473056 1
force Tc  -0.991779915954876   0.360546112032121  -0.741316744162209 1
force Tc   1.157810910176696   1.481906062655912  -1.485446383220288 1
force Tc  -1.141638588663742  -0.496254351728967   0.578889440494640 1
force Tc   0.322628219910062  -1.584129907503180   0.034597990851807 1
force Tc   0.077973127974995   1.504724471054905  -0.957196791858586 1
force Tc  -1.527784195564647  -0.996080309296256   1.043151060100703 1
force Tc   1.031647469909854   0.406339148773529  -0.821719183382159 1
force Tc   0.409890549444040  -1.364819225331647  -0.086061645759632 1
force Tc  -1.578397928106190  -1.905533336446678   2.473173863400094 1
force Tc   0.074585522291848  -1.839685156222962   1.391442369877964 1
force Tc  -4.062371888643558   2.012680388719164  -1.118155123240486 1
force Tc   0.101315377988405  -2.466451641147188   0.801822927005922 1
force Tc   0.391795719847652  -0.762088739497284   1.173797257688447 1
force Tc   0.854130936939167  -0.214221987785912  -0.277166119723496 1
force Tc  -0.311346608003631   1.730320232185731  -0.502154884700363 1
force Tc  -0.656595812945393  -0.799302613498801   3.190154768619245 1
force Tc  -1.263849095006549   1.804960689030510  -1.653315046785226 1
force Tc  -0.089627360941997  -2.073127819740489  -0.708558002983454 1
force Tc   0.430097046384213   0.792052905340683   1.568467928561079 1
force Tc  -0.996106084682728   0.052268623291410   0.993430623069962 1
force Tc   0.176161303292415  -1.705392731215514   1.709318823456365 1
force Tc  -1.253702650312128  -0.491843276891424   0.500328397472028 1

# Energy components:
   Eewald =    -2738.7878703102028339
       EH =      821.8501816467119170
     Eloc =    -3019.4567244080058117
      Enl =      707.5396886094132469
      Exc =     -736.6947833143656226
 Exc_core =      200.4872980612002493
       KE =     1164.0851347670634368
-------------------------------------
     Etot =    -3600.9770749481867824
       TS =        0.4664385254173083
-------------------------------------
        F =    -3601.4435134736040709

IonicMinimize: Iter:   0  F: -3601.443513473604071  |grad|_K:  5.359e-02  t[s]:   9626.28

#--- Lowdin population analysis ---
# oxidation-state O -0.199 -0.218 -0.190 -0.213 -0.220 -0.274 -0.162 -0.186 -0.064 -0.193 -0.131 -0.263 -0.200 -0.189 -0.189 -0.216 -0.136 -0.258 -0.222 -0.258 -0.174 -0.235 -0.210 -0.148 -0.109 -0.229 -0.277 -0.247 -0.142 -0.198 -0.201 -0.092 -0.163 -0.206 -0.122 -0.267 -0.151 -0.292 -0.176 -0.024 -0.152 -0.308 -0.265 -0.291 -0.252 -0.263 -0.178 -0.195 -0.165 -0.266 -0.270 -0.307 -0.135 -0.269 -0.139 -0.202 -0.158 -0.171 -0.217 -0.259 -0.139 -0.149 -0.196
# oxidation-state Tc +0.406 +0.345 +0.428 +0.467 +0.460 +0.470 +0.455 +0.482 +0.403 +0.489 +0.492 +0.460 +0.437 +0.475 +0.527 +0.428 +0.419 +0.486 +0.403 +0.474 +0.485 +0.383 +0.446 +0.460 +0.485 +0.510 +0.504 +0.440 +0.440 +0.427 +0.452 +0.430


-------- Electronic minimization -----------
Will mix electronic density at each iteration.
	FillingsUpdate:  mu: +0.511083403  nElectrons: 858.000000
	FillingsUpdate:  mu: +0.511559435  nElectrons: 858.000000
SCF: Cycle:  0   F: -3588.239472769176245   dF: +1.120e+01   |Residual|: 1.570e+00   |deigs|: 4.941e-03  t[s]:  10186.66
	FillingsUpdate:  mu: +0.507726706  nElectrons: 858.000000
SCF: Cycle:  1   F: -3568.155258834934102   dF: +2.008e+01   |Residual|: 2.394e+00   |deigs|: 2.826e-02  t[s]:  10584.97
	FillingsUpdate:  mu: +0.511171469  nElectrons: 858.000000
SCF: Cycle:  2   F: -3598.919310567176126   dF: -3.076e+01   |Residual|: 7.401e-01   |deigs|: 3.093e-02  t[s]:  10977.93
	FillingsUpdate:  mu: +0.510461483  nElectrons: 858.000000
SCF: Cycle:  3   F: -3598.972669066499748   dF: -5.336e-02   |Residual|: 6.738e-01   |deigs|: 3.286e-03  t[s]:  11372.57
	FillingsUpdate:  mu: +0.510310452  nElectrons: 858.000000
SCF: Cycle:  4   F: -3600.891910195684432   dF: -1.919e+00   |Residual|: 3.938e-01   |deigs|: 3.075e-03  t[s]:  11773.05
	FillingsUpdate:  mu: +0.509886335  nElectrons: 858.000000
SCF: Cycle:  5   F: -3601.537532848836236   dF: -6.456e-01   |Residual|: 1.837e-01   |deigs|: 1.962e-03  t[s]:  12173.51
	FillingsUpdate:  mu: +0.509747695  nElectrons: 858.000000
SCF: Cycle:  6   F: -3601.667455276948658   dF: -1.299e-01   |Residual|: 1.110e-01   |deigs|: 1.221e-03  t[s]:  12573.16
	FillingsUpdate:  mu: +0.509812382  nElectrons: 858.000000
SCF: Cycle:  7   F: -3601.701451899109998   dF: -3.400e-02   |Residual|: 7.160e-02   |deigs|: 5.640e-04  t[s]:  12963.75
	FillingsUpdate:  mu: +0.509700419  nElectrons: 858.000000
SCF: Cycle:  8   F: -3601.725738668098984   dF: -2.429e-02   |Residual|: 3.366e-02   |deigs|: 4.718e-04  t[s]:  13246.82
	FillingsUpdate:  mu: +0.509674923  nElectrons: 858.000000
SCF: Cycle:  9   F: -3601.730361941465617   dF: -4.623e-03   |Residual|: 1.819e-02   |deigs|: 2.726e-04  t[s]:  13492.27
	FillingsUpdate:  mu: +0.509638938  nElectrons: 858.000000
SCF: Cycle: 10   F: -3601.730596557700665   dF: -2.346e-04   |Residual|: 1.482e-02   |deigs|: 2.162e-04  t[s]:  13738.89
	FillingsUpdate:  mu: +0.509652460  nElectrons: 858.000000
SCF: Cycle: 11   F: -3601.731827757979318   dF: -1.231e-03   |Residual|: 5.705e-03   |deigs|: 1.278e-04  t[s]:  13984.78
	FillingsUpdate:  mu: +0.509653473  nElectrons: 858.000000
SCF: Cycle: 12   F: -3601.731779021667535   dF: +4.874e-05   |Residual|: 5.872e-03   |deigs|: 8.676e-05  t[s]:  14229.68
	FillingsUpdate:  mu: +0.509649779  nElectrons: 858.000000
SCF: Cycle: 13   F: -3601.731910605482881   dF: -1.316e-04   |Residual|: 3.428e-03   |deigs|: 6.498e-05  t[s]:  14475.90
	FillingsUpdate:  mu: +0.509647091  nElectrons: 858.000000
SCF: Cycle: 14   F: -3601.731937983015087   dF: -2.738e-05   |Residual|: 2.032e-03   |deigs|: 3.608e-05  t[s]:  14722.51
	FillingsUpdate:  mu: +0.509644046  nElectrons: 858.000000
SCF: Cycle: 15   F: -3601.731946373439314   dF: -8.390e-06   |Residual|: 1.752e-03   |deigs|: 2.494e-05  t[s]:  14967.86
	FillingsUpdate:  mu: +0.509642549  nElectrons: 858.000000
SCF: Cycle: 16   F: -3601.731952730156536   dF: -6.357e-06   |Residual|: 1.342e-03   |deigs|: 1.938e-05  t[s]:  15217.10
	FillingsUpdate:  mu: +0.509641658  nElectrons: 858.000000
SCF: Cycle: 17   F: -3601.731958918188411   dF: -6.188e-06   |Residual|: 8.718e-04   |deigs|: 1.422e-05  t[s]:  15466.96
	FillingsUpdate:  mu: +0.509641886  nElectrons: 858.000000
SCF: Cycle: 18   F: -3601.731962363786351   dF: -3.446e-06   |Residual|: 4.313e-04   |deigs|: 9.543e-06  t[s]:  15713.59
	FillingsUpdate:  mu: +0.509640862  nElectrons: 858.000000
SCF: Cycle: 19   F: -3601.731962051033406   dF: +3.128e-07   |Residual|: 4.491e-04   |deigs|: 6.429e-06  t[s]:  15961.95
	FillingsUpdate:  mu: +0.509640825  nElectrons: 858.000000
SCF: Cycle: 20   F: -3601.731963113988968   dF: -1.063e-06   |Residual|: 2.130e-04   |deigs|: 5.189e-06  t[s]:  16214.20
	FillingsUpdate:  mu: +0.509640506  nElectrons: 858.000000
SCF: Cycle: 21   F: -3601.731963242407346   dF: -1.284e-07   |Residual|: 1.271e-04   |deigs|: 2.477e-06  t[s]:  16459.69
	FillingsUpdate:  mu: +0.509640566  nElectrons: 858.000000
SCF: Cycle: 22   F: -3601.731963304167493   dF: -6.176e-08   |Residual|: 9.064e-05   |deigs|: 1.851e-06  t[s]:  16710.22
	FillingsUpdate:  mu: +0.509640400  nElectrons: 858.000000
SCF: Cycle: 23   F: -3601.731963329342307   dF: -2.517e-08   |Residual|: 5.813e-05   |deigs|: 1.067e-06  t[s]:  16956.36
	FillingsUpdate:  mu: +0.509640363  nElectrons: 858.000000
SCF: Cycle: 24   F: -3601.731963341989740   dF: -1.265e-08   |Residual|: 3.316e-05   |deigs|: 7.653e-07  t[s]:  17203.84
	FillingsUpdate:  mu: +0.509640390  nElectrons: 858.000000
SCF: Cycle: 25   F: -3601.731963340724178   dF: +1.266e-09   |Residual|: 3.306e-05   |deigs|: 4.776e-07  t[s]:  17450.38
	FillingsUpdate:  mu: +0.509640388  nElectrons: 858.000000
SCF: Cycle: 26   F: -3601.731963345238455   dF: -4.514e-09   |Residual|: 1.961e-05   |deigs|: 4.243e-07  t[s]:  17700.20
	FillingsUpdate:  mu: +0.509640361  nElectrons: 858.000000
SCF: Cycle: 27   F: -3601.731963344740052   dF: +4.984e-10   |Residual|: 2.166e-05   |deigs|: 3.415e-07  t[s]:  17933.65
	FillingsUpdate:  mu: +0.509640349  nElectrons: 858.000000
SCF: Cycle: 28   F: -3601.731963346377142   dF: -1.637e-09   |Residual|: 1.284e-05   |deigs|: 2.789e-07  t[s]:  18144.04
	FillingsUpdate:  mu: +0.509640357  nElectrons: 858.000000
SCF: Cycle: 29   F: -3601.731963347162491   dF: -7.853e-10   |Residual|: 8.312e-06   |deigs|: 1.947e-07  t[s]:  18329.95
SCF: Converged (|Delta E|<1.000000e-08 for 2 iters).

Setting wave functions to eigenvectors of Hamiltonian

# Ionic positions in lattice coordinates:
ion O   0.157728871115936   0.189231153151598   0.076030321258829 1
ion O   0.095084044238169   0.462107639433981   0.032334033458172 1
ion O   0.151381700602720   0.454885307722299   0.304873044021074 1
ion O   0.342587612059366   0.050071518861564   0.209688537050837 1
ion O   0.346374244175602   0.317149416945535   0.465755879815075 1
ion O   0.404917145713016   0.061731634153253   0.448578180036626 1
ion O   0.116379616596098   0.201186007892188   0.295624316372282 1
ion O   0.397450720349450   0.286451505382416   0.691030940281085 1
ion O   0.137900232335231   0.203007161005796   0.535101859261705 1
ion O   0.086236471968617   0.443468354619620   0.558455130922598 1
ion O   0.130665035498876   0.455715955076038   0.792710134850125 1
ion O   0.358950553646869   0.048025894691308   0.711720816342069 1
ion O   0.361802097712800   0.291697797490795   0.949748772787278 1
ion O   0.412463748102878   0.055678177111226   0.969696477714627 1
ion O   0.103338854903656   0.192486682089187   0.809095027414932 1
ion O   0.400640043027064   0.799365937552520   0.199955383257406 1
ion O   0.146880835495898   0.679679592478321   0.071581000114531 1
ion O   0.101191509399781   0.944507541399311   0.028549187197115 1
ion O   0.142609665518388   0.931583004316634   0.306630004712885 1
ion O   0.341964520397820   0.544800460612100   0.197919093013069 1
ion O   0.368601659017278   0.787994755851438   0.437693808084724 1
ion O   0.405369171171514   0.545954185980730   0.447570512801974 1
ion O   0.120223630495974   0.698194286359894   0.290488155284358 1
ion O   0.385734568406601   0.795889364562717   0.681187700277073 1
ion O   0.131729778370835   0.700094650811114   0.554509377248033 1
ion O   0.102048736186292   0.935695396887472   0.529297314495229 1
ion O   0.139944870824192   0.962779043967709   0.796354129730320 1
ion O   0.329637614842674   0.557047700645399   0.703672252250551 1
ion O   0.365736835503517   0.798705177783813   0.940478821170299 1
ion O   0.393422310062840   0.552772814160773   0.962782693980080 1
ion O   0.102597465092417   0.699247652788206   0.808034915932960 1
ion O   0.905002849677372   0.305465623994500   0.199857401860874 1
ion O   0.640305066222376   0.198332493313604   0.065551058575659 1
ion O   0.591910085051581   0.448808452996880   0.046238599466196 1
ion O   0.638781696476179   0.451790977441841   0.286130926214904 1
ion O   0.833885172233520   0.063150638110946   0.201664749897707 1
ion O   0.848529153739510   0.295452964397818   0.443865954568554 1
ion O   0.900530007277975   0.061368158046141   0.442070305464492 1
ion O   0.597664830321655   0.183347001019557   0.317694050179750 1
ion O   0.894092749447055   0.303230030570314   0.680911439494993 1
ion O   0.651838793304664   0.186276671673668   0.576790224038612 1
ion O   0.599126695357206   0.455592751743358   0.535469829458039 1
ion O   0.656635542233857   0.453011645828740   0.790944069163216 1
ion O   0.848554150131878   0.049996458283657   0.700376488012371 1
ion O   0.866742714132071   0.307027261842182   0.923564688215040 1
ion O   0.907851546638678   0.052106395453577   0.961281940068910 1
ion O   0.592372647058513   0.184344486247687   0.829090309712863 1
ion O   0.879146108672077   0.802403905836570   0.194615112031415 1
ion O   0.659040394628163   0.687375017761305   0.074885349996349 1
ion O   0.596811583403807   0.940032102234537   0.050815180116735 1
ion O   0.655711557224138   0.937901502346170   0.306483890015893 1
ion O   0.855952628601573   0.537238101781542   0.205886159584906 1
ion O   0.860909929037809   0.811225847941780   0.444621138947619 1
ion O   0.918891318625680   0.570021750817640   0.450580786946885 1
ion O   0.595180905961377   0.698591552604935   0.290951386448788 1
ion O   0.891624600090486   0.813119873344689   0.707195308664238 1
ion O   0.627829644280417   0.688647193153584   0.550469339446931 1
ion O   0.597375648296309   0.957126355722422   0.542041780239006 1
ion O   0.662175856011211   0.936873713547444   0.801660482172724 1
ion O   0.842178954987607   0.538672266761803   0.705632077334062 1
ion O   0.850042873889269   0.807625458170897   0.954357707037174 1
ion O   0.908467737820459   0.556852391076318   0.979477552285727 1
ion O   0.603856808625816   0.685796202387787   0.812198959608953 1
ion Tc   0.234015209617023   0.371905268779600   0.113510707528913 1
ion Tc   0.492590462390612   0.136658196159043   0.140893096601382 1
ion Tc  -0.002165673994424   0.362730121755273   0.359030549696937 1
ion Tc   0.256040777569461   0.136805273395849   0.381594388114937 1
ion Tc   0.219608149997533   0.367327243873965   0.617197804200573 1
ion Tc   0.505682419253921   0.126704777016659   0.634348581032348 1
ion Tc   0.002836124489038   0.390741983794244   0.857296601360094 1
ion Tc   0.244790802597145   0.129978856996411   0.890260684440257 1
ion Tc   0.252689661357867   0.860522362191006   0.107231608721231 1
ion Tc   0.495011935716563   0.620018172065194   0.126528953071927 1
ion Tc   0.005500666436334   0.863658753086896   0.364489320944840 1
ion Tc   0.241753549637260   0.626465842303227   0.395178040849089 1
ion Tc   0.257592838357666   0.872684910399657   0.605671390371622 1
ion Tc   0.492817212934472   0.638402567733725   0.645838999229034 1
ion Tc  -0.009609228507394   0.857828821342842   0.869506766595852 1
ion Tc   0.266639074171398   0.634707224658165   0.886370784582993 1
ion Tc   0.739505461216380   0.369898039759710   0.111108236775482 1
ion Tc   0.993996535380830   0.135314563013977   0.140572211867051 1
ion Tc   0.513745563953684   0.375193015368372   0.344835599779781 1
ion Tc   0.746406377379493   0.129911240230323   0.380953746760125 1
ion Tc   0.760674083667497   0.353977274569930   0.611202949284517 1
ion Tc   1.003209918119246   0.148997662219471   0.632510627437591 1
ion Tc   0.500623757609129   0.365027134051975   0.854659461100172 1
ion Tc   0.753263045866859   0.140177402694351   0.893683783563183 1
ion Tc   0.737773022881744   0.856761393982708   0.117576757591165 1
ion Tc   0.998280252332322   0.639061051445760   0.138479597389299 1
ion Tc   0.505899896435892   0.865849296627838   0.373185570595961 1
ion Tc   0.748140838477994   0.654049607465600   0.395170445624219 1
ion Tc   0.741751687288597   0.861672557213671   0.603726601097073 1
ion Tc   1.002845109412392   0.629886566210353   0.629414125348469 1
ion Tc   0.504993595894932   0.875498150618093   0.855121848640893 1
ion Tc   0.762972459765875   0.629213650737266   0.889848093395479 1

# Forces in Lattice coordinates:
force O  -0.082019295788480   0.575755226367645  -0.646742503846665 1
force O   0.501861026394085  -1.264331901058493   0.973796875620445 1
force O  -0.385097691437824  -0.643892657288037  -0.074972279118352 1
force O   0.365665047574844   0.235692285507397  -0.907590734017703 1
force O   0.449258464160975   0.181614947016230  -0.878302956551725 1
force O   0.131616544238216  -0.497886223074004   0.578740999238609 1
force O   0.226716278884346  -0.739304825756319   1.080151268332743 1
force O  -1.123622676708771   1.163273481159131  -0.726768090030521 1
force O  -1.436438774968407  -1.979198528609112   1.396415206904773 1
force O  -0.548623052415085   0.782657564481719  -1.036706886481967 1
force O   1.331579666586080   1.080982401910535  -0.769098474051140 1
force O  -0.199120085117095   0.158260975427983  -0.270105285174195 1
force O   0.051676231600420   0.779782789506015  -0.462768001148238 1
force O  -0.794571308903921   0.372654508826009  -1.132293959462035 1
force O   0.007825656017707   0.883670723372108  -0.700828097410243 1
force O  -0.459879097351320   0.537169944615319  -0.681953508704593 1
force O   1.303183792714877   2.206106028510515  -2.071358362019065 1
force O   0.271123222790880  -0.516203415611881   1.080993045777471 1
force O   1.085078733039551   1.664441169499627  -1.724462002301444 1
force O   0.046448006701465  -0.102633519961738   0.204618095415642 1
force O  -0.214769565285738   0.149247348813580   0.163048668375805 1
force O  -0.362912049922455   0.118450964053746  -0.010287218484115 1
force O   0.374028829600631  -1.024980453627054   1.797207060214894 1
force O   0.032293728122108   0.441618554984444   0.281285032419801 1
force O   0.459402899786713   0.186625770114106   0.229502547064795 1
force O   0.367874047356461   0.295763720598271   0.778883121340333 1
force O   0.208419427608357  -0.732682308983611   0.018784683149931 1
force O   0.561613486976770   0.150272932978550  -0.266220138859213 1
force O   0.248448242488150   0.702585498720897  -0.383743924559352 1
force O  -0.081227574518494   0.100362988104843  -1.073318756902869 1
force O   0.610743664559217  -0.679573377557421   0.487642564045407 1
force O  -1.504299188009715   1.071663652525130  -1.729192437050097 1
force O   0.271261378592720   0.114871406372324  -0.057257722664404 1
force O   0.464746541364596  -0.607884991822566   0.029092529462485 1
force O   0.809936154082827   0.679988364502827  -0.587581472915822 1
force O   0.147946095169874  -0.316175278876223   0.123252690357958 1
force O   1.034824560875740   1.251822185569291  -1.458935079173519 1
force O   0.457202796581138  -0.628647347885541   0.761090193896435 1
force O  -0.787084627592602   1.190993469659972  -1.040270201614769 1
force O   0.763307127595096  -0.301057741812163   0.846536318845090 1
force O   0.807619716782492   1.083860232214867  -1.193492503178558 1
force O  -0.021931133602138  -0.506005589924556   0.379288675269092 1
force O  -0.191796130649803  -0.795499599085994   0.482556444947615 1
force O  -0.197174250171308   0.118382292153474   0.101711376203451 1
force O  -0.928995783187072  -0.787767085264297   0.970901254629267 1
force O  -0.323426830201075   0.318490409702619  -0.385975102548663 1
force O  -0.086790952983643   0.727288892525765  -1.001823944165260 1
force O   0.781893270445584  -0.288742001648303   0.395817721987158 1
force O  -0.421593248847860  -0.286736143762630  -0.672329503921448 1
force O  -0.104976280814317   0.135553637433492  -0.243353218603794 1
force O   0.006401318023867   0.421018166389895  -0.496525382965946 1
force O  -0.246429952578226   0.736027702306068  -0.063428026024600 1
force O  -0.223591464476215   0.015489511718640   0.064860383494578 1
force O  -0.641043481690742  -0.488748862181115   0.009339067363854 1
force O   1.485919431207275  -1.507293647188681   1.793161331006949 1
force O  -0.481870157750262  -0.098261006072835  -0.942822644899550 1
force O   0.501268217901259   0.813145107552256  -0.233239840518664 1
force O   0.779272125681309  -1.536158877756574   1.037675372882896 1
force O   0.137411333914611   0.661567378995491  -0.617106135240179 1
force O   0.591222385587742   0.775649975623541  -0.540935701032359 1
force O   0.375547917181221   0.069670610062489  -0.307787598161041 1
force O  -1.425919072398016   1.088557640838179  -2.255952258898269 1
force O  -0.136367345095042   0.611799483485808  -0.358167891023055 1
force Tc   0.537202644699244  -0.257357143400067  -0.362623842720999 1
force Tc   0.175400274660993  -0.460904329267845   1.201858260721567 1
force Tc   0.518655838430363   0.387125233340857   1.200752961270722 1
force Tc   0.312485830498712  -0.126627638102434   0.059648430524102 1
force Tc   2.273834907093728   1.110783870407625  -0.229326595162251 1
force Tc  -0.906184755971582  -0.099207862042275   1.121200183870873 1
force Tc  -0.690101801454244  -2.988707079628762   2.021483997096051 1
force Tc   0.066857549845673   0.159143575483098   0.179277035227842 1
force Tc  -0.281026288468756  -0.454715520187779   0.851882061129236 1
force Tc  -0.632484168087732  -0.010459802701589   0.495017509798367 1
force Tc  -0.680992354604687   0.487084774890316  -0.686443914457038 1
force Tc   0.946104496768261   1.206327596608556  -1.281997792959730 1
force Tc  -1.021019015553871  -0.510804293854553   0.568676335168261 1
force Tc   0.237183239777490  -1.172727912072326  -0.102687284223805 1
force Tc   0.190058441245935   1.256071677002423  -0.914586179977267 1
force Tc  -1.456746321648197  -0.681322853207674   0.887913516144459 1
force Tc   0.901845719478213   0.220470106284635  -0.641214138843852 1
force Tc   0.283583181825173  -0.876575618254258   0.027710492886198 1
force Tc  -1.160034893095510  -1.430588823517620   1.890558054049563 1
force Tc   0.073389054353035  -1.264119021973959   1.169735160045737 1
force Tc  -2.533805158981171   1.271765010271329  -0.685628319332902 1
force Tc   0.031160100632069  -2.199644939633996   0.723759593604502 1
force Tc   0.266168702745803  -0.752611763254499   1.054180449727454 1
force Tc   0.648713564990917  -0.254717641361871  -0.226005727341803 1
force Tc  -0.165353689183524   1.381397648735407  -0.443119401101693 1
force Tc  -0.400580387070953  -0.687631775854301   1.938681996934628 1
force Tc  -1.016069683447235   1.366109911779595  -1.435489709596460 1
force Tc  -0.067045778167903  -1.684471363326709  -0.490059313937573 1
force Tc   0.431180985893847   0.538973690560545   1.212258083278705 1
force Tc  -0.862351266182714   0.095446522655927   0.888160264684130 1
force Tc   0.144572899113134  -1.522599487418341   1.513277068324432 1
force Tc  -1.062514845469053  -0.339149173340210   0.434506985630212 1

# Energy components:
   Eewald =    -2746.9332841551004094
       EH =      814.3020945434685700
     Eloc =    -3002.6184828063637724
      Enl =      707.0886706050731618
      Exc =     -736.3310389510484129
 Exc_core =      200.4872368737041484
       KE =     1162.7382222979936159
-------------------------------------
     Etot =    -3601.2665815922732691
       TS =        0.4653817548893445
-------------------------------------
        F =    -3601.7319633471624911

IonicMinimize: Iter:   1  F: -3601.731963347162491  |grad|_K:  4.027e-02  alpha:  4.073e-01  linmin: -9.832e-01  t[s]:  18383.96

#--- Lowdin population analysis ---
# oxidation-state O -0.194 -0.218 -0.199 -0.212 -0.216 -0.269 -0.165 -0.187 -0.098 -0.195 -0.169 -0.259 -0.195 -0.203 -0.189 -0.208 -0.158 -0.256 -0.235 -0.253 -0.173 -0.233 -0.197 -0.156 -0.119 -0.234 -0.277 -0.242 -0.153 -0.197 -0.201 -0.126 -0.167 -0.208 -0.147 -0.262 -0.160 -0.281 -0.181 -0.063 -0.163 -0.293 -0.256 -0.285 -0.232 -0.255 -0.179 -0.188 -0.171 -0.258 -0.260 -0.292 -0.140 -0.267 -0.153 -0.199 -0.161 -0.184 -0.221 -0.258 -0.143 -0.169 -0.195
# oxidation-state Tc +0.411 +0.351 +0.436 +0.478 +0.466 +0.470 +0.460 +0.482 +0.417 +0.491 +0.489 +0.461 +0.447 +0.475 +0.522 +0.440 +0.433 +0.490 +0.405 +0.475 +0.482 +0.413 +0.445 +0.461 +0.481 +0.502 +0.499 +0.445 +0.443 +0.436 +0.457 +0.440


-------- Electronic minimization -----------
Will mix electronic density at each iteration.
	FillingsUpdate:  mu: +0.509640357  nElectrons: 858.000000
	FillingsUpdate:  mu: +0.509065085  nElectrons: 858.000000
SCF: Cycle:  0   F: -3579.432381339416679   dF: +1.874e+01   |Residual|: 2.024e+00   |deigs|: 7.715e-03  t[s]:  18936.05
	FillingsUpdate:  mu: +0.505293146  nElectrons: 858.000000
SCF: Cycle:  1   F: -3552.527323404533036   dF: +2.691e+01   |Residual|: 2.932e+00   |deigs|: 3.359e-02  t[s]:  19333.87
	FillingsUpdate:  mu: +0.510467673  nElectrons: 858.000000
SCF: Cycle:  2   F: -3598.005246238972632   dF: -4.548e+01   |Residual|: 9.256e-01   |deigs|: 4.058e-02  t[s]:  19732.45
	FillingsUpdate:  mu: +0.509568527  nElectrons: 858.000000
SCF: Cycle:  3   F: -3598.337595922504079   dF: -3.323e-01   |Residual|: 8.438e-01   |deigs|: 4.118e-03  t[s]:  20130.93
	FillingsUpdate:  mu: +0.508791251  nElectrons: 858.000000
SCF: Cycle:  4   F: -3601.055625440725635   dF: -2.718e+00   |Residual|: 4.624e-01   |deigs|: 4.844e-03  t[s]:  20526.93
	FillingsUpdate:  mu: +0.508496946  nElectrons: 858.000000
SCF: Cycle:  5   F: -3601.775782629937567   dF: -7.202e-01   |Residual|: 2.083e-01   |deigs|: 2.520e-03  t[s]:  20930.30
	FillingsUpdate:  mu: +0.508292031  nElectrons: 858.000000
SCF: Cycle:  6   F: -3601.871911980652385   dF: -9.613e-02   |Residual|: 1.616e-01   |deigs|: 1.278e-03  t[s]:  21333.55
	FillingsUpdate:  mu: +0.508328960  nElectrons: 858.000000
SCF: Cycle:  7   F: -3601.982011555880490   dF: -1.101e-01   |Residual|: 8.367e-02   |deigs|: 6.161e-04  t[s]:  21729.41
	FillingsUpdate:  mu: +0.508226797  nElectrons: 858.000000
SCF: Cycle:  8   F: -3602.007459722015028   dF: -2.545e-02   |Residual|: 4.522e-02   |deigs|: 4.824e-04  t[s]:  22058.97
	FillingsUpdate:  mu: +0.508168554  nElectrons: 858.000000
SCF: Cycle:  9   F: -3602.015564718642963   dF: -8.105e-03   |Residual|: 2.137e-02   |deigs|: 3.228e-04  t[s]:  22307.85
	FillingsUpdate:  mu: +0.508154457  nElectrons: 858.000000
SCF: Cycle: 10   F: -3602.016362716183721   dF: -7.980e-04   |Residual|: 1.727e-02   |deigs|: 2.001e-04  t[s]:  22561.15
	FillingsUpdate:  mu: +0.508155727  nElectrons: 858.000000
SCF: Cycle: 11   F: -3602.017949644005057   dF: -1.587e-03   |Residual|: 5.955e-03   |deigs|: 1.222e-04  t[s]:  22810.46
	FillingsUpdate:  mu: +0.508164401  nElectrons: 858.000000
SCF: Cycle: 12   F: -3602.017877948638670   dF: +7.170e-05   |Residual|: 6.485e-03   |deigs|: 7.675e-05  t[s]:  23059.29
	FillingsUpdate:  mu: +0.508160936  nElectrons: 858.000000
SCF: Cycle: 13   F: -3602.018004626188485   dF: -1.267e-04   |Residual|: 4.055e-03   |deigs|: 7.303e-05  t[s]:  23309.54
	FillingsUpdate:  mu: +0.508155791  nElectrons: 858.000000
SCF: Cycle: 14   F: -3602.018060031596178   dF: -5.541e-05   |Residual|: 1.731e-03   |deigs|: 3.432e-05  t[s]:  23555.34
	FillingsUpdate:  mu: +0.508151506  nElectrons: 858.000000
SCF: Cycle: 15   F: -3602.018067783494644   dF: -7.752e-06   |Residual|: 1.323e-03   |deigs|: 2.048e-05  t[s]:  23803.58
	FillingsUpdate:  mu: +0.508149755  nElectrons: 858.000000
SCF: Cycle: 16   F: -3602.018069402752189   dF: -1.619e-06   |Residual|: 1.145e-03   |deigs|: 1.403e-05  t[s]:  24053.29
	FillingsUpdate:  mu: +0.508149156  nElectrons: 858.000000
SCF: Cycle: 17   F: -3602.018075122618029   dF: -5.720e-06   |Residual|: 4.867e-04   |deigs|: 1.043e-05  t[s]:  24303.30
	FillingsUpdate:  mu: +0.508148991  nElectrons: 858.000000
SCF: Cycle: 18   F: -3602.018074338429415   dF: +7.842e-07   |Residual|: 5.722e-04   |deigs|: 7.300e-06  t[s]:  24551.19
	FillingsUpdate:  mu: +0.508148037  nElectrons: 858.000000
SCF: Cycle: 19   F: -3602.018075945454257   dF: -1.607e-06   |Residual|: 2.206e-04   |deigs|: 5.487e-06  t[s]:  24801.26
	FillingsUpdate:  mu: +0.508147895  nElectrons: 858.000000
SCF: Cycle: 20   F: -3602.018076041833410   dF: -9.638e-08   |Residual|: 1.629e-04   |deigs|: 2.900e-06  t[s]:  25047.44
	FillingsUpdate:  mu: +0.508147541  nElectrons: 858.000000
SCF: Cycle: 21   F: -3602.018076142969221   dF: -1.011e-07   |Residual|: 9.918e-05   |deigs|: 1.601e-06  t[s]:  25296.99
	FillingsUpdate:  mu: +0.508147491  nElectrons: 858.000000
SCF: Cycle: 22   F: -3602.018076171186294   dF: -2.822e-08   |Residual|: 7.309e-05   |deigs|: 1.211e-06  t[s]:  25547.07
	FillingsUpdate:  mu: +0.508147526  nElectrons: 858.000000
SCF: Cycle: 23   F: -3602.018076198571180   dF: -2.738e-08   |Residual|: 2.675e-05   |deigs|: 6.817e-07  t[s]:  25794.89
	FillingsUpdate:  mu: +0.508147469  nElectrons: 858.000000
SCF: Cycle: 24   F: -3602.018076195577123   dF: +2.994e-09   |Residual|: 3.168e-05   |deigs|: 4.787e-07  t[s]:  26045.52
	FillingsUpdate:  mu: +0.508147431  nElectrons: 858.000000
SCF: Cycle: 25   F: -3602.018076199274219   dF: -3.697e-09   |Residual|: 1.792e-05   |deigs|: 4.042e-07  t[s]:  26289.16
	FillingsUpdate:  mu: +0.508147427  nElectrons: 858.000000
SCF: Cycle: 26   F: -3602.018076200527503   dF: -1.253e-09   |Residual|: 9.632e-06   |deigs|: 2.621e-07  t[s]:  26510.96
SCF: Converged (|Delta E|<1.000000e-08 for 2 iters).

Setting wave functions to eigenvectors of Hamiltonian

# Ionic positions in lattice coordinates:
ion O   0.157374038262523   0.189910380266699   0.075067317043997 1
ion O   0.096269703127145   0.460402699755790   0.033560367396179 1
ion O   0.150589066287496   0.453344772664645   0.303928375083726 1
ion O   0.343560769043635   0.049580788318508   0.207707651054501 1
ion O   0.347780537018770   0.316498598782020   0.463462954912994 1
ion O   0.405301446887319   0.061085624578226   0.449463913481941 1
ion O   0.116764739578452   0.200653421960934   0.297397441630052 1
ion O   0.394548168889329   0.288748817663095   0.690726162556758 1
ion O   0.135359639378345   0.201248673154311   0.536852834911179 1
ion O   0.085243357044201   0.443941104219559   0.556809010910302 1
ion O   0.132493164470284   0.456760122757576   0.793167166161253 1
ion O   0.358314392160991   0.048109478501601   0.711206774294461 1
ion O   0.361950604412495   0.293217680909324   0.949486063679290 1
ion O   0.410579668430312   0.055355719374988   0.967573627243069 1
ion O   0.103343245394058   0.193994314822757   0.808419303364879 1
ion O   0.399300828528205   0.799947617069359   0.198741715000369 1
ion O   0.149253990694809   0.682561155501495   0.069431487409835 1
ion O   0.101841421305050   0.944506116465222   0.030723985755139 1
ion O   0.145283406594152   0.933622599005296   0.304300978196775 1
ion O   0.342099665515905   0.544806286126898   0.198363242972596 1
ion O   0.368117872155598   0.788783910032310   0.438288303242055 1
ion O   0.404458460081429   0.546254383108883   0.447730271457862 1
ion O   0.121111521354646   0.697840914031995   0.293768783794421 1
ion O   0.386080837574563   0.797207142475261   0.682546536756891 1
ion O   0.132879081013517   0.700726804087205   0.555302083781803 1
ion O   0.102848626226650   0.937467658849329   0.531445385395604 1
ion O   0.140529056899608   0.960884066618112   0.795500708140717 1
ion O   0.331144568601031   0.557065151205303   0.703304238954950 1
ion O   0.366134690024012   0.799804400359122   0.940364795766417 1
ion O   0.393412787316559   0.551642451355591   0.960229652727881 1
ion O   0.103982595032294   0.698330897973777   0.808510723981478 1
ion O   0.902075529725914   0.305972460421381   0.197711627098019 1
ion O   0.641032719506787   0.198574235079821   0.065525767786338 1
ion O   0.593052217993855   0.447368440278409   0.045520496861845 1
ion O   0.640230962314658   0.452376115371532   0.285858995331377 1
ion O   0.834254043259943   0.062348985738115   0.201590488238071 1
ion O   0.850708744463281   0.296751666795422   0.442166065639705 1
ion O   0.901750586824165   0.060529640060122   0.443223534313873 1
ion O   0.595997438603717   0.185121085116959   0.316706060664327 1
ion O   0.894170630312334   0.304276227201001   0.681734376839850 1
ion O   0.653215555425421   0.187316789894390   0.575236280260294 1
ion O   0.599219343363979   0.454620756867539   0.535972634747339 1
ion O   0.656076521440873   0.451508282319387   0.791225381251874 1
ion O   0.848086707404911   0.050488192841841   0.700831709922009 1
ion O   0.864231756208921   0.306198096003819   0.925229324350407 1
ion O   0.907032058556475   0.052439356571832   0.960634673118311 1
ion O   0.592318636618151   0.184997212539784   0.827407220216004 1
ion O   0.880929027154935   0.802252564293240   0.195167196388417 1
ion O   0.657921942307684   0.686040820717554   0.072849879761108 1
ion O   0.596554046201885   0.940073170801980   0.050336024263019 1
ion O   0.655671394349460   0.938453652405932   0.305757757150538 1
ion O   0.855361161815716   0.539311022422348   0.206663282734115 1
ion O   0.860121323174489   0.811111670367221   0.444783774469354 1
ion O   0.917204167282400   0.568717578057585   0.450142264273812 1
ion O   0.598781879811161   0.697191000737927   0.293724169207282 1
ion O   0.890318521432521   0.811672797832284   0.704650745628258 1
ion O   0.629185152530512   0.690537511105646   0.550987203663066 1
ion O   0.599096730242469   0.954785736614712   0.542893164503180 1
ion O   0.662376337703150   0.937889839787385   0.800973640700869 1
ion O   0.843581535992959   0.540097468476023   0.705359379653011 1
ion O   0.850973146949149   0.807286614995228   0.953576623406649 1
ion O   0.905719680963267   0.557521577165982   0.976200787310261 1
ion O   0.603535417492513   0.686954631094967   0.812028313712812 1
ion Tc   0.235439192731919   0.370727924845644   0.112292319869224 1
ion Tc   0.492903527285281   0.136878741062543   0.142844860896868 1
ion Tc  -0.001542362207823   0.364441290186044   0.361046373820406 1
ion Tc   0.256416494168974   0.136842398090625   0.382286530099815 1
ion Tc   0.224560950555671   0.368207155592955   0.616680704451010 1
ion Tc   0.503961394424022   0.127557034660415   0.636651104500320 1
ion Tc   0.002848741025998   0.386116260949146   0.857694095160340 1
ion Tc   0.245115050708922   0.130533749816890   0.890895079234192 1
ion Tc   0.251965780960103   0.860229405202532   0.108695888551187 1
ion Tc   0.493663052106954   0.620877316296643   0.128267013545511 1
ion Tc   0.004213078609360   0.864425891064578   0.363477593705850 1
ion Tc   0.244018225563598   0.627785081287552   0.393390486353564 1
ion Tc   0.254943177863007   0.871963232577724   0.606523321466177 1
ion Tc   0.493324259348841   0.635647213789745   0.644093890212406 1
ion Tc  -0.008827498856505   0.859683836188554   0.868508529668477 1
ion Tc   0.262645920872960   0.634470246434257   0.887909515895844 1
ion Tc   0.741813520419159   0.369448749703694   0.109807211731971 1
ion Tc   0.994551079739318   0.133981676964569   0.140171908088381 1
ion Tc   0.511316083149758   0.374096332834029   0.347438838062880 1
ion Tc   0.746621117475005   0.128874058421251   0.382608228416254 1
ion Tc   0.756630443687905   0.355554792409251   0.611164292320990 1
ion Tc   1.003161779081572   0.144205996973698   0.631647219614219 1
ion Tc   0.501129965733692   0.364218090054415   0.856334576507049 1
ion Tc   0.754693707450975   0.139113943420757   0.892774356668363 1
ion Tc   0.737612716890545   0.859419488869509   0.117991443721822 1
ion Tc   0.997677569723108   0.638731049461171   0.140515111574351 1
ion Tc   0.503527798203436   0.867091721760652   0.371056896406067 1
ion Tc   0.748005132015166   0.649620537139336   0.392352921305490 1
ion Tc   0.742990020920904   0.863969084793147   0.606852843548259 1
ion Tc   1.000674413279304   0.631343565358927   0.631838323012982 1
ion Tc   0.505348097486728   0.873407273181259   0.857045634258953 1
ion Tc   0.760350702851108   0.629087908635928   0.890612186806007 1

# Forces in Lattice coordinates:
force O  -0.170334700021132   0.469484517616442  -0.540776034728601 1
force O   0.369517490423762  -1.004583998055828   0.854580739708324 1
force O  -0.207600127612698  -0.403404746351788  -0.136614201270590 1
force O   0.261317687108575   0.187882901124880  -0.642697742154674 1
force O   0.509750086757535   0.255449853077388  -0.946188520399144 1
force O   0.117330028389129  -0.473860702183992   0.525954796040925 1
force O   0.077920288409605  -0.569987561738237   0.867142848452457 1
force O  -0.843787770535284   0.948112116720529  -0.540480474649997 1
force O  -0.897020828655079  -1.353270859218295   1.175247876732974 1
force O  -0.272072544271685   0.556209859223758  -0.785055701893902 1
force O   0.972915163707066   0.640383120822530  -0.432344919340026 1
force O  -0.250135913483396   0.141942715758859  -0.236708919694507 1
force O   0.031566127714329   0.698039367645896  -0.448690338840333 1
force O  -0.571539713843497   0.280269334185484  -0.797621829331087 1
force O   0.039369599018229   0.714263099268497  -0.534511955912472 1
force O  -0.465020349407806   0.500485153342513  -0.671258601548562 1
force O   0.726034304360168   1.601621994412732  -1.462969812170024 1
force O   0.151419288489552  -0.440158390400511   0.910078257382035 1
force O   0.839648002648156   1.309636128552228  -1.406750370455877 1
force O   0.054725479681213  -0.081344765459081   0.201058721908566 1
force O  -0.155568252285379   0.277348847546071   0.066114500489776 1
force O  -0.267861590940315   0.084619522521429   0.020178342847875 1
force O   0.138211032951334  -0.714406004037120   1.329674159266694 1
force O   0.122274086179896   0.250711954356521   0.330371334659343 1
force O   0.335445411252577   0.052823200856867   0.222783587690646 1
force O   0.200111786307105   0.360401274038556   0.498800025377007 1
force O   0.181090185423389  -0.615656774150873   0.030766020365509 1
force O   0.452151839396486   0.017340235914166  -0.061769931897461 1
force O   0.034212410883108   0.389297631368703  -0.193993788542349 1
force O   0.070754140886938   0.001836530513638  -0.740828075024640 1
force O   0.388406484011041  -0.435974413325876   0.379111732378676 1
force O  -1.011956551585005   0.689753149909445  -1.161726295793246 1
force O   0.217019307889613   0.091061898200806  -0.061159506889733 1
force O   0.315984712720681  -0.393841244210050  -0.047807452009911 1
force O   0.508496985142095   0.296944177706765  -0.258958334714320 1
force O   0.108074344887505  -0.353957666928246   0.169491426841477 1
force O   0.634657955332534   0.856065392307208  -0.967386925795812 1
force O   0.371553114637021  -0.604812404141225   0.654592566795029 1
force O  -0.442389692990179   0.889715296237229  -0.685226533568328 1
force O   0.598130210981827  -0.337359911312423   0.653579137926775 1
force O   0.377885256862431   0.701059452111027  -0.857513882633759 1
force O   0.034814023546820  -0.533390405514926   0.445276032357335 1
force O  -0.188177118933490  -0.691735234978460   0.436053319465738 1
force O  -0.129103012529844   0.125826869285810   0.095309915672953 1
force O  -0.742544800015359  -0.613023168526746   0.847358371033418 1
force O  -0.249775756850061   0.281417409861817  -0.337477144220593 1
force O   0.045888267359733   0.596878375439242  -0.834498894914796 1
force O   0.532211531651640  -0.128776627510815   0.213540833278230 1
force O  -0.403706337051079  -0.083845314549869  -0.577918023602343 1
force O  -0.076266410190278   0.116672369486715  -0.218753139053889 1
force O  -0.038788173873316   0.403932567487933  -0.427499674402591 1
force O  -0.186207916165629   0.732052361887810  -0.138472572882444 1
force O  -0.192954183020190  -0.060573079036557   0.030842171915429 1
force O  -0.547056677199599  -0.504395236661436   0.159230217071242 1
force O   1.057802909105876  -1.079530566025046   1.401535116332701 1
force O  -0.406677716402208  -0.097077016711443  -0.764718986045532 1
force O   0.415655994471417   0.626325825559999  -0.111611813203480 1
force O   0.443639791970678  -1.079571305623241   0.746726642973867 1
force O   0.004254647766742   0.556048311672765  -0.465919294820166 1
force O   0.410937366764752   0.672520030477894  -0.388262151406376 1
force O   0.293098128922743   0.019560976939453  -0.296439860457593 1
force O  -0.863659174509532   0.782684299895982  -1.643827081987553 1
force O  -0.073584479857265   0.490788557768886  -0.294802369721544 1
force Tc   0.463952480694747  -0.270112652688893  -0.225441650992181 1
force Tc   0.064594984875979  -0.231040332143455   0.640115485953256 1
force Tc   0.286956387229543   0.306049782478581   0.607043575297252 1
force Tc   0.112545169209778  -0.168529386631087   0.231698090915636 1
force Tc   1.644426903278762   0.722875032965467  -0.329945130031844 1
force Tc  -0.602740894229063  -0.067232521255358   0.775151103481724 1
force Tc  -0.462294411946554  -2.202301134578089   1.383757348618152 1
force Tc   0.158618414796875   0.083079556254253   0.130445032392942 1
force Tc  -0.198789897739187  -0.279546738276674   0.587482236134687 1
force Tc  -0.345335364196243   0.023383624952581   0.576315696533974 1
force Tc  -0.377107433777259   0.450460933975296  -0.517626760399919 1
force Tc   0.665021535503528   0.819469720180031  -0.916126827376572 1
force Tc  -0.791622687940047  -0.511420726952923   0.544194882620323 1
force Tc   0.147180215005407  -0.700727931860768  -0.198966903867615 1
force Tc   0.283368330505797   0.948081463829702  -0.771124176682391 1
force Tc  -1.121900221488588  -0.302472621519402   0.531385629034020 1
force Tc   0.705616482485960   0.042457082556279  -0.402828928083144 1
force Tc   0.213185631517614  -0.528030294591306   0.102604872190348 1
force Tc  -0.792366184622198  -1.017090086735200   1.332390558195413 1
force Tc   0.055895699710567  -0.683987147859163   0.827399016217202 1
force Tc  -1.669900768072850   1.100907552782655  -0.750178201446834 1
force Tc  -0.170968781623288  -1.575788676972439   0.566239094001677 1
force Tc   0.075968413554963  -0.635374345763625   0.793259015903233 1
force Tc   0.376104259816307  -0.302880034327567  -0.108863865073624 1
force Tc   0.010782665744828   0.933347728265360  -0.387150508298282 1
force Tc  -0.109171513123316  -0.577384745284612   1.172147921650208 1
force Tc  -0.646845337590960   0.814743736292344  -1.039664341095531 1
force Tc  -0.016949737677611  -1.199208288172910  -0.235866323842504 1
force Tc   0.373440695756745   0.278032062682920   0.804836927426684 1
force Tc  -0.601802778182280   0.077506908762299   0.689078169256851 1
force Tc   0.101884063309340  -1.175257855172757   1.136820938416020 1
force Tc  -0.760144266814555  -0.162773652092465   0.297028285487005 1

# Energy components:
   Eewald =    -2755.0688383693477590
       EH =      806.5908772935136994
     Eloc =    -2985.6384652697142883
      Enl =      706.6386628574373390
      Exc =     -735.9757149604040478
 Exc_core =      200.4869985131562373
       KE =     1161.4091250219323683
-------------------------------------
     Etot =    -3601.5573549134260247
       TS =        0.4607212871014630
-------------------------------------
        F =    -3602.0180762005275028

IonicMinimize: Iter:   2  F: -3602.018076200527503  |grad|_K:  2.897e-02  alpha:  3.415e-01  linmin: -9.840e-01  t[s]:  26564.38

#--- Lowdin population analysis ---
# oxidation-state O -0.186 -0.217 -0.213 -0.218 -0.206 -0.263 -0.168 -0.194 -0.117 -0.206 -0.189 -0.255 -0.186 -0.218 -0.190 -0.193 -0.171 -0.258 -0.247 -0.245 -0.172 -0.232 -0.190 -0.166 -0.134 -0.235 -0.274 -0.244 -0.165 -0.205 -0.196 -0.150 -0.172 -0.212 -0.173 -0.258 -0.169 -0.266 -0.184 -0.092 -0.171 -0.279 -0.251 -0.275 -0.216 -0.247 -0.179 -0.183 -0.178 -0.248 -0.248 -0.276 -0.149 -0.265 -0.165 -0.192 -0.167 -0.203 -0.229 -0.262 -0.150 -0.189 -0.192
# oxidation-state Tc +0.414 +0.360 +0.448 +0.482 +0.468 +0.471 +0.464 +0.478 +0.435 +0.488 +0.482 +0.464 +0.458 +0.478 +0.512 +0.449 +0.447 +0.491 +0.406 +0.471 +0.487 +0.431 +0.448 +0.464 +0.478 +0.494 +0.490 +0.452 +0.450 +0.447 +0.463 +0.451


-------- Electronic minimization -----------
[...]
force Tc  -0.002423916735435  -0.006567439366267   0.007136394171540 1
force Tc   0.003597714692471   0.002449146719151  -0.004640026703492 1
force Tc   0.001723540296578   0.002896129458805  -0.000750294252979 1
force Tc   0.001295258793727   0.001305766098289  -0.000724305709701 1
force Tc  -0.005810317611131  -0.004991967789100   0.004784240742551 1
force Tc  -0.005313556435465  -0.006855327392884   0.005114353388867 1
force Tc   0.002513210133583  -0.002293127387937   0.002976316963169 1
force Tc   0.001784845009005   0.003298263701797  -0.005735062295230 1
force Tc   0.005052212603874   0.002240634650339  -0.002537140669022 1
force Tc   0.002437326652919   0.001244452112274   0.000224301194922 1
force Tc   0.000759830078777   0.001841137971099  -0.000744493352476 1
force Tc   0.002183827322375  -0.001684255108807   0.001227863392138 1
force Tc  -0.000774746145651  -0.001904452368443   0.001983153661813 1
force Tc  -0.000625940472324  -0.001473777455128  -0.000198593977402 1
force Tc   0.000912868906315   0.000091927257406   0.000370560714041 1
force Tc   0.000409795700812   0.000817233042227  -0.000366752209237 1
force Tc   0.004063263522736  -0.001337964208783  -0.001780806204138 1
force Tc   0.000812145172483  -0.000618260975673  -0.001572633700988 1
force Tc   0.000292514007770  -0.001116046690888  -0.002052407454048 1
force Tc   0.001442758049613  -0.000037286415118  -0.002464202877858 1
force Tc   0.003173516571221   0.000581233738923  -0.000383890679589 1
force Tc   0.004560739753798   0.001792914513838  -0.003097225868358 1
force Tc  -0.000899143070556   0.003453500541859  -0.001423584421346 1
force Tc   0.002557363607365  -0.004901453625184   0.002152000333443 1
force Tc   0.000858566411857   0.000107981228389   0.000503803213104 1

# Energy components:
   Eewald =    -2769.2764969394379477
       EH =      792.3383321496960434
     Eloc =    -2955.4075478430277144
      Enl =      705.8312376319415762
      Exc =     -735.4559833479980853
 Exc_core =      200.4853301025405301
       KE =     1159.3618463750951832
-------------------------------------
     Etot =    -3602.1232818711896471
       TS =        0.4286530431163179
-------------------------------------
        F =    -3602.5519349143060026

IonicMinimize: Iter:  18  F: -3602.551934914306003  |grad|_K:  1.182e-04  alpha:  1.000e+00  linmin: -1.868e-02  t[s]: 119196.05

#--- Lowdin population analysis ---
# oxidation-state O -0.166 -0.241 -0.241 -0.242 -0.171 -0.246 -0.173 -0.173 -0.173 -0.244 -0.245 -0.245 -0.167 -0.233 -0.176 -0.173 -0.172 -0.245 -0.244 -0.244 -0.173 -0.239 -0.172 -0.180 -0.172 -0.247 -0.246 -0.245 -0.173 -0.245 -0.173 -0.174 -0.171 -0.245 -0.242 -0.243 -0.171 -0.247 -0.178 -0.181 -0.172 -0.234 -0.245 -0.244 -0.172 -0.246 -0.171 -0.183 -0.172 -0.243 -0.245 -0.245 -0.172 -0.246 -0.171 -0.173 -0.173 -0.245 -0.245 -0.246 -0.173 -0.245 -0.169
# oxidation-state Tc +0.394 +0.375 +0.471 +0.474 +0.472 +0.473 +0.474 +0.460 +0.469 +0.471 +0.472 +0.466 +0.472 +0.468 +0.473 +0.473 +0.475 +0.472 +0.396 +0.473 +0.477 +0.473 +0.472 +0.472 +0.480 +0.473 +0.472 +0.469 +0.473 +0.472 +0.472 +0.474


-------- Electronic minimization -----------
Will mix electronic density at each iteration.
	FillingsUpdate:  mu: +0.505696592  nElectrons: 858.000000
	FillingsUpdate:  mu: +0.505689005  nElectrons: 858.000000
SCF: Cycle:  0   F: -3602.551893921436658   dF: +3.858e-05   |Residual|: 2.376e-03   |deigs|: 7.685e-08  t[s]: 119608.41
	FillingsUpdate:  mu: +0.505691995  nElectrons: 858.000000
SCF: Cycle:  1   F: -3602.551690468859761   dF: +2.035e-04   |Residual|: 5.750e-03   |deigs|: 5.370e-05  t[s]: 119854.47
	FillingsUpdate:  mu: +0.505690612  nElectrons: 858.000000
SCF: Cycle:  2   F: -3602.551939472777576   dF: -2.490e-04   |Residual|: 9.362e-04   |deigs|: 4.744e-05  t[s]: 120106.13
	FillingsUpdate:  mu: +0.505690467  nElectrons: 858.000000
SCF: Cycle:  3   F: -3602.551942461883755   dF: -2.989e-06   |Residual|: 4.103e-04   |deigs|: 6.995e-06  t[s]: 120354.73
	FillingsUpdate:  mu: +0.505690228  nElectrons: 858.000000
SCF: Cycle:  4   F: -3602.551941610015547   dF: +8.519e-07   |Residual|: 5.686e-04   |deigs|: 7.359e-06  t[s]: 120604.12
	FillingsUpdate:  mu: +0.505690628  nElectrons: 858.000000
SCF: Cycle:  5   F: -3602.551943381104593   dF: -1.771e-06   |Residual|: 1.058e-04   |deigs|: 5.118e-06  t[s]: 120851.32
	FillingsUpdate:  mu: +0.505690628  nElectrons: 858.000000
SCF: Cycle:  6   F: -3602.551943382080026   dF: -9.754e-10   |Residual|: 9.829e-05   |deigs|: 1.338e-06  t[s]: 121098.93
	FillingsUpdate:  mu: +0.505690655  nElectrons: 858.000000
SCF: Cycle:  7   F: -3602.551943429989933   dF: -4.791e-08   |Residual|: 3.505e-05   |deigs|: 7.420e-07  t[s]: 121344.56
	FillingsUpdate:  mu: +0.505690665  nElectrons: 858.000000
SCF: Cycle:  8   F: -3602.551943430647498   dF: -6.576e-10   |Residual|: 2.268e-05   |deigs|: 1.665e-07  t[s]: 121591.03
	FillingsUpdate:  mu: +0.505690669  nElectrons: 858.000000
SCF: Cycle:  9   F: -3602.551943432883945   dF: -2.236e-09   |Residual|: 1.312e-05   |deigs|: 1.972e-07  t[s]: 121823.16
SCF: Converged (|Delta E|<1.000000e-08 for 2 iters).

Setting wave functions to eigenvectors of Hamiltonian

# Ionic positions in lattice coordinates:
ion O   0.146170285918605   0.193459003179987   0.065436406708085 1
ion O   0.098608478505222   0.445855099873736   0.047334495177926 1
ion O   0.158303925369383   0.442215678250622   0.296064282038277 1
ion O   0.341859527291332   0.056511238036525   0.204830030754039 1
ion O   0.351969535466236   0.304950810644829   0.436170049456372 1
ion O   0.402540502686789   0.052908397832228   0.455482568008819 1
ion O   0.102993341245111   0.193845605203098   0.313557546849867 1
ion O   0.392105326594965   0.303535864706451   0.688990709745141 1
ion O   0.142899554027053   0.194823611820906   0.562774593309132 1
ion O   0.095028420568677   0.446057351683925   0.545619003770603 1
ion O   0.153060583891587   0.446286545874239   0.795399629096255 1
ion O   0.346484836110522   0.052614859845899   0.706133065607663 1
ion O   0.360569083009614   0.302413691226469   0.942547273183636 1
ion O   0.402009213286602   0.053439854561302   0.957023331596998 1
ion O   0.106660130658964   0.195011273728160   0.812921775416780 1
ion O   0.391945049841165   0.803854404006913   0.189191411014500 1
ion O   0.143121806632452   0.695144631853801   0.062112876832117 1
ion O   0.094814152831469   0.945632476793118   0.045199883224147 1
ion O   0.152324776281398   0.946368352791939   0.295346175987702 1
ion O   0.350792087087130   0.547233464512895   0.206988338572794 1
ion O   0.356129012031243   0.803550009742765   0.438699937731294 1
ion O   0.402087106817842   0.551238655528869   0.453430962899439 1
ion O   0.106376616300705   0.694573142072386   0.311805723648184 1
ion O   0.393219678823525   0.803189635534399   0.689041859846231 1
ion O   0.142962806773093   0.694828866779390   0.561957487030268 1
ion O   0.096061833940533   0.946206638253320   0.545283345136882 1
ion O   0.152514477193179   0.946143820383938   0.795290193666082 1
ion O   0.346051514445107   0.551980163743888   0.705247773537534 1
ion O   0.356444598099173   0.804032721502184   0.939384140823457 1
ion O   0.402046807597371   0.552080695022249   0.956015362859092 1
ion O   0.105932922354739   0.695070375096438   0.811928235588672 1
ion O   0.892589456305721   0.303758780574727   0.188743281770225 1
ion O   0.636773946608111   0.199740630959427   0.061168033801271 1
ion O   0.597876301242735   0.447538515134329   0.044075444421915 1
ion O   0.648571239012294   0.447432330382527   0.292346481358277 1
ion O   0.844531441538832   0.053030388011863   0.205316362149456 1
ion O   0.854430957946813   0.304581161790361   0.438053194398488 1
ion O   0.901198091887843   0.053396793465459   0.455513479076551 1
ion O   0.601623503532973   0.197755453152192   0.309685521416057 1
ion O   0.893034260010821   0.304599234779984   0.689939052362972 1
ion O   0.642099730198426   0.195179684842169   0.561298677517264 1
ion O   0.596574828680386   0.444885706130189   0.546052385844028 1
ion O   0.652356979381765   0.446282973599870   0.794950585140824 1
ion O   0.846117066522186   0.052461966474521   0.706241240344986 1
ion O   0.857214611876816   0.303443573486092   0.939151221391915 1
ion O   0.902382256523780   0.052846285190235   0.956108297760038 1
ion O   0.607031088135329   0.195423321360905   0.811015546496212 1
ion O   0.892152468335913   0.802984891536122   0.188347562439906 1
ion O   0.641594249892780   0.695680181168287   0.061546982057512 1
ion O   0.598983030549043   0.945166278483827   0.042747919131272 1
ion O   0.651292335122773   0.947265250086465   0.294407144342605 1
ion O   0.846943183884111   0.552594214994728   0.205722952759044 1
ion O   0.856140558874575   0.803817399974181   0.438925405567265 1
ion O   0.903029148209552   0.552426819838388   0.455078152074133 1
ion O   0.606735045681207   0.696067022195242   0.311839894162577 1
ion O   0.892584616641504   0.803693901652342   0.688639018851499 1
ion O   0.642825686213931   0.694386554559467   0.561457983434842 1
ion O   0.596109551412455   0.946468626394393   0.544917963978512 1
ion O   0.652559753618522   0.946751887864963   0.795192692385825 1
ion O   0.845985485365594   0.552552456631142   0.705700116621434 1
ion O   0.855914596766715   0.803266803950759   0.938426725313828 1
ion O   0.902965737464297   0.552137061566889   0.955856552833136 1
ion O   0.606133455523477   0.694361128643998   0.811607253721858 1
ion Tc   0.254474282223822   0.360581421667266   0.113026694720104 1
ion Tc   0.488309109368490   0.141759746212232   0.141919974135928 1
ion Tc   0.001408020081637   0.366491065785952   0.360438433193088 1
ion Tc   0.250683167975004   0.132342884359352   0.390813721822356 1
ion Tc   0.247133166523264   0.366760984736229   0.610070492470468 1
ion Tc   0.497465215828986   0.132097159638295   0.640192637980607 1
ion Tc   0.002577416930170   0.367112729367875   0.861616059654957 1
ion Tc   0.252088686364100   0.131545231954370   0.891034953974553 1
ion Tc   0.247094302081689   0.867398945783849   0.110636031395626 1
ion Tc   0.497503313660458   0.631893126703149   0.140471662656837 1
ion Tc   0.000941418855882   0.867164685674134   0.360412690228837 1
ion Tc   0.251140094584273   0.631953766191863   0.390265001430086 1
ion Tc   0.247859826815080   0.866574400195500   0.610589703057138 1
ion Tc   0.498183567712551   0.630341518915313   0.639701264664595 1
ion Tc   0.001040300414496   0.866723839798114   0.860329968055408 1
ion Tc   0.251372235431777   0.632179181659302   0.890444149735705 1
ion Tc   0.747926454465123   0.367322987224255   0.109855675888082 1
ion Tc   0.996860628907575   0.131638137687300   0.140763813813700 1
ion Tc   0.495943436581677   0.368057598368514   0.354502473028412 1
ion Tc   0.749255743817896   0.133319414845745   0.389101787944761 1
ion Tc   0.746460590156229   0.367055113091587   0.609760073237411 1
ion Tc   0.997161963870904   0.131963173150769   0.640674857336784 1
ion Tc   0.501455813901511   0.366820522277940   0.860337703608991 1
ion Tc   0.750663494653114   0.132479117761571   0.890717954625128 1
ion Tc   0.745936873331530   0.867377481006623   0.109486675405066 1
ion Tc   0.998403958376829   0.631233756553976   0.140213325689065 1
ion Tc   0.501214496207407   0.867128586443025   0.360305649224074 1
ion Tc   0.751172953619886   0.632078345211174   0.389926163559462 1
ion Tc   0.747218564984380   0.866731081788238   0.610330022510179 1
ion Tc   0.997277037806255   0.631880187919346   0.640263757506604 1
ion Tc   0.502433143827422   0.866991680542103   0.861662008070794 1
ion Tc   0.751388065998517   0.631607908522131   0.890373025331470 1

# Forces in Lattice coordinates:
force O   0.005355662505408   0.001073271276274  -0.000163369364649 1
force O   0.000219789879708   0.000561856192223  -0.002797841308037 1
force O   0.003611378721422  -0.000480378513046   0.000201605979236 1
force O  -0.000940680775102   0.001396255328774  -0.001496646647764 1
force O  -0.001153535101987   0.001423884087671  -0.004206944613650 1
force O   0.001405863940624  -0.001095435536198  -0.000606533164041 1
force O   0.001112866034896   0.001094149939028   0.000313163861836 1
force O   0.004278543891756   0.001533882846882  -0.001877072563854 1
force O   0.002569593636900   0.002390545138584   0.000572228041350 1
force O  -0.000200224333044  -0.000737578407786  -0.000859509104375 1
force O   0.002083807620500  -0.001392118417814  -0.001950806336085 1
force O   0.000668855277475  -0.001710183658020   0.000604736196505 1
force O   0.003314506125144   0.001427654711692  -0.000438149331449 1
force O   0.003542770063647   0.000682583781698  -0.000178903380565 1
force O  -0.000353097901508   0.001772084911956  -0.002357828495255 1
force O   0.002593255256424  -0.000851291090733  -0.000516683264416 1
force O   0.002046177424410  -0.002834008622411   0.001964929430381 1
force O   0.000449126335995   0.000271933358971  -0.001206111770747 1
force O   0.002963738711859  -0.000278623102226   0.000693307147793 1
force O   0.002472031774226  -0.000570654015805   0.000740193501904 1
force O   0.000657863278465   0.000395784221511  -0.001845690082234 1
force O   0.003097871542689   0.001311504655136  -0.000768622394206 1
force O   0.000967725037018   0.000371089475625  -0.001539069869769 1
force O   0.002679277070851   0.000417306666317  -0.001046756067205 1
force O  -0.000695914992496   0.001255228086396  -0.001930983968112 1
force O  -0.001764326131403   0.001789534206108  -0.000360201741186 1
force O   0.005629276116970  -0.000448175156349  -0.000855224626867 1
force O   0.001140663153711   0.001907407869712  -0.001813905906077 1
force O  -0.002824958440889  -0.000261631850440  -0.000411737312598 1
force O   0.002837200076651  -0.000288924225170   0.000417871966590 1
force O   0.001295327016916  -0.001592332595928   0.000939770988427 1
force O   0.004908637645690   0.001714412562560  -0.002556594014110 1
force O   0.004791709464219  -0.003720970975668   0.001831107921979 1
force O  -0.001028528447871  -0.002320232509546   0.002839896589224 1
force O   0.002610192708194  -0.002492024881329   0.000606223540364 1
force O   0.000822667930887   0.001427217342054  -0.001498948030732 1
force O   0.001057462530035   0.002814541113430  -0.004213632851073 1
force O   0.003082513418261   0.000140238431002  -0.001257252550325 1
force O   0.002016370698560  -0.002062768902859   0.001355678415561 1
force O   0.002659632475681   0.004141177321212  -0.005032263346957 1
force O   0.000876314566297   0.000639993409436  -0.002002589172441 1
force O  -0.000389219918949  -0.002518910676555   0.000729480436115 1
force O   0.001543133781255  -0.002515429694080   0.000523977680053 1
force O   0.001219330165315   0.001600528243030  -0.001170044204170 1
force O   0.000931985222128   0.001010107761838  -0.001619596226559 1
force O   0.001679196507563  -0.000955535740834   0.001099447647856 1
force O  -0.000193492541808  -0.003632275454520   0.000630541161898 1
force O   0.003309541155420   0.002154674657863  -0.002212929662185 1
force O   0.004867227660161  -0.000899076970690   0.002080877978776 1
force O  -0.000703495578506  -0.001377068243797   0.002580027701037 1
force O   0.004827747748222  -0.001250769208916   0.001665840669687 1
force O  -0.000565928264975   0.001874054934450  -0.000570018262372 1
force O   0.000054197572936  -0.000747138546829  -0.002185968105854 1
force O   0.003099158054073   0.001444955046787  -0.001638596184993 1
force O   0.002155855248068   0.000354240330799  -0.000407399953646 1
force O   0.004211193898890  -0.000687892294789  -0.000702072195327 1
force O   0.000671344496638  -0.001015719248083   0.001041653460536 1
force O   0.000879912908182  -0.001812136342626  -0.000977866141898 1
force O   0.002860781091914  -0.000683546388269   0.000663365588919 1
force O   0.001218551972044   0.000470914142517  -0.001465408667809 1
force O  -0.000232664811912  -0.000462889801877  -0.001871722570506 1
force O   0.001276606339102   0.001925501563621  -0.003284986649048 1
force O   0.000061336333502  -0.000743861608879  -0.001561776529437 1
force Tc   0.002693365601333  -0.005984906719412   0.005906403577839 1
force Tc   0.002364504426230  -0.001073366807732   0.000987203235368 1
force Tc   0.001427139009115   0.001181535919430  -0.002968370467847 1
force Tc   0.001889679771536   0.000656169603102  -0.000809045305472 1
force Tc   0.002422868815227   0.002213257801428  -0.002875130154248 1
force Tc   0.000031690605608  -0.000701431283035  -0.001588393654541 1
force Tc   0.001857599820069  -0.000322422365071   0.001073587264675 1
force Tc  -0.000511037261731  -0.002578595035605   0.003349595800026 1
force Tc   0.001379819381865  -0.000663299146712  -0.001757314223339 1
force Tc   0.002169321179928   0.001236135973334  -0.001001041767049 1
force Tc   0.002651539672827  -0.000369929938363  -0.001189550210897 1
force Tc  -0.000168654105257  -0.001213100069561   0.000540246086471 1
force Tc  -0.000471362995185  -0.001035096151452  -0.000017515869828 1
force Tc   0.002496045776395  -0.000401118792775   0.002952994474148 1
force Tc   0.000392358951716   0.000455314898303  -0.003357810763332 1
force Tc   0.002733318283907  -0.000167541190869   0.000403982103909 1
force Tc   0.002190890992530   0.000559112656360   0.000352501101411 1
force Tc   0.001447084908167   0.001006367179403  -0.000221459869587 1
force Tc   0.002853023823225  -0.000867811299804   0.000585206286118 1
force Tc  -0.000329407713608  -0.001625883624255   0.001332479766187 1
force Tc  -0.000551888524832  -0.001667187656602  -0.000134387532237 1
force Tc   0.002838117623820  -0.000467068354812   0.000135030768165 1
force Tc   0.000533977535826  -0.000516542865239  -0.000643966277279 1
force Tc   0.002108279116436  -0.000672856051490  -0.001296740496950 1
force Tc   0.001627348214704  -0.001889716187531  -0.001796571204327 1
force Tc   0.001212893746391  -0.000447669265586  -0.000332875972543 1
force Tc   0.001626689290504  -0.000305989269562  -0.000822092462234 1
force Tc   0.003260357839233   0.001475522897546  -0.001354305187067 1
force Tc   0.002997317279285   0.001365178079171  -0.002093625763003 1
force Tc   0.000051874186244   0.002838876069081  -0.001352628622561 1
force Tc   0.002115826815927  -0.003668438622464  -0.000151021542246 1
force Tc   0.001128205390009   0.001460248124335   0.000470017846750 1

# Energy components:
   Eewald =    -2769.3069799127051738
       EH =      792.3078300958741238
     Eloc =    -2955.3436917840867864
      Enl =      705.8304373607302296
      Exc =     -735.4548781938447064
 Exc_core =      200.4853380432268466
       KE =     1159.3586491398555154
-------------------------------------
     Etot =    -3602.1232952509499228
       TS =        0.4286481819339693
-------------------------------------
        F =    -3602.5519434328839452

IonicMinimize: Iter:  19  F: -3602.551943432883945  |grad|_K:  8.146e-05  alpha:  1.000e+00  linmin: -4.081e-01  t[s]: 121876.56
IonicMinimize: Converged (|grad|_K<1.000000e-04).

#--- Lowdin population analysis ---
# oxidation-state O -0.166 -0.242 -0.241 -0.242 -0.171 -0.246 -0.173 -0.173 -0.173 -0.244 -0.245 -0.245 -0.167 -0.233 -0.176 -0.173 -0.172 -0.245 -0.244 -0.244 -0.173 -0.239 -0.172 -0.180 -0.172 -0.247 -0.246 -0.245 -0.173 -0.245 -0.173 -0.174 -0.171 -0.245 -0.242 -0.243 -0.171 -0.247 -0.178 -0.181 -0.172 -0.234 -0.245 -0.244 -0.172 -0.246 -0.172 -0.183 -0.172 -0.243 -0.245 -0.245 -0.172 -0.246 -0.171 -0.173 -0.173 -0.245 -0.245 -0.246 -0.173 -0.245 -0.169
# oxidation-state Tc +0.393 +0.375 +0.471 +0.474 +0.472 +0.473 +0.474 +0.460 +0.469 +0.471 +0.472 +0.466 +0.472 +0.468 +0.473 +0.473 +0.475 +0.472 +0.396 +0.473 +0.477 +0.473 +0.472 +0.472 +0.480 +0.473 +0.472 +0.469 +0.473 +0.472 +0.472 +0.474


Dumping '/data/rc652/TcO2/vac/TcO2_vac.Ecomponents' ... done
End date and time: Tue Jul  2 14:05:54 2024  (Duration: 1-9:51:48.80)
Done!
