--------------------------------------------------------------------------
[[47063,1],4]: A high-performance Open MPI point-to-point messaging module
was unable to find any relevant network interfaces:

Module: OpenFabrics (openib)
  Host: node3213

Another transport will be used instead, although this may result in
lower performance.
--------------------------------------------------------------------------

*************** JDFTx 1.7.0 (git hash 3664913) ***************

Start date and time: Thu Jul 25 16:22:33 2024
Executable jdftx with command-line: -i V2O3_ion.in
Running on hosts (process indices):  node3213.physics.cornell.edu (0-6)
Divided in process groups (process indices):  0 (0)  1 (1)  2 (2)  3 (3)  4 (4)  5 (5)  6 (6)
Resource initialization completed at t[s]:      0.00
Run totals: 7 processes, 35 threads, 0 GPUs


Input parsed successfully to the following command list (including defaults):

basis kpoint-dependent
coords-type Lattice
core-overlap-check vector
coulomb-interaction Periodic
davidson-band-ratio 1.1
dump End Ecomponents
dump-name /data/rc652/V2O3/ion/V2O3_ion.$VAR
elec-cutoff 20 100
elec-eigen-algo Davidson
elec-ex-corr gga-PBEsol
elec-smearing Fermi 0.01
electronic-minimize  \
	dirUpdateScheme      FletcherReeves \
	linminMethod         DirUpdateRecommended \
	nIterations          100 \
	history              15 \
	knormThreshold       0 \
	maxThreshold         no \
	energyDiffThreshold  1e-08 \
	nEnergyDiff          2 \
	alphaTstart          1 \
	alphaTmin            1e-10 \
	updateTestStepSize   yes \
	alphaTreduceFactor   0.1 \
	alphaTincreaseFactor 3 \
	nAlphaAdjustMax      3 \
	wolfeEnergy          0.0001 \
	wolfeGradient        0.9 \
	fdTest               no
electronic-scf  \
	nIterations	50 \
	energyDiffThreshold	1e-08 \
	residualThreshold	1e-07 \
	mixFraction	0.5 \
	qMetric	0.8 \
	history	10 \
	nEigSteps	2 \
	eigDiffThreshold	1e-08 \
	mixedVariable	Density \
	qKerker	0.8 \
	qKappa	-1 \
	verbose	no \
	mixFractionMag	1.5
exchange-regularization WignerSeitzTruncated
fluid None
fluid-ex-corr lda-TF lda-PZ
fluid-gummel-loop 10 1.000000e-05
fluid-minimize  \
	dirUpdateScheme      PolakRibiere \
	linminMethod         DirUpdateRecommended \
	nIterations          100 \
	history              15 \
	knormThreshold       0 \
	maxThreshold         no \
	energyDiffThreshold  0 \
	nEnergyDiff          2 \
	alphaTstart          1 \
	alphaTmin            1e-10 \
	updateTestStepSize   yes \
	alphaTreduceFactor   0.1 \
	alphaTincreaseFactor 3 \
	nAlphaAdjustMax      3 \
	wolfeEnergy          0.0001 \
	wolfeGradient        0.9 \
	fdTest               no
fluid-solvent H2O 55.338 ScalarEOS \
	epsBulk 78.4 \
	pMol 0.92466 \
	epsInf 1.77 \
	Pvap 1.06736e-10 \
	sigmaBulk 4.62e-05 \
	Rvdw 2.61727 \
	Res 1.42 \
	tauNuc 343133 \
	poleEl 15 7 1
forces-output-coords Positions
ion V   0.262244596593984   0.058993319625369   0.768550298487909 1
ion V   0.731238244897544   0.749909584202092   0.437143876449099 1
ion V   0.450483234469123   0.694529361390576   0.705873451448185 1
ion V   0.835342844557509   0.249382215733016   0.047333777967332 1
ion V   0.054359943480914   0.804366550782798   0.220136525372173 1
ion V   0.754237233776551   0.442398258379257   0.667245995164318 1
ion V   0.762328822564214   0.954760898629359   0.164860330966965 1
ion V   0.335599671161658   0.249356070523605   0.547690133582140 1
ion V   0.555654429691975   0.296153218081637   0.212370788216117 1
ion V   0.231255826936699   0.756718650291112   0.942931618209609 1
ion V   0.949257124005048   0.205997314769963   0.716090713665577 1
ion V   0.254166012086628   0.548439552465370   0.274300260397481 1
ion V   0.498146035882494   0.460841954968797  -0.037818468791420 1
ion V   0.547035159673436   0.038647651487334   0.500509303025140 1
ion V   0.047717972786979   0.508082955385382   0.470162510420676 1
ion V   0.000000000000000   0.000000000000000   0.000000000000000 0
ion O   0.563278394938731   0.236293689662448   0.963174740008140 1
ion O   0.804077540431516   0.551354100013039   0.473074880058199 1
ion O   0.762474809909700   0.263079682276881   0.791320537317501 1
ion O   0.964009090972858   0.718694577207880   0.929433498499986 1
ion O   0.714139674694144   0.941982789876324   0.904029019567690 1
ion O   1.004618636272025   0.559579898563321   0.238848649052856 1
ion O   0.579772844152545   0.509938194499344   0.763851835513042 1
ion O   0.779437297249316   0.717649673360433   0.198273337963444 1
ion O   0.297160149114525   0.990095787415541   0.530401763021997 1
ion O   0.524399031768433   0.779113615723624   0.521850686833011 1
ion O   0.252772674625026   0.788403294077138   0.711027021252681 1
ion O   0.959821470270158   0.952674187548274   0.713269033517594 1
ion O   0.459422778051474   0.708094606772906  -0.030986716690341 1
ion O   0.263274735385617   0.432870899717144   0.461856892125644 1
ion O   0.302743456889359   0.791210909898524   0.213260432464693 1
ion O   0.079975801186856   0.278940012379441   0.030983806661257 1
ion O   0.063704013539438   0.062016973230798   0.288975230711041 1
ion O   0.797521427862299   0.228161981188327   0.268600317568600 1
ion O   0.504299559454658   0.227573477397940   0.406507994450814 1
ion O   0.751757547524168   0.002471738698870   0.425010225358069 1
ion O   0.213101651583575   0.271177299528869   0.732518364688767 1
ion O   0.464053976290348   0.495943521597403   0.208119593864176 1
ion O   0.024567999367814   0.464872217915659   0.707603270748731 1
ion O   0.279773041608387   0.043473733433150   0.023356541847314 1
ion-species GBRV/$ID_pbesol.uspp
ion-width 0
ionic-minimize  \
	dirUpdateScheme      L-BFGS \
	linminMethod         DirUpdateRecommended \
	nIterations          50 \
	history              15 \
	knormThreshold       0.0001 \
	maxThreshold         no \
	energyDiffThreshold  1e-06 \
	nEnergyDiff          2 \
	alphaTstart          1 \
	alphaTmin            1e-10 \
	updateTestStepSize   yes \
	alphaTreduceFactor   0.1 \
	alphaTincreaseFactor 3 \
	nAlphaAdjustMax      3 \
	wolfeEnergy          0.0001 \
	wolfeGradient        0.9 \
	fdTest               no
kpoint   0.500000000000   0.500000000000   0.500000000000  1.00000000000000
kpoint-folding 3 3 3 
latt-move-scale 1 1 1
latt-scale 1 1 1 
lattice  \
	  -8.675331560264389    8.675953266098988    8.675953266098988  \
	   8.675953266098988   -8.675331560264389    8.675953266098988  \
	   8.675953266098993    8.675953266098993   -8.675331560264388 
lattice-minimize  \
	dirUpdateScheme      L-BFGS \
	linminMethod         DirUpdateRecommended \
	nIterations          0 \
	history              15 \
	knormThreshold       0 \
	maxThreshold         no \
	energyDiffThreshold  1e-06 \
	nEnergyDiff          2 \
	alphaTstart          1 \
	alphaTmin            1e-10 \
	updateTestStepSize   yes \
	alphaTreduceFactor   0.1 \
	alphaTincreaseFactor 3 \
	nAlphaAdjustMax      3 \
	wolfeEnergy          0.0001 \
	wolfeGradient        0.9 \
	fdTest               no
lcao-params -1 1e-06 0.01
pcm-variant GLSSA13
perturb-minimize  \
	nIterations            0 \
	algorithm              MINRES \
	residualTol            0.0001 \
	residualDiffThreshold  0.0001 \
	CGBypass               no \
	recomputeResidual      no
spintype no-spin
subspace-rotation-factor 1 yes
symmetries automatic
symmetry-threshold 0.0001



---------- Setting up symmetries ----------

Found 12 point-group symmetries of the bravais lattice
Found 1 space-group symmetries with basis
Applied RMS atom displacement 0 bohrs to make symmetries exact.

---------- Initializing the Grid ----------
R = 
[     -8.67533      8.67595      8.67595  ]
[      8.67595     -8.67533      8.67595  ]
[      8.67595      8.67595     -8.67533  ]
unit cell volume = 2612.23
G =
[ -2.59469e-05    0.36209    0.36209  ]
[    0.36209 -2.59469e-05    0.36209  ]
[    0.36209    0.36209 -2.59469e-05  ]
Minimum fftbox size, Smin = [  68  68  68  ]
Chosen fftbox size, S = [  70  70  70  ]

---------- Initializing tighter grid for wavefunction operations ----------
R = 
[     -8.67533      8.67595      8.67595  ]
[      8.67595     -8.67533      8.67595  ]
[      8.67595      8.67595     -8.67533  ]
unit cell volume = 2612.23
G =
[ -2.59469e-05    0.36209    0.36209  ]
[    0.36209 -2.59469e-05    0.36209  ]
[    0.36209    0.36209 -2.59469e-05  ]
Minimum fftbox size, Smin = [  64  64  64  ]
Chosen fftbox size, S = [  64  64  64  ]

---------- Exchange Correlation functional ----------
Initalized PBEsol GGA exchange.
Initalized PBEsol GGA correlation.

---------- Setting up pseudopotentials ----------
Width of ionic core gaussian charges (only for fluid interactions / plotting) set to 0

Reading pseudopotential file '/home/rc652/build/pseudopotentials/GBRV/v_pbesol.uspp':
  Title: V.  Created by USPP 7.3.6 on 22-9-15
  Reference state energy: -72.158624.  13 valence electrons in orbitals:
    |300>  occupation: 2  eigenvalue: -2.573661
    |310>  occupation: 6  eigenvalue: -1.615030
    |400>  occupation: 2  eigenvalue: -0.173307
    |320>  occupation: 3  eigenvalue: -0.190514
  lMax: 2  lLocal: 3  QijEcut: 6
  6 projectors sampled on a log grid with 593 points:
    l: 0  eig: -2.573661  rCut: 1.5
    l: 0  eig: -0.173307  rCut: 1.5
    l: 1  eig: -1.615030  rCut: 1.6
    l: 1  eig: 0.150000  rCut: 1.6
    l: 2  eig: -0.190514  rCut: 1.7
    l: 2  eig: 0.150000  rCut: 1.7
  Partial core density with radius 0.8
  Transforming core density to a uniform radial grid of dG=0.02 with 2200 points.
  Transforming local potential to a uniform radial grid of dG=0.02 with 2200 points.
  Transforming nonlocal projectors to a uniform radial grid of dG=0.02 with 432 points.
  Transforming density augmentations to a uniform radial grid of dG=0.02 with 2200 points.
  Transforming atomic orbitals to a uniform radial grid of dG=0.02 with 432 points.
  Core radius for overlap checks: 1.80 bohrs.

Reading pseudopotential file '/home/rc652/build/pseudopotentials/GBRV/o_pbesol.uspp':
  Title: O.  Created by USPP 7.3.6 on 3-2-2014
  Reference state energy: -15.849885.  6 valence electrons in orbitals:
    |200>  occupation: 2  eigenvalue: -0.873214
    |210>  occupation: 4  eigenvalue: -0.330058
  lMax: 2  lLocal: 2  QijEcut: 6
  5 projectors sampled on a log grid with 511 points:
    l: 0  eig: -0.873214  rCut: 1.25
    l: 0  eig: 0.000000  rCut: 1.25
    l: 1  eig: -0.330058  rCut: 1.25
    l: 1  eig: 0.000000  rCut: 1.25
    l: 2  eig: 1.000000  rCut: 1.25
  Partial core density with radius 0.7
  Transforming core density to a uniform radial grid of dG=0.02 with 2200 points.
  Transforming local potential to a uniform radial grid of dG=0.02 with 2200 points.
  Transforming nonlocal projectors to a uniform radial grid of dG=0.02 with 432 points.
  Transforming density augmentations to a uniform radial grid of dG=0.02 with 2200 points.
  Transforming atomic orbitals to a uniform radial grid of dG=0.02 with 432 points.
  Core radius for overlap checks: 1.25 bohrs.

Initialized 2 species with 40 total atoms.

Folded 1 k-points by 3x3x3 to 27 k-points.

---------- Setting up k-points, bands, fillings ----------
Adding inversion symmetry to k-mesh for non-inversion-symmetric unit cell.
Reduced to 14 k-points under symmetry. 
Computing the number of bands and number of electrons
Calculating initial fillings.
nElectrons: 352.000000   nBands: 256   nStates: 14

----- Setting up reduced wavefunction bases (one per k-point) -----
average nbasis = 11164.889 , ideal nbasis = 11159.650

---------- Setting up ewald sum ----------
Optimum gaussian width for ewald sums = 2.929258 bohr.
Real space sum over 729 unit cells with max indices [  4  4  4  ]
Reciprocal space sum over 6859 terms with max indices [  9  9  9  ]

---------- Allocating electronic variables ----------
Initializing wave functions:  linear combination of atomic orbitals
V pseudo-atom occupations:   s ( 2 0 )  p ( 6 )  d ( 5 )
O pseudo-atom occupations:   s ( 2 )  p ( 4 )
	FillingsUpdate:  mu: +0.617267289  nElectrons: 352.000000
LCAOMinimize: Iter:   0  F: -1504.1052808149117936  |grad|_K:  1.028e-02  alpha:  1.000e+00
	FillingsUpdate:  mu: +0.542918492  nElectrons: 352.000000
LCAOMinimize: Iter:   1  F: -1521.5834040318711686  |grad|_K:  7.800e-03  alpha:  1.733e-01  linmin: -2.129e-01  cgtest:  7.990e-01  t[s]:     30.68
LCAOMinimize: Encountered beta<0, resetting CG.
	FillingsUpdate:  mu: +0.504895090  nElectrons: 352.000000
LCAOMinimize: Iter:   2  F: -1530.4918953005119420  |grad|_K:  7.764e-03  alpha:  3.615e-01  linmin:  1.255e-01  cgtest: -3.201e-01  t[s]:     41.57
	FillingsUpdate:  mu: +0.514311872  nElectrons: 352.000000
LCAOMinimize: Iter:   3  F: -1530.5012751566969200  |grad|_K:  7.628e-03  alpha:  2.659e-03  linmin: -3.703e-03  cgtest:  9.862e-01  t[s]:     52.43
LCAOMinimize: Encountered beta<0, resetting CG.
LCAOMinimize: 	Predicted alpha/alphaT>3.000000, increasing alphaT to 7.977509e-03.
LCAOMinimize: 	Predicted alpha/alphaT>3.000000, increasing alphaT to 2.393253e-02.
LCAOMinimize: 	Predicted alpha/alphaT>3.000000, increasing alphaT to 7.179758e-02.
LCAOMinimize: 	Step increased F by 9.495270e-02, reducing alpha to 8.344312e-03.
	FillingsUpdate:  mu: +0.551423801  nElectrons: 352.000000
LCAOMinimize: Iter:   4  F: -1530.9316047674185484  |grad|_K:  6.723e-03  alpha:  8.344e-03  linmin: -3.755e-01  cgtest:  9.591e-01  t[s]:     77.29
LCAOMinimize: Encountered beta<0, resetting CG.
LCAOMinimize: 	Predicted alpha/alphaT>3.000000, increasing alphaT to 2.503294e-02.
LCAOMinimize: 	Predicted alpha/alphaT>3.000000, increasing alphaT to 7.509881e-02.
	FillingsUpdate:  mu: +0.608998697  nElectrons: 352.000000
LCAOMinimize: Iter:   5  F: -1532.0908710799553774  |grad|_K:  2.274e-03  alpha:  4.288e-02  linmin: -1.444e-01  cgtest:  2.554e-01  t[s]:     93.88
	FillingsUpdate:  mu: +0.562827530  nElectrons: 352.000000
LCAOMinimize: Iter:   6  F: -1532.3685331941278491  |grad|_K:  1.842e-03  alpha:  1.107e-01  linmin: -1.593e-02  cgtest:  1.031e-01  t[s]:    104.87
	FillingsUpdate:  mu: +0.560416266  nElectrons: 352.000000
LCAOMinimize: Iter:   7  F: -1532.4662156828078423  |grad|_K:  5.858e-04  alpha:  5.971e-02  linmin: -5.461e-04  cgtest: -3.056e-01  t[s]:    115.79
	FillingsUpdate:  mu: +0.559581897  nElectrons: 352.000000
LCAOMinimize: Iter:   8  F: -1532.4748876293867852  |grad|_K:  2.637e-04  alpha:  5.459e-02  linmin: -6.319e-04  cgtest: -3.353e-03  t[s]:    126.83
	FillingsUpdate:  mu: +0.558059058  nElectrons: 352.000000
LCAOMinimize: Iter:   9  F: -1532.4773367524994683  |grad|_K:  2.191e-04  alpha:  7.622e-02  linmin:  1.747e-03  cgtest: -1.460e-03  t[s]:    137.99
	FillingsUpdate:  mu: +0.557183974  nElectrons: 352.000000
LCAOMinimize: Iter:  10  F: -1532.4793900564550313  |grad|_K:  2.324e-04  alpha:  9.326e-02  linmin:  1.414e-03  cgtest:  1.528e-02  t[s]:    148.98
	FillingsUpdate:  mu: +0.558142698  nElectrons: 352.000000
LCAOMinimize: Iter:  11  F: -1532.4820061712730421  |grad|_K:  2.038e-04  alpha:  1.058e-01  linmin:  9.316e-04  cgtest:  1.261e-02  t[s]:    159.98
	FillingsUpdate:  mu: +0.558970516  nElectrons: 352.000000
LCAOMinimize: Iter:  12  F: -1532.4832323194314085  |grad|_K:  1.443e-04  alpha:  6.397e-02  linmin: -1.742e-04  cgtest:  1.400e-02  t[s]:    170.86
	FillingsUpdate:  mu: +0.560348056  nElectrons: 352.000000
LCAOMinimize: Iter:  13  F: -1532.4839484225824435  |grad|_K:  9.857e-05  alpha:  7.446e-02  linmin:  1.064e-03  cgtest: -8.249e-03  t[s]:    181.86
	FillingsUpdate:  mu: +0.561549058  nElectrons: 352.000000
LCAOMinimize: Iter:  14  F: -1532.4842190579079215  |grad|_K:  5.670e-05  alpha:  6.063e-02  linmin:  1.976e-04  cgtest:  2.141e-02  t[s]:    192.77
	FillingsUpdate:  mu: +0.561798328  nElectrons: 352.000000
LCAOMinimize: Iter:  15  F: -1532.4842928328043854  |grad|_K:  2.447e-05  alpha:  4.968e-02  linmin:  1.010e-04  cgtest:  1.027e-03  t[s]:    203.86
	FillingsUpdate:  mu: +0.561860095  nElectrons: 352.000000
LCAOMinimize: Iter:  16  F: -1532.4843108265295086  |grad|_K:  1.830e-05  alpha:  6.501e-02  linmin:  6.107e-05  cgtest: -9.016e-06  t[s]:    214.90
	FillingsUpdate:  mu: +0.562026743  nElectrons: 352.000000
LCAOMinimize: Iter:  17  F: -1532.4843237048826268  |grad|_K:  1.555e-05  alpha:  8.320e-02  linmin:  1.395e-04  cgtest:  3.306e-05  t[s]:    226.07
	FillingsUpdate:  mu: +0.562051844  nElectrons: 352.000000
LCAOMinimize: Iter:  18  F: -1532.4843320220434180  |grad|_K:  1.113e-05  alpha:  7.445e-02  linmin: -1.033e-05  cgtest:  2.402e-03  t[s]:    237.21
	FillingsUpdate:  mu: +0.562006206  nElectrons: 352.000000
LCAOMinimize: Iter:  19  F: -1532.4843364574555835  |grad|_K:  9.345e-06  alpha:  7.748e-02  linmin: -6.145e-05  cgtest: -1.362e-03  t[s]:    248.38
	FillingsUpdate:  mu: +0.561999233  nElectrons: 352.000000
LCAOMinimize: Iter:  20  F: -1532.4843398554639862  |grad|_K:  7.573e-06  alpha:  8.414e-02  linmin:  3.184e-05  cgtest: -5.454e-04  t[s]:    259.27
	FillingsUpdate:  mu: +0.561967781  nElectrons: 352.000000
LCAOMinimize: Iter:  21  F: -1532.4843413880719254  |grad|_K:  3.437e-06  alpha:  5.781e-02  linmin:  1.761e-05  cgtest:  8.444e-04  t[s]:    270.38
	FillingsUpdate:  mu: +0.561953734  nElectrons: 352.000000
LCAOMinimize: Iter:  22  F: -1532.4843416935520963  |grad|_K:  1.999e-06  alpha:  5.594e-02  linmin: -1.132e-04  cgtest:  3.644e-04  t[s]:    281.49
	FillingsUpdate:  mu: +0.561958042  nElectrons: 352.000000
LCAOMinimize: Iter:  23  F: -1532.4843418125747121  |grad|_K:  1.468e-06  alpha:  6.434e-02  linmin:  4.918e-04  cgtest: -2.751e-03  t[s]:    292.34
LCAOMinimize: Converged (|Delta F|<1.000000e-06 for 2 iters).


---- Citations for features of the code used in this run ----

   Software package:
      R. Sundararaman, K. Letchworth-Weaver, K.A. Schwarz, D. Gunceler, Y. Ozhabes and T.A. Arias, 'JDFTx: software for joint density-functional theory', SoftwareX 6, 278 (2017)

   gga-PBEsol exchange-correlation functional:
      J.P. Perdew et al., Phys. Rev. Lett. 100, 136406 (2008)

   Pseudopotentials:
      KF Garrity, JW Bennett, KM Rabe and D Vanderbilt, Comput. Mater. Sci. 81, 446 (2014)

This list may not be complete. Please suggest additional citations or
report any other bugs at https://github.com/shankar1729/jdftx/issues

Initialization completed successfully at t[s]:    295.79


-------- Electronic minimization -----------
Will mix electronic density at each iteration.
	FillingsUpdate:  mu: +0.561958042  nElectrons: 352.000000
	FillingsUpdate:  mu: +0.551881497  nElectrons: 352.000000
SCF: Cycle:  0   F: -1533.386867699246295   dF: -9.025e-01   |Residual|: 1.079e+00   |deigs|: 2.873e-02  t[s]:    334.23
	FillingsUpdate:  mu: +0.519920742  nElectrons: 352.000000
SCF: Cycle:  1   F: -1533.854588412054909   dF: -4.677e-01   |Residual|: 3.030e-01   |deigs|: 3.904e-02  t[s]:    365.14
	FillingsUpdate:  mu: +0.499076410  nElectrons: 352.000000
SCF: Cycle:  2   F: -1529.188709893340729   dF: +4.666e+00   |Residual|: 1.160e+00   |deigs|: 1.973e-02  t[s]:    396.11
	FillingsUpdate:  mu: +0.503359644  nElectrons: 352.000000
SCF: Cycle:  3   F: -1533.728842757423308   dF: -4.540e+00   |Residual|: 3.238e-01   |deigs|: 1.028e-02  t[s]:    427.12
	FillingsUpdate:  mu: +0.507143503  nElectrons: 352.000000
SCF: Cycle:  4   F: -1533.722547435968181   dF: +6.295e-03   |Residual|: 3.075e-01   |deigs|: 3.989e-03  t[s]:    458.19
	FillingsUpdate:  mu: +0.507358717  nElectrons: 352.000000
SCF: Cycle:  5   F: -1534.056508426954906   dF: -3.340e-01   |Residual|: 8.265e-02   |deigs|: 2.111e-03  t[s]:    489.44
	FillingsUpdate:  mu: +0.507283290  nElectrons: 352.000000
SCF: Cycle:  6   F: -1533.905552587442571   dF: +1.510e-01   |Residual|: 2.180e-01   |deigs|: 9.709e-04  t[s]:    520.61
	FillingsUpdate:  mu: +0.506929931  nElectrons: 352.000000
SCF: Cycle:  7   F: -1534.068798368728494   dF: -1.632e-01   |Residual|: 4.139e-02   |deigs|: 1.041e-03  t[s]:    551.96
	FillingsUpdate:  mu: +0.507000207  nElectrons: 352.000000
SCF: Cycle:  8   F: -1534.063740194159436   dF: +5.058e-03   |Residual|: 5.342e-02   |deigs|: 3.884e-04  t[s]:    571.75
	FillingsUpdate:  mu: +0.507097570  nElectrons: 352.000000
SCF: Cycle:  9   F: -1534.074846655186775   dF: -1.111e-02   |Residual|: 7.764e-03   |deigs|: 3.205e-04  t[s]:    591.53
	FillingsUpdate:  mu: +0.507112385  nElectrons: 352.000000
SCF: Cycle: 10   F: -1534.074245673524274   dF: +6.010e-04   |Residual|: 1.430e-02   |deigs|: 1.072e-04  t[s]:    611.28
	FillingsUpdate:  mu: +0.507123199  nElectrons: 352.000000
SCF: Cycle: 11   F: -1534.074976916087735   dF: -7.312e-04   |Residual|: 4.381e-03   |deigs|: 7.021e-05  t[s]:    631.11
	FillingsUpdate:  mu: +0.507116508  nElectrons: 352.000000
SCF: Cycle: 12   F: -1534.074926852725412   dF: +5.006e-05   |Residual|: 5.573e-03   |deigs|: 4.320e-05  t[s]:    650.76
	FillingsUpdate:  mu: +0.507123906  nElectrons: 352.000000
SCF: Cycle: 13   F: -1534.075026651766620   dF: -9.980e-05   |Residual|: 2.374e-03   |deigs|: 3.501e-05  t[s]:    670.55
	FillingsUpdate:  mu: +0.507115937  nElectrons: 352.000000
SCF: Cycle: 14   F: -1534.075014984992322   dF: +1.167e-05   |Residual|: 2.985e-03   |deigs|: 3.360e-05  t[s]:    690.48
	FillingsUpdate:  mu: +0.507121082  nElectrons: 352.000000
SCF: Cycle: 15   F: -1534.075032605183424   dF: -1.762e-05   |Residual|: 2.101e-03   |deigs|: 2.885e-05  t[s]:    710.06
	FillingsUpdate:  mu: +0.507122400  nElectrons: 352.000000
SCF: Cycle: 16   F: -1534.075050240787277   dF: -1.764e-05   |Residual|: 4.577e-04   |deigs|: 1.596e-05  t[s]:    729.97
	FillingsUpdate:  mu: +0.507125616  nElectrons: 352.000000
SCF: Cycle: 17   F: -1534.075050151596315   dF: +8.919e-08   |Residual|: 4.767e-04   |deigs|: 5.680e-06  t[s]:    748.95
	FillingsUpdate:  mu: +0.507126549  nElectrons: 352.000000
SCF: Cycle: 18   F: -1534.075050435829553   dF: -2.842e-07   |Residual|: 3.953e-04   |deigs|: 5.152e-06  t[s]:    768.76
	FillingsUpdate:  mu: +0.507125806  nElectrons: 352.000000
SCF: Cycle: 19   F: -1534.075050679849937   dF: -2.440e-07   |Residual|: 2.764e-04   |deigs|: 3.514e-06  t[s]:    788.44
	FillingsUpdate:  mu: +0.507125657  nElectrons: 352.000000
SCF: Cycle: 20   F: -1534.075050936625075   dF: -2.568e-07   |Residual|: 1.064e-04   |deigs|: 2.101e-06  t[s]:    808.22
	FillingsUpdate:  mu: +0.507126457  nElectrons: 352.000000
SCF: Cycle: 21   F: -1534.075050768027040   dF: +1.686e-07   |Residual|: 2.330e-04   |deigs|: 2.004e-06  t[s]:    828.05
	FillingsUpdate:  mu: +0.507126893  nElectrons: 352.000000
SCF: Cycle: 22   F: -1534.075050946758665   dF: -1.787e-07   |Residual|: 8.399e-05   |deigs|: 1.686e-06  t[s]:    847.87
	FillingsUpdate:  mu: +0.507126849  nElectrons: 352.000000
SCF: Cycle: 23   F: -1534.075050953547134   dF: -6.788e-09   |Residual|: 7.243e-05   |deigs|: 8.131e-07  t[s]:    866.91
	FillingsUpdate:  mu: +0.507126746  nElectrons: 352.000000
SCF: Cycle: 24   F: -1534.075050957396343   dF: -3.849e-09   |Residual|: 6.378e-05   |deigs|: 6.732e-07  t[s]:    886.73
SCF: Converged (|Delta E|<1.000000e-08 for 2 iters).

Setting wave functions to eigenvectors of Hamiltonian

# Ionic positions in lattice coordinates:
ion V   0.262244596593984   0.058993319625369   0.768550298487909 1
ion V   0.731238244897544   0.749909584202092   0.437143876449099 1
ion V   0.450483234469123   0.694529361390576   0.705873451448185 1
ion V   0.835342844557509   0.249382215733016   0.047333777967332 1
ion V   0.054359943480914   0.804366550782798   0.220136525372173 1
ion V   0.754237233776551   0.442398258379257   0.667245995164318 1
ion V   0.762328822564214   0.954760898629359   0.164860330966965 1
ion V   0.335599671161658   0.249356070523605   0.547690133582140 1
ion V   0.555654429691975   0.296153218081637   0.212370788216117 1
ion V   0.231255826936699   0.756718650291112   0.942931618209609 1
ion V   0.949257124005048   0.205997314769963   0.716090713665577 1
ion V   0.254166012086628   0.548439552465370   0.274300260397481 1
ion V   0.498146035882494   0.460841954968797  -0.037818468791420 1
ion V   0.547035159673436   0.038647651487334   0.500509303025140 1
ion V   0.047717972786979   0.508082955385382   0.470162510420676 1
ion V   0.000000000000000   0.000000000000000   0.000000000000000 0
ion O   0.563278394938731   0.236293689662448   0.963174740008140 1
ion O   0.804077540431516   0.551354100013039   0.473074880058199 1
ion O   0.762474809909700   0.263079682276881   0.791320537317501 1
ion O   0.964009090972858   0.718694577207880   0.929433498499986 1
ion O   0.714139674694144   0.941982789876324   0.904029019567690 1
ion O   1.004618636272025   0.559579898563321   0.238848649052856 1
ion O   0.579772844152545   0.509938194499344   0.763851835513042 1
ion O   0.779437297249316   0.717649673360433   0.198273337963444 1
ion O   0.297160149114525   0.990095787415541   0.530401763021997 1
ion O   0.524399031768433   0.779113615723624   0.521850686833011 1
ion O   0.252772674625026   0.788403294077138   0.711027021252681 1
ion O   0.959821470270158   0.952674187548274   0.713269033517594 1
ion O   0.459422778051474   0.708094606772906  -0.030986716690341 1
ion O   0.263274735385617   0.432870899717144   0.461856892125644 1
ion O   0.302743456889359   0.791210909898524   0.213260432464693 1
ion O   0.079975801186856   0.278940012379441   0.030983806661257 1
ion O   0.063704013539438   0.062016973230798   0.288975230711041 1
ion O   0.797521427862299   0.228161981188327   0.268600317568600 1
ion O   0.504299559454658   0.227573477397940   0.406507994450814 1
ion O   0.751757547524168   0.002471738698870   0.425010225358069 1
ion O   0.213101651583575   0.271177299528869   0.732518364688767 1
ion O   0.464053976290348   0.495943521597403   0.208119593864176 1
ion O   0.024567999367814   0.464872217915659   0.707603270748731 1
ion O   0.279773041608387   0.043473733433150   0.023356541847314 1

# Forces in Lattice coordinates:
force V  -0.000172163275733   0.001992882135921  -0.000924517555794 1
force V   0.000549171368041   0.003807099541916  -0.003510760918070 1
force V  -0.000079490853032   0.002064842601987  -0.001888708441856 1
force V   0.000105639155095  -0.001031777476953   0.002191522841911 1
force V   0.002920121123792  -0.004868931457913   0.001098939267663 1
force V  -0.003630786010012  -0.000355494625803   0.002942941937081 1
force V   0.000645055063244   0.000203452672983   0.001788727591476 1
force V   0.001722627563206  -0.002614430708874  -0.000350315803068 1
force V  -0.000292740322065   0.001081636168087  -0.000427354468649 1
force V   0.001253889961192   0.001127910442240  -0.000921079040260 1
force V  -0.003538033620076  -0.001562788903532   0.001041814464096 1
force V   0.001562180967791   0.000337689481462   0.000861068004314 1
force V   0.001294799950487   0.000075567042110   0.001284459050121 1
force V   0.000402468373671  -0.002041563694581   0.002265872096853 1
force V  -0.002100336823157  -0.001098381920139   0.001020255194492 1
force V  -0.007777457151105  -0.015222187606283  -0.002203262590741 0
force O   0.005123555660979  -0.001453267078338   0.002032085670386 1
force O  -0.005174217407221   0.002053616017057   0.003574383370169 1
force O   0.001821946094279  -0.002132177845243   0.000957319690703 1
force O  -0.001255005933844   0.001736505468029  -0.000054038976350 1
force O   0.000885693673802   0.002891630281433  -0.002878703363289 1
force O  -0.005151683751956   0.004547125513511   0.000682523607137 1
force O   0.002045063553394  -0.000126337093192  -0.000629945266829 1
force O   0.000098926840461   0.001452617070385  -0.002083451252643 1
force O  -0.002334631748969  -0.000819780926981   0.001503625430746 1
force O   0.001817652029282   0.000922848337068  -0.003776953116708 1
force O  -0.001475358380532   0.000955069887477   0.000884979576762 1
force O  -0.000493131115319   0.001641284921130  -0.003296498721697 1
force O   0.000544428075297   0.001146844177695  -0.000354174349884 1
force O   0.001044371370996  -0.000890806268774  -0.001976681014160 1
force O  -0.000878145035835   0.001648368892794   0.002273557085137 1
force O  -0.000516956584949   0.000877643087834  -0.000594074023929 1
force O   0.002000311218897   0.002203250221851  -0.002006835730967 1
force O   0.000947470650526   0.000649451023866  -0.000736654814008 1
force O   0.002289755921729  -0.002062654508752  -0.000050117394680 1
force O  -0.001408805026589  -0.000240366450890   0.002476971534283 1
force O   0.001765591863091  -0.001803930771322   0.001982601585931 1
force O   0.001817791150972   0.000135845981472  -0.000270623440902 1
force O  -0.000089862530101   0.000174186107226   0.001630075964166 1
force O   0.000372740837202   0.001224096809568   0.000688029249839 1

# Energy components:
   Eewald =    -1128.0300969704078398
       EH =      366.7821385491089359
     Eloc =    -1095.5547228570849256
      Enl =       80.4785227803687917
      Exc =     -242.2727233465421932
 Exc_core =       14.1457384783216931
       KE =      470.6697603890017945
-------------------------------------
     Etot =    -1533.7813829772337613
       TS =        0.2936679801626945
-------------------------------------
        F =    -1534.0750509573963427

IonicMinimize: Iter:   0  F: -1534.075050957396343  |grad|_K:  1.271e-04  t[s]:    893.61

#--- Lowdin population analysis ---
# oxidation-state V +1.074 +1.178 +1.107 +1.034 +1.120 +1.077 +1.074 +1.034 +1.119 +1.180 +1.107 +1.078 +1.005 +0.994 +0.994 +1.005
# oxidation-state O -0.634 -0.698 -0.630 -0.670 -0.637 -0.638 -0.653 -0.686 -0.652 -0.681 -0.662 -0.699 -0.699 -0.630 -0.700 -0.653 -0.634 -0.653 -0.639 -0.661 -0.637 -0.671 -0.680 -0.686


-------- Electronic minimization -----------
Will mix electronic density at each iteration.
	FillingsUpdate:  mu: +0.507126746  nElectrons: 352.000000
	FillingsUpdate:  mu: +0.507126281  nElectrons: 352.000000
SCF: Cycle:  0   F: -1534.075032871623080   dF: +1.934e-05   |Residual|: 2.100e-03   |deigs|: 1.828e-07  t[s]:    925.65
	FillingsUpdate:  mu: +0.507121233  nElectrons: 352.000000
SCF: Cycle:  1   F: -1534.073943289065255   dF: +1.090e-03   |Residual|: 1.613e-02   |deigs|: 8.994e-05  t[s]:    945.24
	FillingsUpdate:  mu: +0.507125872  nElectrons: 352.000000
SCF: Cycle:  2   F: -1534.075040912194936   dF: -1.098e-03   |Residual|: 1.656e-03   |deigs|: 7.950e-05  t[s]:    964.72
	FillingsUpdate:  mu: +0.507126333  nElectrons: 352.000000
SCF: Cycle:  3   F: -1534.075052149918520   dF: -1.124e-05   |Residual|: 3.414e-04   |deigs|: 1.044e-05  t[s]:    984.57
	FillingsUpdate:  mu: +0.507125977  nElectrons: 352.000000
SCF: Cycle:  4   F: -1534.075051511317497   dF: +6.386e-07   |Residual|: 5.157e-04   |deigs|: 4.786e-06  t[s]:   1003.37
	FillingsUpdate:  mu: +0.507126133  nElectrons: 352.000000
SCF: Cycle:  5   F: -1534.075052567669900   dF: -1.056e-06   |Residual|: 8.689e-05   |deigs|: 3.775e-06  t[s]:   1023.11
	FillingsUpdate:  mu: +0.507126427  nElectrons: 352.000000
SCF: Cycle:  6   F: -1534.075052325474417   dF: +2.422e-07   |Residual|: 2.619e-04   |deigs|: 1.682e-06  t[s]:   1042.93
	FillingsUpdate:  mu: +0.507126221  nElectrons: 352.000000
SCF: Cycle:  7   F: -1534.075052583691331   dF: -2.582e-07   |Residual|: 4.324e-05   |deigs|: 1.565e-06  t[s]:   1062.82
	FillingsUpdate:  mu: +0.507126387  nElectrons: 352.000000
SCF: Cycle:  8   F: -1534.075052580085867   dF: +3.605e-09   |Residual|: 5.291e-05   |deigs|: 5.903e-07  t[s]:   1079.79
	FillingsUpdate:  mu: +0.507126289  nElectrons: 352.000000
SCF: Cycle:  9   F: -1534.075052587171967   dF: -7.086e-09   |Residual|: 3.001e-05   |deigs|: 3.936e-07  t[s]:   1099.92
	FillingsUpdate:  mu: +0.507126310  nElectrons: 352.000000
SCF: Cycle: 10   F: -1534.075052590518681   dF: -3.347e-09   |Residual|: 1.076e-05   |deigs|: 2.412e-07  t[s]:   1118.66
SCF: Converged (|Delta E|<1.000000e-08 for 2 iters).

Setting wave functions to eigenvectors of Hamiltonian

# Ionic positions in lattice coordinates:
ion V   0.262247000646818   0.059002914917360   0.768550203581815 1
ion V   0.731242876553103   0.749925037127510   0.437135022963018 1
ion V   0.450483291349324   0.694536540714780   0.705867498978051 1
ion V   0.835347397233926   0.249382990458643   0.047345258945745 1
ion V   0.054366820664542   0.804347556481410   0.220137353465927 1
ion V   0.754221709576395   0.442393613121191   0.667252305725489 1
ion V   0.762339722243144   0.954770331517623   0.164875029375762 1
ion V   0.335601268362505   0.249343262103624   0.547684845462510 1
ion V   0.555654657871811   0.296158011278900   0.212370569272527 1
ion V   0.231264842178878   0.756727247089943   0.942933409251239 1
ion V   0.949231894151800   0.205978645729285   0.716080695864095 1
ion V   0.254180368781050   0.548449841988232   0.274312288331975 1
ion V   0.498159152112465   0.460851021493674  -0.037805386908945 1
ion V   0.547038577733953   0.038642951649253   0.500518910416259 1
ion V   0.047703762744633   0.508072073355139   0.470158665483557 1
ion V   0.000000000000000   0.000000000000000   0.000000000000000 0
ion O   0.563314348040745   0.236307797723724   0.963200424734289 1
ion O   0.804061860984265   0.551362427950791   0.473088259253389 1
ion O   0.762483010236809   0.263074748906768   0.791325865771708 1
ion O   0.964006341858371   0.718701764454920   0.929434738419893 1
ion O   0.714145600472188   0.941995378410633   0.904022441829996 1
ion O   1.004601783746529   0.559595260815676   0.238851174957110 1
ion O   0.579783916353889   0.509942054352498   0.763854022622151 1
ion O   0.779435859602761   0.717652732021501   0.198264651506903 1
ion O   0.297146913041641   0.990087582948225   0.530401275792707 1
ion O   0.524401627523210   0.779113239371065   0.521834700001306 1
ion O   0.252768985175493   0.788407677340924   0.711031171710178 1
ion O   0.959812698602811   0.952672505384038   0.713250950411884 1
ion O   0.459429026302650   0.708102855960525  -0.030983453164064 1
ion O   0.263272150506439   0.432861887108947   0.461844272764006 1
ion O   0.302750647192356   0.791226492065174   0.213278091205712 1
ion O   0.079973309126931   0.278942152508625   0.030981058454304 1
ion O   0.063717951985581   0.062031585742665   0.288975859343033 1
ion O   0.797527431477604   0.228166994925823   0.268600727329420 1
ion O   0.504307752609402   0.227567213939372   0.406508415672218 1
ion O   0.751755616917189   0.002473689082652   0.425021201431205 1
ion O   0.213113972084560   0.271177763793119   0.732531405991638 1
ion O   0.464065602677512   0.495949561371973   0.208124283542895 1
ion O   0.024573393666121   0.464878489256494   0.707614377855177 1
ion O   0.279781866727527   0.043485386347205   0.023366414202861 1

# Forces in Lattice coordinates:
force V   0.000204935247559   0.001573739775812  -0.000600769391735 1
force V   0.000194819897742   0.003762945096436  -0.003109585587900 1
force V  -0.000504971693196   0.001697786586165  -0.001464337968315 1
force V   0.001331457581821  -0.000848046354550   0.001136681697952 1
force V   0.002973196582284  -0.003942879027166   0.000234848758659 1
force V  -0.002830731954422  -0.000525493541131   0.003591600199694 1
force V   0.000690994857868   0.000347506963886   0.000624440823385 1
force V   0.001331606225584  -0.001327533433959  -0.000141591529269 1
force V  -0.000588654500999   0.000893457984047  -0.000315462448337 1
force V   0.001294662328158   0.000294159753165  -0.000918816373224 1
force V  -0.002623591290873  -0.000518702605834   0.000918795536156 1
force V   0.000579955722936   0.000673272255505   0.000740875932897 1
force V   0.000944999325219   0.001150115799671  -0.000227354141527 1
force V  -0.000014463829436  -0.001634378693065   0.002498387267082 1
force V  -0.000718560362682  -0.001238873955267   0.001439793974463 1
force V  -0.007824263209936  -0.015195336613295  -0.002298179002311 0
force O   0.004651492701574  -0.000896074930917   0.000960863523172 1
force O  -0.004638916634769   0.001418807608927   0.004243589156971 1
force O   0.001761961489911  -0.001639480091419   0.000907902810219 1
force O  -0.000602501405821   0.001362958195590  -0.000393951713195 1
force O   0.000528844128965   0.002214578668962  -0.002416215260082 1
force O  -0.003619266846614   0.003144271061941   0.000737450874334 1
force O   0.001345810168739   0.000146572450005  -0.000470498114186 1
force O   0.000133282698165   0.001748941319354  -0.002567246261948 1
force O  -0.002113124475513  -0.001007766682260   0.001556130076456 1
force O   0.001077495836515   0.000359135308402  -0.002597857007536 1
force O  -0.000978871273953   0.000092592926193   0.001206645859682 1
force O  -0.000391119916418   0.001800314608763  -0.002676511310793 1
force O   0.000233874053202   0.001300551659916  -0.000749583554539 1
force O   0.000973103290872  -0.000298528305168  -0.001467612964117 1
force O  -0.000530021131869   0.001265466510191   0.001355214107934 1
force O  -0.000471941152261   0.001299097820685  -0.000676618258026 1
force O   0.002147406299819   0.001481316615418  -0.002004713489235 1
force O   0.001265050675556  -0.000061697580020  -0.000071439217033 1
force O   0.001949832726153  -0.002175204397940   0.000704492126407 1
force O  -0.001010536051373   0.000400781395748   0.001572533303955 1
force O   0.001007099197243  -0.000917122278425   0.001898523487646 1
force O   0.000575613949632   0.000945707273920  -0.000388826361848 1
force O  -0.000222696400086   0.000030678634851   0.002105978370274 1
force O   0.000067267975179   0.000579590450104   0.000536404067252 1

# Energy components:
   Eewald =    -1128.0301325493708191
       EH =      366.7820654303926631
     Eloc =    -1095.5545681629921546
      Enl =       80.4784887115950909
      Exc =     -242.2727075942515853
 Exc_core =       14.1457384680057103
       KE =      470.6697290218345415
-------------------------------------
     Etot =    -1533.7813866747865177
       TS =        0.2936659157320506
-------------------------------------
        F =    -1534.0750525905186805

IonicMinimize: Iter:   1  F: -1534.075052590518681  |grad|_K:  1.048e-04  alpha:  1.000e+00  linmin: -5.142e-01  t[s]:   1125.75

#--- Lowdin population analysis ---
# oxidation-state V +1.074 +1.178 +1.107 +1.034 +1.121 +1.077 +1.074 +1.034 +1.119 +1.180 +1.107 +1.078 +1.005 +0.994 +0.994 +1.005
# oxidation-state O -0.634 -0.698 -0.630 -0.670 -0.637 -0.638 -0.653 -0.686 -0.652 -0.681 -0.662 -0.699 -0.699 -0.630 -0.700 -0.653 -0.634 -0.653 -0.639 -0.661 -0.637 -0.671 -0.680 -0.686


-------- Electronic minimization -----------
Will mix electronic density at each iteration.
	FillingsUpdate:  mu: +0.507126310  nElectrons: 352.000000
	FillingsUpdate:  mu: +0.507121567  nElectrons: 352.000000
SCF: Cycle:  0   F: -1534.074908734133487   dF: +1.339e-04   |Residual|: 5.718e-03   |deigs|: 2.048e-07  t[s]:   1157.94
	FillingsUpdate:  mu: +0.507070273  nElectrons: 352.000000
SCF: Cycle:  1   F: -1534.069357926359316   dF: +5.551e-03   |Residual|: 3.729e-02   |deigs|: 2.702e-04  t[s]:   1177.68
	FillingsUpdate:  mu: +0.507125463  nElectrons: 352.000000
SCF: Cycle:  2   F: -1534.075021483782393   dF: -5.664e-03   |Residual|: 3.074e-03   |deigs|: 2.506e-04  t[s]:   1197.56
	FillingsUpdate:  mu: +0.507117428  nElectrons: 352.000000
SCF: Cycle:  3   F: -1534.075006036665627   dF: +1.545e-05   |Residual|: 3.646e-03   |deigs|: 4.253e-05  t[s]:   1217.47
	FillingsUpdate:  mu: +0.507120920  nElectrons: 352.000000
SCF: Cycle:  4   F: -1534.075047542845823   dF: -4.151e-05   |Residual|: 1.687e-03   |deigs|: 2.658e-05  t[s]:   1237.23
	FillingsUpdate:  mu: +0.507118991  nElectrons: 352.000000
SCF: Cycle:  5   F: -1534.075055408606431   dF: -7.866e-06   |Residual|: 9.057e-04   |deigs|: 1.590e-05  t[s]:   1256.96
	FillingsUpdate:  mu: +0.507123471  nElectrons: 352.000000
SCF: Cycle:  6   F: -1534.075054408496726   dF: +1.000e-06   |Residual|: 1.030e-03   |deigs|: 9.539e-06  t[s]:   1276.57
	FillingsUpdate:  mu: +0.507122553  nElectrons: 352.000000
SCF: Cycle:  7   F: -1534.075058469856913   dF: -4.061e-06   |Residual|: 1.511e-04   |deigs|: 6.489e-06  t[s]:   1296.64
	FillingsUpdate:  mu: +0.507121462  nElectrons: 352.000000
SCF: Cycle:  8   F: -1534.075057631124764   dF: +8.387e-07   |Residual|: 4.745e-04   |deigs|: 3.201e-06  t[s]:   1316.28
	FillingsUpdate:  mu: +0.507121511  nElectrons: 352.000000
SCF: Cycle:  9   F: -1534.075058492734570   dF: -8.616e-07   |Residual|: 1.110e-04   |deigs|: 2.787e-06  t[s]:   1336.33
	FillingsUpdate:  mu: +0.507121912  nElectrons: 352.000000
SCF: Cycle: 10   F: -1534.075058463952928   dF: +2.878e-08   |Residual|: 1.355e-04   |deigs|: 1.386e-06  t[s]:   1355.17
	FillingsUpdate:  mu: +0.507122706  nElectrons: 352.000000
SCF: Cycle: 11   F: -1534.075058527419742   dF: -6.347e-08   |Residual|: 6.161e-05   |deigs|: 1.254e-06  t[s]:   1375.05
	FillingsUpdate:  mu: +0.507122654  nElectrons: 352.000000
SCF: Cycle: 12   F: -1534.075058507713948   dF: +1.971e-08   |Residual|: 9.009e-05   |deigs|: 8.532e-07  t[s]:   1395.08
	FillingsUpdate:  mu: +0.507122392  nElectrons: 352.000000
SCF: Cycle: 13   F: -1534.075058538051962   dF: -3.034e-08   |Residual|: 3.168e-05   |deigs|: 7.588e-07  t[s]:   1414.79
	FillingsUpdate:  mu: +0.507122277  nElectrons: 352.000000
SCF: Cycle: 14   F: -1534.075058539129031   dF: -1.077e-09   |Residual|: 2.625e-05   |deigs|: 3.527e-07  t[s]:   1433.87
	FillingsUpdate:  mu: +0.507122310  nElectrons: 352.000000
SCF: Cycle: 15   F: -1534.075058539360043   dF: -2.310e-10   |Residual|: 2.617e-05   |deigs|: 3.062e-07  t[s]:   1452.87
SCF: Converged (|Delta E|<1.000000e-08 for 2 iters).

Setting wave functions to eigenvectors of Hamiltonian

# Ionic positions in lattice coordinates:
ion V   0.262286640981235   0.059078180811047   0.768567568619866 1
ion V   0.731270653522166   0.750051646839435   0.437073879548284 1
ion V   0.450459969979968   0.694573900313661   0.705819938043155 1
ion V   0.835432449246017   0.249405540795234   0.047419255175061 1
ion V   0.054428760090868   0.804221615490226   0.220121745788464 1
ion V   0.754155580982832   0.442388409957625   0.667362293193152 1
ion V   0.762402077868960   0.954823492964406   0.164932529683481 1
ion V   0.335635868235340   0.249308980951737   0.547680459544008 1
ion V   0.555636517550020   0.296180870882457   0.212360956418943 1
ion V   0.231316953960893   0.756749676813277   0.942924595253088 1
ion V   0.949105582158200   0.205910503203199   0.716049139301682 1
ion V   0.254246718634534   0.548522051651253   0.274385216117268 1
ion V   0.498233593669659   0.460934661698525  -0.037766069015511 1
ion V   0.547061034539897   0.038622951741851   0.500612047898143 1
ion V   0.047677401506554   0.508027606554192   0.470189212639294 1
ion V   0.000000000000000   0.000000000000000   0.000000000000000 0
ion O   0.563568104798153   0.236411673364233   0.963351259583176 1
ion O   0.803965258462990   0.551429374138683   0.473236095225953 1
ion O   0.762560547881652   0.263060192243083   0.791379959118742 1
ion O   0.964001332748305   0.718748203147239   0.929432978884792 1
ion O   0.714166802563523   0.942062106133614   0.903964758436335 1
ion O   1.004513825014483   0.559685833531555   0.238879250259889 1
ion O   0.579846560071494   0.509974172357974   0.763868898941209 1
ion O   0.779420405563946   0.717682333619198   0.198173687465762 1
ion O   0.297046620904651   0.990016643597378   0.530401397276573 1
ion O   0.524397172878549   0.779089484395009   0.521734040860847 1
ion O   0.252752016772735   0.788416756011958   0.711073827205488 1
ion O   0.959769590015075   0.952689763055264   0.713146331344360 1
ion O   0.459454858697301   0.708159163086544  -0.030984859746957 1
ion O   0.263279502082189   0.432835951753365   0.461786001254810 1
ion O   0.302792007057005   0.791315366413290   0.213368093007910 1
ion O   0.079965547691156   0.278984003026733   0.030967353227554 1
ion O   0.063820519051230   0.062113674621629   0.288963957843364 1
ion O   0.797594767731617   0.228195297824821   0.268632204282652 1
ion O   0.504374405149969   0.227521073281370   0.406543581529896 1
ion O   0.751755630248595   0.002513094734412   0.425088943531558 1
ion O   0.213194493564030   0.271209519260617   0.732638111510500 1
ion O   0.464108052507920   0.496007313257811   0.208143039844368 1
ion O   0.024620023607297   0.464932055606365   0.707726525246867 1
ion O   0.279812705949111   0.043529457109984   0.023410530653624 1

# Forces in Lattice coordinates:
force V   0.002135356921150  -0.000354637515294   0.002593054737968 1
force V   0.001530107509203  -0.000873747716996  -0.001963535381038 1
force V  -0.000456725948772   0.001513968700500  -0.001302656782105 1
force V   0.001300180000488  -0.000358781629468   0.001334541772419 1
force V  -0.000734011868389   0.003537918007558  -0.000608715121318 1
force V   0.000400776276780  -0.000803964500761   0.000768291752238 1
force V   0.001341574660145   0.002481965689771  -0.003614532697232 1
force V   0.001211638606243  -0.000086525740897  -0.000276775967228 1
force V  -0.000674337675449   0.001178522872824   0.000151930867316 1
force V  -0.000669489640135   0.000619041295413   0.000516632902549 1
force V   0.002489733156727   0.000027646079525  -0.000461753390208 1
force V  -0.002976746176227   0.001231759032056  -0.000300792161783 1
force V   0.001628126710222  -0.001273466419771   0.000060381870101 1
force V  -0.002199276717432   0.000992461604196   0.001563681637703 1
force V  -0.001476026348735   0.000910291791480   0.000843238864136 1
force V  -0.007925550761677  -0.013156357091824  -0.003262372358515 0
force O  -0.000743437944390   0.001786618190247   0.000435613485010 1
force O  -0.003426441146258  -0.000106206299515   0.002892958205309 1
force O  -0.001075719820739  -0.000238481695521   0.002551490807917 1
force O   0.000271490128012   0.001441797115319  -0.000750314606873 1
force O   0.000087002215094   0.000342701797591   0.000460494248481 1
force O   0.000579988509137  -0.003959661825101   0.003270823951130 1
force O  -0.001140049670448   0.000965766434519   0.000519555104109 1
force O   0.000083069555056   0.001766228878586  -0.001375863001451 1
force O  -0.000423612095366  -0.000919967638510   0.000902966939516 1
force O   0.000981852290712  -0.000676104132151   0.000487571438099 1
force O  -0.000714627969128   0.000481788828226   0.000176480763521 1
force O   0.000528276261361   0.001324746285516  -0.000506948478484 1
force O   0.000986123925821   0.000673036891175  -0.000744020538010 1
force O   0.000914118710340  -0.000109090022504   0.000608026292791 1
force O   0.001171295733592   0.000894848375828  -0.001076210378394 1
force O   0.000827593707549   0.000359390920701  -0.000279048986586 1
force O   0.003391574463317  -0.003704937726085  -0.002059154593927 1
force O  -0.000140711821357  -0.000082279523109   0.001735852991443 1
force O   0.002448809333396  -0.001814201747135  -0.000087317946456 1
force O   0.000245658839098   0.002118185639223  -0.002662521313598 1
force O  -0.001551369159030   0.001045108623717   0.001481832717871 1
force O   0.000467840821276   0.000365468369894  -0.000302981413070 1
force O  -0.000930766720965  -0.000814362841858   0.001982835047820 1
force O  -0.000034168880283   0.001391479888673  -0.000478044381946 1

# Energy components:
   Eewald =    -1128.0259857214466592
       EH =      366.7858708856255134
     Eloc =    -1095.5623872622315957
      Enl =       80.4782399769849661
      Exc =     -242.2727029704454367
 Exc_core =       14.1457384787938700
       KE =      470.6698099880817381
-------------------------------------
     Etot =    -1533.7814166246375862
       TS =        0.2936419147225129
-------------------------------------
        F =    -1534.0750585393600431

IonicMinimize: Iter:   2  F: -1534.075058539360043  |grad|_K:  9.456e-05  alpha:  1.000e+00  linmin: -7.420e-02  t[s]:   1459.98
IonicMinimize: Converged (|grad|_K<1.000000e-04).

#--- Lowdin population analysis ---
# oxidation-state V +1.074 +1.178 +1.107 +1.034 +1.121 +1.077 +1.074 +1.034 +1.119 +1.180 +1.107 +1.078 +1.005 +0.994 +0.994 +1.005
# oxidation-state O -0.634 -0.699 -0.630 -0.670 -0.637 -0.638 -0.653 -0.686 -0.652 -0.680 -0.662 -0.699 -0.699 -0.630 -0.700 -0.653 -0.635 -0.653 -0.639 -0.660 -0.637 -0.671 -0.681 -0.686


Dumping '/data/rc652/V2O3/ion/V2O3_ion.Ecomponents' ... done
End date and time: Thu Jul 25 16:46:56 2024  (Duration: 0-0:24:22.34)
Done!
