--------------------------------------------------------------------------
Initialization of PSM library failed.

  Error: PSM is in the finalized state
--------------------------------------------------------------------------

*************** JDFTx 1.7.0 (git hash 3664913) ***************

Start date and time: Thu Jun 27 12:53:34 2024
Executable jdftx with command-line: -i Y2O3_vac.in
Running on hosts (process indices):  node3002.physics.cornell.edu (0-15)
Divided in process groups (process indices):  0 (0)  1 (1)  2 (2)  3 (3)  4 (4)  5 (5)  6 (6)  7 (7)  8 (8)  9 (9)  10 (10)  11 (11)  12 (12)  13 (13)  14 (14)  15 (15)
Resource initialization completed at t[s]:      0.00
Run totals: 16 processes, 32 threads, 0 GPUs


Input parsed successfully to the following command list (including defaults):

basis kpoint-dependent
coords-type Lattice
core-overlap-check vector
coulomb-interaction Periodic
davidson-band-ratio 1.1
dump End Ecomponents
dump-name /data/rc652/Y2O3/vac/Y2O3_vac.$VAR
elec-cutoff 20 100
elec-eigen-algo Davidson
elec-ex-corr gga-PBEsol
elec-smearing Fermi 0.01
electronic-minimize  \
	dirUpdateScheme      FletcherReeves \
	linminMethod         DirUpdateRecommended \
	nIterations          100 \
	history              15 \
	knormThreshold       0 \
	maxThreshold         no \
	energyDiffThreshold  1e-08 \
	nEnergyDiff          2 \
	alphaTstart          1 \
	alphaTmin            1e-10 \
	updateTestStepSize   yes \
	alphaTreduceFactor   0.1 \
	alphaTincreaseFactor 3 \
	nAlphaAdjustMax      3 \
	wolfeEnergy          0.0001 \
	wolfeGradient        0.9 \
	fdTest               no
electronic-scf  \
	nIterations	50 \
	energyDiffThreshold	1e-08 \
	residualThreshold	1e-07 \
	mixFraction	0.5 \
	qMetric	0.8 \
	history	10 \
	nEigSteps	2 \
	eigDiffThreshold	1e-08 \
	mixedVariable	Density \
	qKerker	0.8 \
	qKappa	-1 \
	verbose	no \
	mixFractionMag	1.5
exchange-regularization WignerSeitzTruncated
fluid None
fluid-ex-corr lda-TF lda-PZ
fluid-gummel-loop 10 1.000000e-05
fluid-minimize  \
	dirUpdateScheme      PolakRibiere \
	linminMethod         DirUpdateRecommended \
	nIterations          100 \
	history              15 \
	knormThreshold       0 \
	maxThreshold         no \
	energyDiffThreshold  0 \
	nEnergyDiff          2 \
	alphaTstart          1 \
	alphaTmin            1e-10 \
	updateTestStepSize   yes \
	alphaTreduceFactor   0.1 \
	alphaTincreaseFactor 3 \
	nAlphaAdjustMax      3 \
	wolfeEnergy          0.0001 \
	wolfeGradient        0.9 \
	fdTest               no
fluid-solvent H2O 55.338 ScalarEOS \
	epsBulk 78.4 \
	pMol 0.92466 \
	epsInf 1.77 \
	Pvap 1.06736e-10 \
	sigmaBulk 4.62e-05 \
	Rvdw 2.61727 \
	Res 1.42 \
	tauNuc 343133 \
	poleEl 15 7 1
forces-output-coords Positions
ion O   0.004160000000000  -0.001310000000000   0.752990000000000 1
ion O   0.488690000000000   0.244510000000000   0.005100000000000 1
ion O   0.497800000000000   0.499530000000000   0.744110000000000 1
ion O   0.477610000000000   0.753170000000000   0.514060000000000 1
ion O   0.744840000000000   0.744940000000000   0.254100000000000 1
ion O   0.007590000000000   0.750890000000000   0.006120000000000 1
ion O  -0.003360000000000   0.489670000000000   0.249440000000000 1
ion O   0.250850000000000   0.742480000000000   0.766870000000000 1
ion O   0.754790000000000  -0.015530000000000   0.008040000000000 1
ion O   0.274950000000000   0.012600000000000   0.511670000000000 1
ion O   0.745880000000000   0.504460000000000   0.488270000000000 1
ion O   0.012560000000000   0.264880000000000  -0.000060000000000 1
ion O   0.750680000000000   0.001340000000000   0.504850000000000 1
ion O   0.747150000000000   0.247930000000000   0.246010000000000 1
ion O   0.502000000000000   0.245620000000000   0.513880000000000 1
ion O   0.502090000000000   0.505650000000000   0.259880000000000 1
ion O   0.251740000000000   0.245840000000000   0.741280000000000 1
ion O   0.503800000000000   0.743570000000000  -0.008970000000000 1
ion O   0.256660000000000   0.014160000000000   0.002420000000000 1
ion O   0.233210000000000   0.759430000000000   0.231530000000000 1
ion O  -0.011910000000000   0.470210000000000   0.740010000000000 1
ion O  -0.004540000000000   0.003430000000000   0.271870000000000 1
ion O   0.247080000000000   0.497030000000000   0.488860000000000 1
ion Y   0.757190000000000   0.721840000000000   0.954990000000000 1
ion Y   0.533360000000000   0.256030000000000   0.781730000000000 1
ion Y   0.798480000000000   0.538250000000000   0.262730000000000 1
ion Y   0.976320000000000   0.757010000000000   0.694730000000000 1
ion Y   0.695360000000000   0.960400000000000   0.745830000000000 1
ion Y   0.245370000000000   0.782700000000000   0.525870000000000 1
ion Y   0.750200000000000   0.231170000000000   0.478450000000000 1
ion Y   0.025360000000000   0.247330000000000   0.267210000000000 1
ion Y   0.271690000000000   0.013480000000000   0.272710000000000 1
ion Y   0.486550000000000   0.747880000000000   0.232640000000000 1
ion Y   0.218630000000000   0.479210000000000   0.754280000000000 1
ion Y   0.255100000000000   0.293810000000000   0.027130000000000 1
ion Y   0.005220000000000   0.489470000000000   0.002360000000000 1
ion Y   0.492170000000000  -0.004480000000000  -0.003810000000000 1
ion Y   0.001450000000000  -0.004450000000000   0.499320000000000 1
ion Y   0.499150000000000   0.497120000000000   0.504200000000000 1
ion-species GBRV/$ID_pbesol.uspp
ion-width 0
ionic-minimize  \
	dirUpdateScheme      L-BFGS \
	linminMethod         DirUpdateRecommended \
	nIterations          30 \
	history              15 \
	knormThreshold       0.0001 \
	maxThreshold         no \
	energyDiffThreshold  1e-06 \
	nEnergyDiff          2 \
	alphaTstart          1 \
	alphaTmin            1e-10 \
	updateTestStepSize   yes \
	alphaTreduceFactor   0.1 \
	alphaTincreaseFactor 3 \
	nAlphaAdjustMax      3 \
	wolfeEnergy          0.0001 \
	wolfeGradient        0.9 \
	fdTest               no
kpoint   0.500000000000   0.500000000000   0.500000000000  1.00000000000000
kpoint-folding 4 4 4 
latt-move-scale 1 1 1
latt-scale 1 1 1 
lattice  \
	  16.270760425093940   -8.135360109830996   -0.000000019385914  \
	   0.000000065721794   14.090834071502949   -0.000000033577194  \
	  -5.752566976195800   -5.752566976195567   17.257680834202077 
lattice-minimize  \
	dirUpdateScheme      L-BFGS \
	linminMethod         DirUpdateRecommended \
	nIterations          0 \
	history              15 \
	knormThreshold       0 \
	maxThreshold         no \
	energyDiffThreshold  1e-06 \
	nEnergyDiff          2 \
	alphaTstart          1 \
	alphaTmin            1e-10 \
	updateTestStepSize   yes \
	alphaTreduceFactor   0.1 \
	alphaTincreaseFactor 3 \
	nAlphaAdjustMax      3 \
	wolfeEnergy          0.0001 \
	wolfeGradient        0.9 \
	fdTest               no
lcao-params -1 1e-06 0.01
pcm-variant GLSSA13
perturb-minimize  \
	nIterations            0 \
	algorithm              MINRES \
	residualTol            0.0001 \
	residualDiffThreshold  0.0001 \
	CGBypass               no \
	recomputeResidual      no
spintype no-spin
subspace-rotation-factor 1 yes
symmetries automatic
symmetry-threshold 0.0001



---------- Setting up symmetries ----------

Found 48 point-group symmetries of the bravais lattice
Found 1 space-group symmetries with basis
Applied RMS atom displacement 0 bohrs to make symmetries exact.

---------- Initializing the Grid ----------
R = 
[      16.2708     -8.13536 -1.93859e-08  ]
[  6.57218e-08      14.0908 -3.35772e-08  ]
[     -5.75257     -5.75257      17.2577  ]
unit cell volume = 3956.64
G =
[   0.386164   0.222952 8.67571e-10  ]
[ -1.4944e-09   0.445906 8.67571e-10  ]
[   0.128722   0.222953   0.364081  ]
Minimum fftbox size, Smin = [  80  80  80  ]
Chosen fftbox size, S = [  80  80  80  ]

---------- Initializing tighter grid for wavefunction operations ----------
R = 
[      16.2708     -8.13536 -1.93859e-08  ]
[  6.57218e-08      14.0908 -3.35772e-08  ]
[     -5.75257     -5.75257      17.2577  ]
unit cell volume = 3956.64
G =
[   0.386164   0.222952 8.67571e-10  ]
[ -1.4944e-09   0.445906 8.67571e-10  ]
[   0.128722   0.222953   0.364081  ]
Minimum fftbox size, Smin = [  72  72  72  ]
Chosen fftbox size, S = [  72  72  72  ]

---------- Exchange Correlation functional ----------
Initalized PBEsol GGA exchange.
Initalized PBEsol GGA correlation.

---------- Setting up pseudopotentials ----------
Width of ionic core gaussian charges (only for fluid interactions / plotting) set to 0

Reading pseudopotential file '/home/rc652/build/pseudopotentials/GBRV/o_pbesol.uspp':
  Title: O.  Created by USPP 7.3.6 on 3-2-2014
  Reference state energy: -15.849885.  6 valence electrons in orbitals:
    |200>  occupation: 2  eigenvalue: -0.873214
    |210>  occupation: 4  eigenvalue: -0.330058
  lMax: 2  lLocal: 2  QijEcut: 6
  5 projectors sampled on a log grid with 511 points:
    l: 0  eig: -0.873214  rCut: 1.25
    l: 0  eig: 0.000000  rCut: 1.25
    l: 1  eig: -0.330058  rCut: 1.25
    l: 1  eig: 0.000000  rCut: 1.25
    l: 2  eig: 1.000000  rCut: 1.25
  Partial core density with radius 0.7
  Transforming core density to a uniform radial grid of dG=0.02 with 2190 points.
  Transforming local potential to a uniform radial grid of dG=0.02 with 2190 points.
  Transforming nonlocal projectors to a uniform radial grid of dG=0.02 with 432 points.
  Transforming density augmentations to a uniform radial grid of dG=0.02 with 2190 points.
  Transforming atomic orbitals to a uniform radial grid of dG=0.02 with 432 points.
  Core radius for overlap checks: 1.25 bohrs.

Reading pseudopotential file '/home/rc652/build/pseudopotentials/GBRV/y_pbesol.uspp':
  Title: Y.  Created by USPP 7.3.6 on 22-9-15
  Reference state energy: -46.146201.  11 valence electrons in orbitals:
    |400>  occupation: 2  eigenvalue: -1.762090
    |410>  occupation: 6  eigenvalue: -1.024857
    |420>  occupation: 1  eigenvalue: -0.092849
    |500>  occupation: 2  eigenvalue: -0.151409
    |510>  occupation: 0  eigenvalue: -0.052344
  lMax: 2  lLocal: 3  QijEcut: 5.5
  6 projectors sampled on a log grid with 623 points:
    l: 0  eig: -1.762090  rCut: 1.8
    l: 0  eig: -0.092849  rCut: 1.8
    l: 1  eig: -1.024857  rCut: 2
    l: 1  eig: 0.150000  rCut: 2
    l: 2  eig: -0.151409  rCut: 2.2
    l: 2  eig: 0.150000  rCut: 2.2
  Partial core density with radius 1.1
  Transforming core density to a uniform radial grid of dG=0.02 with 2190 points.
  Transforming local potential to a uniform radial grid of dG=0.02 with 2190 points.
  Transforming nonlocal projectors to a uniform radial grid of dG=0.02 with 432 points.
  Transforming density augmentations to a uniform radial grid of dG=0.02 with 2190 points.
  Transforming atomic orbitals to a uniform radial grid of dG=0.02 with 432 points.
  Core radius for overlap checks: 2.20 bohrs.

Initialized 2 species with 39 total atoms.

Folded 1 k-points by 4x4x4 to 64 k-points.

---------- Setting up k-points, bands, fillings ----------
Adding inversion symmetry to k-mesh for non-inversion-symmetric unit cell.
Reduced to 32 k-points under symmetry. 
Computing the number of bands and number of electrons
Calculating initial fillings.
nElectrons: 314.000000   nBands: 300   nStates: 32

----- Setting up reduced wavefunction bases (one per k-point) -----
average nbasis = 16906.375 , ideal nbasis = 16903.085

---------- Setting up ewald sum ----------
Optimum gaussian width for ewald sums = 3.378258 bohr.
Real space sum over 729 unit cells with max indices [  4  4  4  ]
Reciprocal space sum over 6859 terms with max indices [  9  9  9  ]

---------- Allocating electronic variables ----------
Initializing wave functions:  linear combination of atomic orbitals
O pseudo-atom occupations:   s ( 2 )  p ( 4 )
Y pseudo-atom occupations:   s ( 2 2 )  p ( 6 0 )  d ( 1 )
	FillingsUpdate:  mu: +0.505692246  nElectrons: 314.000000
LCAOMinimize: Iter:   0  F: -982.0019719053935887  |grad|_K:  3.020e-03  alpha:  1.000e+00
	FillingsUpdate:  mu: +0.492489390  nElectrons: 314.000000
LCAOMinimize: Iter:   1  F: -984.4579110888803370  |grad|_K:  2.444e-03  alpha:  9.607e-02  linmin: -4.079e-01  cgtest:  8.819e-01  t[s]:     93.66
LCAOMinimize: Encountered beta<0, resetting CG.
LCAOMinimize: 	Predicted alpha/alphaT>3.000000, increasing alphaT to 2.882070e-01.
	FillingsUpdate:  mu: +0.383304951  nElectrons: 314.000000
LCAOMinimize: Iter:   2  F: -987.0510503107778959  |grad|_K:  1.686e-03  alpha:  2.529e-01  linmin:  1.255e-01  cgtest: -1.445e-01  t[s]:    137.12
	FillingsUpdate:  mu: +0.370722497  nElectrons: 314.000000
LCAOMinimize: Iter:   3  F: -987.1236574635477155  |grad|_K:  1.265e-03  alpha:  4.066e-02  linmin:  2.878e-03  cgtest:  9.486e-01  t[s]:    171.99
LCAOMinimize: Encountered beta<0, resetting CG.
	FillingsUpdate:  mu: +0.375527985  nElectrons: 314.000000
LCAOMinimize: Iter:   4  F: -987.3282792821877365  |grad|_K:  3.248e-04  alpha:  8.144e-02  linmin: -2.670e-01  cgtest:  6.882e-01  t[s]:    206.62
LCAOMinimize: Encountered beta<0, resetting CG.
	FillingsUpdate:  mu: +0.375159849  nElectrons: 314.000000
LCAOMinimize: Iter:   5  F: -987.3507867779188700  |grad|_K:  7.180e-05  alpha:  1.432e-01  linmin: -1.272e-01  cgtest:  2.547e-01  t[s]:    241.31
LCAOMinimize: Encountered beta<0, resetting CG.
	FillingsUpdate:  mu: +0.374574776  nElectrons: 314.000000
LCAOMinimize: Iter:   6  F: -987.3530860984191122  |grad|_K:  5.682e-05  alpha:  3.114e-01  linmin:  8.233e-03  cgtest: -1.722e-02  t[s]:    275.83
	FillingsUpdate:  mu: +0.374318831  nElectrons: 314.000000
LCAOMinimize: Iter:   7  F: -987.3544052946388092  |grad|_K:  2.895e-05  alpha:  2.887e-01  linmin:  1.074e-04  cgtest:  3.952e-02  t[s]:    310.58
	FillingsUpdate:  mu: +0.374167870  nElectrons: 314.000000
LCAOMinimize: Iter:   8  F: -987.3546858878737567  |grad|_K:  1.000e-05  alpha:  2.303e-01  linmin:  2.305e-03  cgtest:  1.487e-02  t[s]:    345.47
	FillingsUpdate:  mu: +0.374155708  nElectrons: 314.000000
LCAOMinimize: Iter:   9  F: -987.3547215746581287  |grad|_K:  4.946e-06  alpha:  2.467e-01  linmin:  1.378e-04  cgtest:  7.618e-03  t[s]:    380.03
	FillingsUpdate:  mu: +0.374256517  nElectrons: 314.000000
LCAOMinimize: Iter:  10  F: -987.3547273641321453  |grad|_K:  2.418e-06  alpha:  1.634e-01  linmin:  8.880e-06  cgtest: -4.155e-03  t[s]:    414.85
	FillingsUpdate:  mu: +0.374223306  nElectrons: 314.000000
LCAOMinimize: Iter:  11  F: -987.3547292671744344  |grad|_K:  1.325e-06  alpha:  2.246e-01  linmin:  2.713e-04  cgtest:  4.177e-04  t[s]:    449.62
	FillingsUpdate:  mu: +0.374221376  nElectrons: 314.000000
LCAOMinimize: Iter:  12  F: -987.3547301059378469  |grad|_K:  6.892e-07  alpha:  3.300e-01  linmin:  1.720e-04  cgtest:  8.838e-04  t[s]:    484.27
	FillingsUpdate:  mu: +0.374219360  nElectrons: 314.000000
LCAOMinimize: Iter:  13  F: -987.3547302838363748  |grad|_K:  4.001e-07  alpha:  2.585e-01  linmin:  7.818e-05  cgtest:  2.468e-04  t[s]:    518.81
LCAOMinimize: Converged (|Delta F|<1.000000e-06 for 2 iters).


---- Citations for features of the code used in this run ----

   Software package:
      R. Sundararaman, K. Letchworth-Weaver, K.A. Schwarz, D. Gunceler, Y. Ozhabes and T.A. Arias, 'JDFTx: software for joint density-functional theory', SoftwareX 6, 278 (2017)

   gga-PBEsol exchange-correlation functional:
      J.P. Perdew et al., Phys. Rev. Lett. 100, 136406 (2008)

   Pseudopotentials:
      KF Garrity, JW Bennett, KM Rabe and D Vanderbilt, Comput. Mater. Sci. 81, 446 (2014)

This list may not be complete. Please suggest additional citations or
report any other bugs at https://github.com/shankar1729/jdftx/issues

Initialization completed successfully at t[s]:    528.97


-------- Electronic minimization -----------
Will mix electronic density at each iteration.
	FillingsUpdate:  mu: +0.374219360  nElectrons: 314.000000
	FillingsUpdate:  mu: +0.366308559  nElectrons: 314.000000
SCF: Cycle:  0   F: -987.904322858146088   dF: -5.496e-01   |Residual|: 3.708e-01   |deigs|: 3.591e-02  t[s]:    652.27
	FillingsUpdate:  mu: +0.359333579  nElectrons: 314.000000
SCF: Cycle:  1   F: -987.925213949411045   dF: -2.089e-02   |Residual|: 1.497e-01   |deigs|: 7.775e-03  t[s]:    750.47
	FillingsUpdate:  mu: +0.362248278  nElectrons: 314.000000
SCF: Cycle:  2   F: -987.970165570405015   dF: -4.495e-02   |Residual|: 1.211e-01   |deigs|: 4.899e-03  t[s]:    847.30
	FillingsUpdate:  mu: +0.360327218  nElectrons: 314.000000
SCF: Cycle:  3   F: -987.978161338171503   dF: -7.996e-03   |Residual|: 6.594e-02   |deigs|: 1.138e-03  t[s]:    940.02
	FillingsUpdate:  mu: +0.360447182  nElectrons: 314.000000
SCF: Cycle:  4   F: -987.986105441481868   dF: -7.944e-03   |Residual|: 1.410e-02   |deigs|: 3.736e-04  t[s]:   1031.51
	FillingsUpdate:  mu: +0.360662045  nElectrons: 314.000000
SCF: Cycle:  5   F: -987.986170942245167   dF: -6.550e-05   |Residual|: 8.900e-03   |deigs|: 2.001e-04  t[s]:   1092.44
	FillingsUpdate:  mu: +0.360816178  nElectrons: 314.000000
SCF: Cycle:  6   F: -987.986239311753707   dF: -6.837e-05   |Residual|: 4.189e-03   |deigs|: 1.971e-04  t[s]:   1153.43
	FillingsUpdate:  mu: +0.360821474  nElectrons: 314.000000
SCF: Cycle:  7   F: -987.986268758008237   dF: -2.945e-05   |Residual|: 1.527e-03   |deigs|: 4.118e-05  t[s]:   1214.70
	FillingsUpdate:  mu: +0.360829870  nElectrons: 314.000000
SCF: Cycle:  8   F: -987.986270848573668   dF: -2.091e-06   |Residual|: 8.431e-04   |deigs|: 2.605e-05  t[s]:   1275.69
	FillingsUpdate:  mu: +0.360856167  nElectrons: 314.000000
SCF: Cycle:  9   F: -987.986271585731060   dF: -7.372e-07   |Residual|: 3.057e-04   |deigs|: 2.471e-05  t[s]:   1337.00
	FillingsUpdate:  mu: +0.360862780  nElectrons: 314.000000
SCF: Cycle: 10   F: -987.986271726289601   dF: -1.406e-07   |Residual|: 1.372e-04   |deigs|: 6.040e-06  t[s]:   1397.97
	FillingsUpdate:  mu: +0.360863393  nElectrons: 314.000000
SCF: Cycle: 11   F: -987.986271754622180   dF: -2.833e-08   |Residual|: 5.835e-05   |deigs|: 2.166e-06  t[s]:   1459.21
	FillingsUpdate:  mu: +0.360863659  nElectrons: 314.000000
SCF: Cycle: 12   F: -987.986271761714079   dF: -7.092e-09   |Residual|: 3.215e-05   |deigs|: 1.652e-06  t[s]:   1520.80
	FillingsUpdate:  mu: +0.360864200  nElectrons: 314.000000
SCF: Cycle: 13   F: -987.986271765034417   dF: -3.320e-09   |Residual|: 9.614e-06   |deigs|: 1.654e-06  t[s]:   1581.96
SCF: Converged (|Delta E|<1.000000e-08 for 2 iters).

Setting wave functions to eigenvectors of Hamiltonian

# Ionic positions in lattice coordinates:
ion O   0.004160000000000  -0.001310000000000   0.752990000000000 1
ion O   0.488690000000000   0.244510000000000   0.005100000000000 1
ion O   0.497800000000000   0.499530000000000   0.744110000000000 1
ion O   0.477610000000000   0.753170000000000   0.514060000000000 1
ion O   0.744840000000000   0.744940000000000   0.254100000000000 1
ion O   0.007590000000000   0.750890000000000   0.006120000000000 1
ion O  -0.003360000000000   0.489670000000000   0.249440000000000 1
ion O   0.250850000000000   0.742480000000000   0.766870000000000 1
ion O   0.754790000000000  -0.015530000000000   0.008040000000000 1
ion O   0.274950000000000   0.012600000000000   0.511670000000000 1
ion O   0.745880000000000   0.504460000000000   0.488270000000000 1
ion O   0.012560000000000   0.264880000000000  -0.000060000000000 1
ion O   0.750680000000000   0.001340000000000   0.504850000000000 1
ion O   0.747150000000000   0.247930000000000   0.246010000000000 1
ion O   0.502000000000000   0.245620000000000   0.513880000000000 1
ion O   0.502090000000000   0.505650000000000   0.259880000000000 1
ion O   0.251740000000000   0.245840000000000   0.741280000000000 1
ion O   0.503800000000000   0.743570000000000  -0.008970000000000 1
ion O   0.256660000000000   0.014160000000000   0.002420000000000 1
ion O   0.233210000000000   0.759430000000000   0.231530000000000 1
ion O  -0.011910000000000   0.470210000000000   0.740010000000000 1
ion O  -0.004540000000000   0.003430000000000   0.271870000000000 1
ion O   0.247080000000000   0.497030000000000   0.488860000000000 1
ion Y   0.757190000000000   0.721840000000000   0.954990000000000 1
ion Y   0.533360000000000   0.256030000000000   0.781730000000000 1
ion Y   0.798480000000000   0.538250000000000   0.262730000000000 1
ion Y   0.976320000000000   0.757010000000000   0.694730000000000 1
ion Y   0.695360000000000   0.960400000000000   0.745830000000000 1
ion Y   0.245370000000000   0.782700000000000   0.525870000000000 1
ion Y   0.750200000000000   0.231170000000000   0.478450000000000 1
ion Y   0.025360000000000   0.247330000000000   0.267210000000000 1
ion Y   0.271690000000000   0.013480000000000   0.272710000000000 1
ion Y   0.486550000000000   0.747880000000000   0.232640000000000 1
ion Y   0.218630000000000   0.479210000000000   0.754280000000000 1
ion Y   0.255100000000000   0.293810000000000   0.027130000000000 1
ion Y   0.005220000000000   0.489470000000000   0.002360000000000 1
ion Y   0.492170000000000  -0.004480000000000  -0.003810000000000 1
ion Y   0.001450000000000  -0.004450000000000   0.499320000000000 1
ion Y   0.499150000000000   0.497120000000000   0.504200000000000 1

# Forces in Lattice coordinates:
force O  -0.418933107470751   0.150013026995535  -0.101603192726685 1
force O   0.838191897133140   0.251908660758357  -0.880425835101704 1
force O   0.654403420994596  -0.319022142547130   0.076373548838615 1
force O  -0.046128220907891   0.121712127740302   0.060003875918438 1
force O   0.514991379421280  -0.235989316158775  -0.189091817456191 1
force O  -0.337360030079394   0.083373138224139  -0.429828934009948 1
force O   0.102556321560431   0.569260271750904  -0.275993195617968 1
force O  -0.256974595173644   0.777924220628144  -0.891243612381525 1
force O   0.150148574550538   0.182583670430412  -0.848652424349030 1
force O  -0.216435455844576  -0.446151102168911   0.820556419910519 1
force O   0.090145936236139   0.240238374165104   0.085012558650832 1
force O  -0.181247057374331  -0.216439203827048   0.281283625111246 1
force O  -0.455197843725524   0.601211883590615  -0.241051285059985 1
force O   0.256463063670188  -0.744354495802275   0.634914763985593 1
force O   0.887754339613926  -0.110341289202129  -0.530974431127321 1
force O  -0.796833853017441   0.486211597377427  -0.059609023300359 1
force O  -0.501571300821832   0.455474101818010   0.246220964370279 1
force O  -0.806645056744587  -0.193648975756523   0.896858575202058 1
force O  -0.271658069804208  -0.006114355432661   0.788342406684562 1
force O   0.955661111847928  -0.657638490403785  -0.020559460892233 1
force O  -0.393005762916385  -0.539147960395186   0.299586602398486 1
force O   0.571601090820431   0.436832997369443  -0.476532899379222 1
force O  -0.087399409341429  -0.718834868836249   0.392777537826502 1
force Y  -1.071629693984608   0.768958688778084   1.235159928833554 1
force Y  -1.748295587742593   1.037190136878634  -0.296084650791955 1
force Y  -1.387573490786753  -0.792266173210250   0.723815167738759 1
force Y   0.618627440589649  -1.253230201060392   1.583918730949523 1
force Y   1.348853243479799   0.209651404511281  -0.462270799531706 1
force Y   1.005901411927835  -1.316105754468266  -0.489706888377942 1
force Y  -0.619752473888813   1.017340567246932   0.081338755390579 1
force Y  -1.023932650702096   0.762549781994112  -0.683259136109828 1
force Y  -0.843941400987482  -0.139350317692047  -0.116560706046801 1
force Y   0.838865752062622  -0.652447556647216   0.559868988658563 1
force Y   1.603723243447449   0.589309023493525  -1.172288642123404 1
force Y   1.525368811775426  -1.540573585155338  -0.899368128571306 1
force Y  -0.240966868856683   0.889602422360478   0.056359668360042 1
force Y  -0.020530588142641  -0.007359567618228   0.185378405029612 1
force Y  -0.228414707320934   0.241361178410537   0.183394520563143 1
force Y  -0.007619017202729   0.014354727603231  -0.126662644086649 1

# Energy components:
   Eewald =     -776.4612869516039382
       EH =      205.3646371985317387
     Eloc =     -729.5837169522234262
      Enl =      147.0977992272206620
      Exc =     -301.6168995633563554
 Exc_core =      126.2367086575810333
       KE =      341.0547217123737482
-------------------------------------
     Etot =     -987.9080366714765660
       TS =        0.0782350935578025
-------------------------------------
        F =     -987.9862717650344166

IonicMinimize: Iter:   0  F: -987.986271765034417  |grad|_K:  3.832e-02  t[s]:   1594.63

#--- Lowdin population analysis ---
# oxidation-state O -0.360 -0.360 -0.371 -0.353 -0.371 -0.377 -0.367 -0.384 -0.383 -0.356 -0.386 -0.374 -0.405 -0.379 -0.403 -0.376 -0.379 -0.372 -0.367 -0.364 -0.382 -0.378 -0.382
# oxidation-state Y +0.565 +0.597 +0.532 +0.545 +0.536 +0.578 +0.592 +0.631 +0.592 +0.641 +0.594 +0.573 +0.495 +0.547 +0.541 +0.594


-------- Electronic minimization -----------
Will mix electronic density at each iteration.
	FillingsUpdate:  mu: +0.360864200  nElectrons: 314.000000
	FillingsUpdate:  mu: +0.377402964  nElectrons: 314.000000
SCF: Cycle:  0   F: -986.853068152133574   dF: -1.671e-03   |Residual|: 8.806e-01   |deigs|: 4.195e-03  t[s]:   1731.58
	FillingsUpdate:  mu: +0.371075856  nElectrons: 314.000000
SCF: Cycle:  1   F: -987.948604378194432   dF: -1.096e+00   |Residual|: 3.541e-01   |deigs|: 8.544e-03  t[s]:   1830.54
	FillingsUpdate:  mu: +0.363393971  nElectrons: 314.000000
SCF: Cycle:  2   F: -988.027133707974713   dF: -7.853e-02   |Residual|: 1.825e-01   |deigs|: 4.943e-03  t[s]:   1928.76
	FillingsUpdate:  mu: +0.363552728  nElectrons: 314.000000
SCF: Cycle:  3   F: -988.114634135140818   dF: -8.750e-02   |Residual|: 5.793e-02   |deigs|: 2.608e-03  t[s]:   2026.98
	FillingsUpdate:  mu: +0.363056476  nElectrons: 314.000000
SCF: Cycle:  4   F: -988.115593319467052   dF: -9.592e-04   |Residual|: 3.497e-02   |deigs|: 4.208e-04  t[s]:   2118.93
	FillingsUpdate:  mu: +0.362917566  nElectrons: 314.000000
SCF: Cycle:  5   F: -988.117767319263180   dF: -2.174e-03   |Residual|: 1.072e-02   |deigs|: 3.449e-04  t[s]:   2204.59
	FillingsUpdate:  mu: +0.362889081  nElectrons: 314.000000
SCF: Cycle:  6   F: -988.118112144623296   dF: -3.448e-04   |Residual|: 4.908e-03   |deigs|: 1.361e-04  t[s]:   2265.81
	FillingsUpdate:  mu: +0.362846020  nElectrons: 314.000000
SCF: Cycle:  7   F: -988.118145512850333   dF: -3.337e-05   |Residual|: 2.963e-03   |deigs|: 5.704e-05  t[s]:   2326.58
	FillingsUpdate:  mu: +0.362853578  nElectrons: 314.000000
SCF: Cycle:  8   F: -988.118155577519474   dF: -1.006e-05   |Residual|: 1.208e-03   |deigs|: 3.269e-05  t[s]:   2387.47
	FillingsUpdate:  mu: +0.362870364  nElectrons: 314.000000
SCF: Cycle:  9   F: -988.118158064255567   dF: -2.487e-06   |Residual|: 5.629e-04   |deigs|: 1.238e-05  t[s]:   2448.40
	FillingsUpdate:  mu: +0.362873978  nElectrons: 314.000000
SCF: Cycle: 10   F: -988.118158449956923   dF: -3.857e-07   |Residual|: 2.672e-04   |deigs|: 5.561e-06  t[s]:   2509.94
	FillingsUpdate:  mu: +0.362872106  nElectrons: 314.000000
SCF: Cycle: 11   F: -988.118158562818849   dF: -1.129e-07   |Residual|: 1.214e-04   |deigs|: 2.128e-06  t[s]:   2571.32
	FillingsUpdate:  mu: +0.362872267  nElectrons: 314.000000
SCF: Cycle: 12   F: -988.118158588789242   dF: -2.597e-08   |Residual|: 5.694e-05   |deigs|: 1.001e-06  t[s]:   2632.73
	FillingsUpdate:  mu: +0.362872303  nElectrons: 314.000000
SCF: Cycle: 13   F: -988.118158597192291   dF: -8.403e-09   |Residual|: 2.423e-05   |deigs|: 5.676e-07  t[s]:   2694.30
	FillingsUpdate:  mu: +0.362872238  nElectrons: 314.000000
SCF: Cycle: 14   F: -988.118158599286176   dF: -2.094e-09   |Residual|: 1.061e-05   |deigs|: 3.760e-07  t[s]:   2755.34
SCF: Converged (|Delta E|<1.000000e-08 for 2 iters).

Setting wave functions to eigenvectors of Hamiltonian
IonicMinimize: 	Wolfe criterion not satisfied: alpha: 0.791104  (E-E0)/|gdotd0|: -0.767805  gdotd/gdotd0: 0.939989 (taking cubic step)

-------- Electronic minimization -----------
Will mix electronic density at each iteration.
	FillingsUpdate:  mu: +0.362872238  nElectrons: 314.000000
	FillingsUpdate:  mu: +0.390706211  nElectrons: 314.000000
SCF: Cycle:  0   F: -984.194214758853491   dF: -8.154e-01   |Residual|: 1.711e+00   |deigs|: 1.626e-02  t[s]:   2905.16
	FillingsUpdate:  mu: +0.383496911  nElectrons: 314.000000
SCF: Cycle:  1   F: -987.758225917351751   dF: -3.564e+00   |Residual|: 6.231e-01   |deigs|: 1.893e-02  t[s]:   3002.88
	FillingsUpdate:  mu: +0.373230695  nElectrons: 314.000000
SCF: Cycle:  2   F: -988.225020230467180   dF: -4.668e-01   |Residual|: 2.261e-01   |deigs|: 5.414e-03  t[s]:   3100.80
	FillingsUpdate:  mu: +0.370984327  nElectrons: 314.000000
SCF: Cycle:  3   F: -988.347378745167475   dF: -1.224e-01   |Residual|: 9.375e-02   |deigs|: 2.504e-03  t[s]:   3198.72
	FillingsUpdate:  mu: +0.369799963  nElectrons: 314.000000
SCF: Cycle:  4   F: -988.352132294311218   dF: -4.754e-03   |Residual|: 3.208e-02   |deigs|: 5.338e-04  t[s]:   3296.68
	FillingsUpdate:  mu: +0.369078560  nElectrons: 314.000000
SCF: Cycle:  5   F: -988.354549388095620   dF: -2.417e-03   |Residual|: 1.306e-02   |deigs|: 3.701e-04  t[s]:   3383.59
	FillingsUpdate:  mu: +0.368902690  nElectrons: 314.000000
SCF: Cycle:  6   F: -988.354911506246594   dF: -3.621e-04   |Residual|: 7.213e-03   |deigs|: 1.230e-04  t[s]:   3444.53
	FillingsUpdate:  mu: +0.368919547  nElectrons: 314.000000
SCF: Cycle:  7   F: -988.354972210399410   dF: -6.070e-05   |Residual|: 2.969e-03   |deigs|: 8.259e-05  t[s]:   3505.78
	FillingsUpdate:  mu: +0.368947986  nElectrons: 314.000000
SCF: Cycle:  8   F: -988.354983166462148   dF: -1.096e-05   |Residual|: 1.226e-03   |deigs|: 3.647e-05  t[s]:   3566.90
	FillingsUpdate:  mu: +0.368960879  nElectrons: 314.000000
SCF: Cycle:  9   F: -988.354985897144502   dF: -2.731e-06   |Residual|: 6.028e-04   |deigs|: 1.515e-05  t[s]:   3627.99
	FillingsUpdate:  mu: +0.368956978  nElectrons: 314.000000
SCF: Cycle: 10   F: -988.354986303081887   dF: -4.059e-07   |Residual|: 2.328e-04   |deigs|: 3.812e-06  t[s]:   3689.27
	FillingsUpdate:  mu: +0.368955894  nElectrons: 314.000000
SCF: Cycle: 11   F: -988.354986411187269   dF: -1.081e-07   |Residual|: 1.027e-04   |deigs|: 2.762e-06  t[s]:   3750.89
	FillingsUpdate:  mu: +0.368955965  nElectrons: 314.000000
SCF: Cycle: 12   F: -988.354986438886613   dF: -2.770e-08   |Residual|: 4.265e-05   |deigs|: 1.533e-06  t[s]:   3812.16
	FillingsUpdate:  mu: +0.368956138  nElectrons: 314.000000
SCF: Cycle: 13   F: -988.354986450125693   dF: -1.124e-08   |Residual|: 1.880e-05   |deigs|: 1.048e-06  t[s]:   3873.44
	FillingsUpdate:  mu: +0.368956133  nElectrons: 314.000000
SCF: Cycle: 14   F: -988.354986455901553   dF: -5.776e-09   |Residual|: 1.287e-05   |deigs|: 9.700e-07  t[s]:   3934.21
	FillingsUpdate:  mu: +0.368956165  nElectrons: 314.000000
SCF: Cycle: 15   F: -988.354986459012025   dF: -3.110e-09   |Residual|: 7.266e-06   |deigs|: 9.159e-07  t[s]:   3995.56
SCF: Converged (|Delta E|<1.000000e-08 for 2 iters).

Setting wave functions to eigenvectors of Hamiltonian

# Ionic positions in lattice coordinates:
ion O  -0.000558174667776  -0.002627381068409   0.750168619258577 1
ion O   0.494952603901367   0.247269171724801   0.001091498938752 1
ion O   0.504171923372366   0.500084718348811   0.747027607509300 1
ion O   0.478144681601740   0.754708274454242   0.515229264699873 1
ion O   0.748455214192866   0.744067447266383   0.253507520802497 1
ion O   0.001486942933301   0.747301928308900  -0.000535452726528 1
ion O  -0.000381393401156   0.495438383132816   0.250156471242195 1
ion O   0.247101148354410   0.744916733710166   0.759330659654545 1
ion O   0.752603972220136  -0.017521703860155  -0.000115147843653 1
ion O   0.274600600754619   0.010878178117217   0.517518517627560 1
ion O   0.748901413282911   0.508378947203356   0.491261022475923 1
ion O   0.010781111078738   0.262891259773660   0.000925721904438 1
ion O   0.747391545900514   0.004365694445957   0.502841661007911 1
ion O   0.749561451922494   0.244360517906963   0.250683584524246 1
ion O   0.508778529791793   0.246433885025470   0.512179732829321 1
ion O   0.495115051507271   0.506343680402826   0.257311355743103 1
ion O   0.249938432357432   0.249758732908039   0.743947917038125 1
ion O   0.498360920028074   0.741794976546833  -0.004227746289927 1
ion O   0.258087894282335   0.017175420057149   0.010183326828042 1
ion O   0.240579786768331   0.757158350927908   0.233065671318520 1
ion O  -0.018039342018558   0.463207687320518   0.738020228112231 1
ion O   0.002055123461048   0.009220193312160   0.272201199195868 1
ion O   0.244086631746641   0.490263299706156   0.488736705987843 1
ion Y   0.756358486970010   0.732009326326444   0.967945401901964 1
ion Y   0.516891844291909   0.256209827740348   0.773941251978098 1
ion Y   0.781485203203013   0.524813485122743   0.258354237003908 1
ion Y   0.985690847814093   0.755194138175000   0.709870294323359 1
ion Y   0.709973118902482   0.968205185165467   0.749619183191628 1
ion Y   0.246601077177603   0.770053988735602   0.518162792861556 1
ion Y   0.749358405359354   0.240113045680713   0.481798777522376 1
ion Y   0.013594815404805   0.246242234285677   0.257481085651911 1
ion Y   0.260072901429673   0.006074349136300   0.265440357074902 1
ion Y   0.496023701271189   0.748441332317327   0.240446589718091 1
ion Y   0.234315184085519   0.488833054399514   0.753374546846626 1
ion Y   0.258750391265751   0.279137152653756   0.016289134321058 1
ion Y   0.007993320116591   0.499000716459465   0.006910589105485 1
ion Y   0.492988553021163  -0.003582240866186  -0.001760539474163 1
ion Y   0.001258341716311  -0.001833537804500   0.501589815657214 1
ion Y   0.498387738599640   0.496489546800563   0.502726542477225 1

# Forces in Lattice coordinates:
force O  -0.264081220173057  -0.213369964308973  -0.048118117042522 1
force O   0.756836758955648   0.171379366850758  -0.603804658591583 1
force O   0.532440242591354  -0.223687215655868   0.107102045360841 1
force O   0.133447892308163   0.058442590588591   0.197988611193717 1
force O   0.599056402610823  -0.291123178300056  -0.197584499578980 1
force O  -0.372250635976508   0.102476757909913  -0.362567665636181 1
force O  -0.311400731676544   0.695095092649966  -0.067106703769412 1
force O  -0.219222118196962   0.696065693675467  -0.729725243970542 1
force O   0.023405904311170   0.153101541575013  -0.637683157742862 1
force O  -0.183145262140343  -0.425174244909786   0.653693176286818 1
force O   0.115844952637839   0.322863694652232   0.005524622590193 1
force O   0.077184682475196  -0.093857452340020   0.105899613744350 1
force O  -0.314735754070216   0.511857466317017  -0.289570172082496 1
force O   0.276832231364415  -0.593888819657159   0.349451958968609 1
force O   0.587536528184432  -0.121265833778311  -0.555497100811372 1
force O  -0.629314347467112   0.294606312820104  -0.075178425622652 1
force O  -0.464496745554444   0.419410363855082   0.242241963100927 1
force O  -0.724508746348682  -0.091622448314775   0.676066571109772 1
force O  -0.169436186795973   0.003976954624117   0.690352825304124 1
force O   0.786862680591157  -0.417238488305110  -0.130203797872191 1
force O   0.202238483742205  -0.517491648675277   0.135415290594787 1
force O   0.468135107980188   0.368808764540286  -0.359737490802370 1
force O  -0.076587322486632  -0.695986472998443   0.415157623234087 1
force Y  -0.915372247342557   0.554772914629189   1.159416425290459 1
force Y  -1.301114774816553   0.881633998868771  -0.490234069989569 1
force Y  -1.004863104413261  -0.779679950943963   0.597773206175337 1
force Y   0.454915792437626  -0.897424271445563   1.412976599045569 1
force Y   1.197163700929287   0.299280225401207  -0.676136239707928 1
force Y   0.779902975172707  -1.024485589608660  -0.559617309898655 1
force Y  -0.614956871852008   0.693430047109825   0.309454373474549 1
force Y  -0.826538742203875   0.709800386878289  -0.636756988583266 1
force Y  -0.645162805277997  -0.201874431459804   0.081588194070906 1
force Y   0.591980799764921  -0.497456156087547   0.595790278477169 1
force Y   0.948531015547970   0.659615216190449  -0.916488297107043 1
force Y   0.871364628703855  -1.193392484140455  -0.639706157071698 1
force Y  -0.057627454235351   0.491262746819199   0.049381829966873 1
force Y  -0.069419806637313   0.023991666077926   0.129675243485753 1
force Y  -0.204141694096828   0.164623612039004   0.121509881840677 1
force Y  -0.036016831075072   0.005068061267766  -0.061930131457867 1

# Energy components:
   Eewald =     -774.3591895269554470
       EH =      207.7963286808030148
     Eloc =     -734.2685312952152117
      Enl =      146.9665928259763632
      Exc =     -301.7519985291975217
 Exc_core =      126.2367040968558456
       KE =      341.0747147079458159
-------------------------------------
     Etot =     -988.3053790397871126
       TS =        0.0496074192248974
-------------------------------------
        F =     -988.3549864590120251

IonicMinimize: Iter:   1  F: -988.354986459012025  |grad|_K:  3.145e-02  alpha:  2.373e+00  linmin: -9.717e-01  t[s]:   4008.51

#--- Lowdin population analysis ---
# oxidation-state O -0.387 -0.388 -0.391 -0.369 -0.392 -0.398 -0.387 -0.398 -0.389 -0.378 -0.397 -0.409 -0.420 -0.396 -0.420 -0.397 -0.392 -0.401 -0.404 -0.381 -0.410 -0.403 -0.403
# oxidation-state Y +0.589 +0.585 +0.575 +0.594 +0.570 +0.585 +0.573 +0.640 +0.622 +0.640 +0.638 +0.610 +0.546 +0.616 +0.600 +0.636


-------- Electronic minimization -----------
Will mix electronic density at each iteration.
	FillingsUpdate:  mu: +0.368956165  nElectrons: 314.000000
	FillingsUpdate:  mu: +0.388610033  nElectrons: 314.000000
SCF: Cycle:  0   F: -987.617131274016742   dF: -4.202e-01   |Residual|: 8.440e-01   |deigs|: 3.835e-03  t[s]:   4145.73
	FillingsUpdate:  mu: +0.380964170  nElectrons: 314.000000
SCF: Cycle:  1   F: -988.355446826272782   dF: -7.383e-01   |Residual|: 3.021e-01   |deigs|: 6.642e-03  t[s]:   4243.59
	FillingsUpdate:  mu: +0.374744037  nElectrons: 314.000000
SCF: Cycle:  2   F: -988.444128644228840   dF: -8.868e-02   |Residual|: 1.065e-01   |deigs|: 3.408e-03  t[s]:   4341.42
	FillingsUpdate:  mu: +0.374277811  nElectrons: 314.000000
SCF: Cycle:  3   F: -988.464484125145418   dF: -2.036e-02   |Residual|: 4.075e-02   |deigs|: 1.897e-03  t[s]:   4438.08
	FillingsUpdate:  mu: +0.373690310  nElectrons: 314.000000
SCF: Cycle:  4   F: -988.464847677099442   dF: -3.636e-04   |Residual|: 1.297e-02   |deigs|: 2.231e-04  t[s]:   4525.99
	FillingsUpdate:  mu: +0.373513264  nElectrons: 314.000000
SCF: Cycle:  5   F: -988.465239916880023   dF: -3.922e-04   |Residual|: 4.766e-03   |deigs|: 1.245e-04  t[s]:   4587.14
	FillingsUpdate:  mu: +0.373397450  nElectrons: 314.000000
SCF: Cycle:  6   F: -988.465281463330825   dF: -4.155e-05   |Residual|: 2.884e-03   |deigs|: 5.700e-05  t[s]:   4648.29
	FillingsUpdate:  mu: +0.373406259  nElectrons: 314.000000
SCF: Cycle:  7   F: -988.465290178169994   dF: -8.715e-06   |Residual|: 8.074e-04   |deigs|: 2.390e-05  t[s]:   4709.43
	FillingsUpdate:  mu: +0.373415723  nElectrons: 314.000000
SCF: Cycle:  8   F: -988.465291365885832   dF: -1.188e-06   |Residual|: 5.087e-04   |deigs|: 1.011e-05  t[s]:   4770.77
	FillingsUpdate:  mu: +0.373413936  nElectrons: 314.000000
SCF: Cycle:  9   F: -988.465291867500468   dF: -5.016e-07   |Residual|: 1.722e-04   |deigs|: 5.681e-06  t[s]:   4832.13
	FillingsUpdate:  mu: +0.373412994  nElectrons: 314.000000
SCF: Cycle: 10   F: -988.465291940857128   dF: -7.336e-08   |Residual|: 6.862e-05   |deigs|: 1.564e-06  t[s]:   4893.55
	FillingsUpdate:  mu: +0.373413436  nElectrons: 314.000000
SCF: Cycle: 11   F: -988.465291963574941   dF: -2.272e-08   |Residual|: 3.315e-05   |deigs|: 1.002e-06  t[s]:   4954.64
	FillingsUpdate:  mu: +0.373413471  nElectrons: 314.000000
SCF: Cycle: 12   F: -988.465291974455454   dF: -1.088e-08   |Residual|: 1.913e-05   |deigs|: 8.273e-07  t[s]:   5015.89
	FillingsUpdate:  mu: +0.373413505  nElectrons: 314.000000
SCF: Cycle: 13   F: -988.465291980030997   dF: -5.576e-09   |Residual|: 1.192e-05   |deigs|: 7.549e-07  t[s]:   5077.28
	FillingsUpdate:  mu: +0.373413485  nElectrons: 314.000000
SCF: Cycle: 14   F: -988.465291983197062   dF: -3.166e-09   |Residual|: 7.195e-06   |deigs|: 7.668e-07  t[s]:   5138.71
SCF: Converged (|Delta E|<1.000000e-08 for 2 iters).

Setting wave functions to eigenvectors of Hamiltonian
IonicMinimize: 	Wolfe criterion not satisfied: alpha: 0.0508508  (E-E0)/|gdotd0|: -0.0490846  gdotd/gdotd0: 0.928414 (taking cubic step)

-------- Electronic minimization -----------
Will mix electronic density at each iteration.
	FillingsUpdate:  mu: +0.373413485  nElectrons: 314.000000
	FillingsUpdate:  mu: +0.403044152  nElectrons: 314.000000
SCF: Cycle:  0   F: -985.611127484234999   dF: -1.936e+00   |Residual|: 1.660e+00   |deigs|: 1.498e-02  t[s]:   5288.46
	FillingsUpdate:  mu: +0.396204441  nElectrons: 314.000000
SCF: Cycle:  1   F: -988.235111959014375   dF: -2.624e+00   |Residual|: 5.821e-01   |deigs|: 1.558e-02  t[s]:   5386.79
	FillingsUpdate:  mu: +0.386646670  nElectrons: 314.000000
SCF: Cycle:  2   F: -988.616555733306541   dF: -3.814e-01   |Residual|: 1.618e-01   |deigs|: 5.274e-03  t[s]:   5484.90
	FillingsUpdate:  mu: +0.385568948  nElectrons: 314.000000
SCF: Cycle:  3   F: -988.654958915305428   dF: -3.840e-02   |Residual|: 7.785e-02   |deigs|: 2.850e-03  t[s]:   5581.50
	FillingsUpdate:  mu: +0.384285494  nElectrons: 314.000000
SCF: Cycle:  4   F: -988.657133084475277   dF: -2.174e-03   |Residual|: 1.925e-02   |deigs|: 5.009e-04  t[s]:   5679.18
	FillingsUpdate:  mu: +0.383862923  nElectrons: 314.000000
SCF: Cycle:  5   F: -988.657996798958493   dF: -8.637e-04   |Residual|: 8.043e-03   |deigs|: 1.526e-04  t[s]:   5740.51
	FillingsUpdate:  mu: +0.383681984  nElectrons: 314.000000
SCF: Cycle:  6   F: -988.658088153886411   dF: -9.135e-05   |Residual|: 5.079e-03   |deigs|: 1.079e-04  t[s]:   5802.17
	FillingsUpdate:  mu: +0.383709082  nElectrons: 314.000000
SCF: Cycle:  7   F: -988.658118328253067   dF: -3.017e-05   |Residual|: 1.276e-03   |deigs|: 6.444e-05  t[s]:   5863.43
	FillingsUpdate:  mu: +0.383720918  nElectrons: 314.000000
SCF: Cycle:  8   F: -988.658121985186312   dF: -3.657e-06   |Residual|: 5.777e-04   |deigs|: 2.005e-05  t[s]:   5924.62
	FillingsUpdate:  mu: +0.383716587  nElectrons: 314.000000
SCF: Cycle:  9   F: -988.658122560856327   dF: -5.757e-07   |Residual|: 2.243e-04   |deigs|: 4.342e-06  t[s]:   5986.27
	FillingsUpdate:  mu: +0.383716103  nElectrons: 314.000000
SCF: Cycle: 10   F: -988.658122705878327   dF: -1.450e-07   |Residual|: 1.517e-04   |deigs|: 3.491e-06  t[s]:   6047.52
	FillingsUpdate:  mu: +0.383717992  nElectrons: 314.000000
SCF: Cycle: 11   F: -988.658122775156812   dF: -6.928e-08   |Residual|: 4.149e-05   |deigs|: 2.163e-06  t[s]:   6108.58
	FillingsUpdate:  mu: +0.383718087  nElectrons: 314.000000
SCF: Cycle: 12   F: -988.658122802685057   dF: -2.753e-08   |Residual|: 2.826e-05   |deigs|: 1.613e-06  t[s]:   6169.96
	FillingsUpdate:  mu: +0.383718156  nElectrons: 314.000000
SCF: Cycle: 13   F: -988.658122817574736   dF: -1.489e-08   |Residual|: 1.993e-05   |deigs|: 1.529e-06  t[s]:   6231.35
	FillingsUpdate:  mu: +0.383718150  nElectrons: 314.000000
SCF: Cycle: 14   F: -988.658122826101135   dF: -8.526e-09   |Residual|: 1.015e-05   |deigs|: 1.592e-06  t[s]:   6292.69
	FillingsUpdate:  mu: +0.383718136  nElectrons: 314.000000
SCF: Cycle: 15   F: -988.658122830800949   dF: -4.700e-09   |Residual|: 7.346e-06   |deigs|: 1.529e-06  t[s]:   6354.04
SCF: Converged (|Delta E|<1.000000e-08 for 2 iters).

Setting wave functions to eigenvectors of Hamiltonian

# Ionic positions in lattice coordinates:
ion O  -0.006956333546105  -0.010433345057476   0.745164604749346 1
ion O   0.503829561602091   0.251404622140114   0.000200333533241 1
ion O   0.511441356838259   0.501989054375405   0.751386558174543 1
ion O   0.483906002917780   0.759009079917880   0.521367624321812 1
ion O   0.754569030340096   0.742479934312244   0.252842617193573 1
ion O  -0.006593748588399   0.743255385054485  -0.008179525230502 1
ion O  -0.002068871898496   0.503796920293440   0.252632363914006 1
ion O   0.243820483967014   0.748630718608469   0.752348034690636 1
ion O   0.748804831397749  -0.019930286892756  -0.008085970980492 1
ion O   0.273206316146595   0.007478608391297   0.522202115814908 1
ion O   0.753630237010204   0.514983372702503   0.494727184244302 1
ion O   0.013756705272392   0.264003480510430   0.002612623678532 1
ion O   0.744594356143639   0.007458107519523   0.499585587252045 1
ion O   0.751736147998541   0.239935887985469   0.252374113709797 1
ion O   0.510585724969785   0.243511844450707   0.505693222048211 1
ion O   0.487144224185554   0.504597483638390   0.253187845218014 1
ion O   0.247892162554842   0.254615854128477   0.747483425525493 1
ion O   0.491516055500201   0.740146023169151  -0.000787947043690 1
ion O   0.261376411950487   0.021544551859886   0.019735477712290 1
ion O   0.248169006720115   0.756426095419980   0.233432555999903 1
ion O  -0.014182815184717   0.459220469717753   0.738672224319673 1
ion O   0.009159319684953   0.015642747901497   0.273370648983936 1
ion O   0.240804918633377   0.482004347186994   0.489479501498412 1
ion Y   0.755493453524827   0.741754606893703   0.983076056381834 1
ion Y   0.500890520101581   0.255777418287438   0.762260288325067 1
ion Y   0.766015679220307   0.509869028610691   0.254084592378875 1
ion Y   0.996738883970718   0.757106602134376   0.728654931404401 1
ion Y   0.724818393111475   0.976621171432120   0.749069545872485 1
ion Y   0.245596614461690   0.756244879241021   0.506853303059079 1
ion Y   0.747216831699545   0.247417630247711   0.487929613556230 1
ion Y   0.002156499214474   0.246372335318666   0.247051087042285 1
ion Y   0.250514397519883  -0.000810418476954   0.261767499946002 1
ion Y   0.505350347736409   0.750349808176832   0.250795882331937 1
ion Y   0.244151746958795   0.498871912116295   0.751296007368385 1
ion Y   0.255559342891978   0.262727812516485   0.004059908513334 1
ion Y   0.011304199790723   0.504717440484107   0.010421001256214 1
ion Y   0.492680400691429  -0.002853467895861  -0.000479603350418 1
ion Y  -0.000047139762901  -0.000506886283437   0.502620493653380 1
ion Y   0.497338744253113   0.495839169862944   0.501794172932921 1

# Forces in Lattice coordinates:
force O  -0.198998626954921  -0.178531457564134  -0.041370981188331 1
force O   0.550392997238802   0.087493849451910  -0.404609542081936 1
force O   0.406341014950192  -0.088426029004004   0.050156935268177 1
force O   0.246988003102151  -0.072726032248446   0.167344208293157 1
force O   0.514623410053690  -0.246119530096832  -0.170936556460191 1
force O  -0.308425019300352   0.105292384422754  -0.283597437393878 1
force O  -0.250389391210818   0.529908886801365  -0.048045459146411 1
force O  -0.117931010213894   0.572815793062422  -0.575101110746176 1
force O  -0.039468605782054   0.178776301037613  -0.508573787000130 1
force O  -0.227005060441654  -0.399068097930491   0.483294393578451 1
force O   0.092913577748580   0.273975274909263   0.063553204482425 1
force O   0.076318438700223  -0.044887038975441   0.078829500241048 1
force O  -0.156275232178840   0.392602131678045  -0.253007595707820 1
force O   0.159546795821217  -0.472871378708978   0.309687047324136 1
force O   0.261304426692287  -0.030553246664371  -0.434089315801801 1
force O  -0.491986233732460   0.096632302816670  -0.047941391052513 1
force O  -0.460673265478535   0.352810372735329   0.189886555970827 1
force O  -0.576384722722834   0.015691888647078   0.516418477995432 1
force O  -0.073561205139327  -0.033628668055850   0.512930246373062 1
force O   0.610476020542495  -0.310219326332112  -0.133324702348940 1
force O   0.230696108525536  -0.376268789810926   0.135323618368214 1
force O   0.297188171609119   0.353598973612669  -0.269564660059272 1
force O  -0.061135438710287  -0.517418976814251   0.273597744979055 1
force Y  -0.727015161034104   0.344715519229569   0.990216753950189 1
force Y  -0.815598316118091   0.610185269974483  -0.406837207594133 1
force Y  -0.830506293776643  -0.561116269574622   0.462712004255658 1
force Y   0.277163628789291  -0.806426900214320   1.190201682676757 1
force Y   0.960428581465606   0.291534789290537  -0.564414184711771 1
force Y   0.518303919731954  -0.680346861219726  -0.453921316252152 1
force Y  -0.384905400403223   0.506654215902969   0.202179656249116 1
force Y  -0.585050613475493   0.517160272723724  -0.477654358850077 1
force Y  -0.470302331742051  -0.163802720324585   0.112901182948522 1
force Y   0.397678200795996  -0.373360527871445   0.440543551507277 1
force Y   0.712268871082645   0.430674474124703  -0.664026520488375 1
force Y   0.611077317649419  -0.789403875956547  -0.447253835445725 1
force Y  -0.032046695217524   0.325454747057191  -0.016320864975164 1
force Y   0.013895189807783   0.022447201711826   0.032979057662600 1
force Y  -0.124085520861236   0.112752489510683   0.037730500161264 1
force Y  -0.006578696502655   0.023052430247954  -0.049722841091016 1

# Energy components:
   Eewald =     -771.2297557066260651
       EH =      210.8285058671712591
     Eloc =     -740.7909514460637865
      Enl =      146.9449600520419494
      Exc =     -301.9349857417324188
 Exc_core =      126.2367043853635238
       KE =      341.3262935270250296
-------------------------------------
     Etot =     -988.6192290628202954
       TS =        0.0388937679806975
-------------------------------------
        F =     -988.6581228308009486

IonicMinimize: Iter:   2  F: -988.658122830800949  |grad|_K:  2.373e-02  alpha:  1.526e-01  linmin: -9.879e-01  t[s]:   6366.85

#--- Lowdin population analysis ---
# oxidation-state O -0.403 -0.407 -0.404 -0.382 -0.412 -0.415 -0.401 -0.406 -0.398 -0.396 -0.410 -0.426 -0.428 -0.405 -0.424 -0.413 -0.404 -0.417 -0.421 -0.395 -0.423 -0.418 -0.419
# oxidation-state Y +0.608 +0.561 +0.595 +0.620 +0.585 +0.601 +0.574 +0.648 +0.637 +0.642 +0.647 +0.629 +0.585 +0.666 +0.654 +0.670


-------- Electronic minimization -----------
Will mix electronic density at each iteration.
	FillingsUpdate:  mu: +0.383718136  nElectrons: 314.000000
	FillingsUpdate:  mu: +0.396657554  nElectrons: 314.000000
SCF: Cycle:  0   F: -988.215493038373324   dF: -4.086e-01   |Residual|: 6.962e-01   |deigs|: 2.721e-03  t[s]:   6504.33
	FillingsUpdate:  mu: +0.392604119  nElectrons: 314.000000
SCF: Cycle:  1   F: -988.654755926039456   dF: -4.393e-01   |Residual|: 2.449e-01   |deigs|: 4.027e-03  t[s]:   6602.66
	FillingsUpdate:  mu: +0.389119467  nElectrons: 314.000000
SCF: Cycle:  2   F: -988.721567947616222   dF: -6.681e-02   |Residual|: 6.672e-02   |deigs|: 1.984e-03  t[s]:   6700.40
	FillingsUpdate:  mu: +0.388891214  nElectrons: 314.000000
SCF: Cycle:  3   F: -988.727386453868007   dF: -5.819e-03   |Residual|: 3.263e-02   |deigs|: 1.098e-03  t[s]:   6795.01
	FillingsUpdate:  mu: +0.388426087  nElectrons: 314.000000
SCF: Cycle:  4   F: -988.728014641060895   dF: -6.282e-04   |Residual|: 7.972e-03   |deigs|: 2.373e-04  t[s]:   6856.22
	FillingsUpdate:  mu: +0.388284113  nElectrons: 314.000000
SCF: Cycle:  5   F: -988.728155476649249   dF: -1.408e-04   |Residual|: 3.601e-03   |deigs|: 6.199e-05  t[s]:   6917.00
	FillingsUpdate:  mu: +0.388201977  nElectrons: 314.000000
SCF: Cycle:  6   F: -988.728179676875470   dF: -2.420e-05   |Residual|: 2.371e-03   |deigs|: 4.450e-05  t[s]:   6978.12
	FillingsUpdate:  mu: +0.388217214  nElectrons: 314.000000
SCF: Cycle:  7   F: -988.728185997862511   dF: -6.321e-06   |Residual|: 8.235e-04   |deigs|: 1.914e-05  t[s]:   7039.38
	FillingsUpdate:  mu: +0.388214273  nElectrons: 314.000000
SCF: Cycle:  8   F: -988.728187100610853   dF: -1.103e-06   |Residual|: 2.740e-04   |deigs|: 7.615e-06  t[s]:   7100.20
	FillingsUpdate:  mu: +0.388213029  nElectrons: 314.000000
SCF: Cycle:  9   F: -988.728187303450341   dF: -2.028e-07   |Residual|: 1.457e-04   |deigs|: 1.936e-06  t[s]:   7161.54
	FillingsUpdate:  mu: +0.388213628  nElectrons: 314.000000
SCF: Cycle: 10   F: -988.728187388522656   dF: -8.507e-08   |Residual|: 8.739e-05   |deigs|: 1.357e-06  t[s]:   7222.69
	FillingsUpdate:  mu: +0.388214377  nElectrons: 314.000000
SCF: Cycle: 11   F: -988.728187436873782   dF: -4.835e-08   |Residual|: 2.974e-05   |deigs|: 1.038e-06  t[s]:   7283.81
	FillingsUpdate:  mu: +0.388214473  nElectrons: 314.000000
SCF: Cycle: 12   F: -988.728187461762218   dF: -2.489e-08   |Residual|: 2.718e-05   |deigs|: 9.198e-07  t[s]:   7344.96
	FillingsUpdate:  mu: +0.388214447  nElectrons: 314.000000
SCF: Cycle: 13   F: -988.728187476411790   dF: -1.465e-08   |Residual|: 1.661e-05   |deigs|: 9.032e-07  t[s]:   7406.22
	FillingsUpdate:  mu: +0.388214418  nElectrons: 314.000000
SCF: Cycle: 14   F: -988.728187485108492   dF: -8.697e-09   |Residual|: 1.133e-05   |deigs|: 9.261e-07  t[s]:   7467.09
	FillingsUpdate:  mu: +0.388214403  nElectrons: 314.000000
SCF: Cycle: 15   F: -988.728187489950074   dF: -4.842e-09   |Residual|: 7.494e-06   |deigs|: 9.098e-07  t[s]:   7528.84
SCF: Converged (|Delta E|<1.000000e-08 for 2 iters).

Setting wave functions to eigenvectors of Hamiltonian
IonicMinimize: 	Wolfe criterion not satisfied: alpha: 0.0748149  (E-E0)/|gdotd0|: -0.0713931  gdotd/gdotd0: 0.907628 (taking cubic step)

-------- Electronic minimization -----------
Will mix electronic density at each iteration.
	FillingsUpdate:  mu: +0.388214403  nElectrons: 314.000000
	FillingsUpdate:  mu: +0.406937596  nElectrons: 314.000000
SCF: Cycle:  0   F: -986.925255205710300   dF: -1.718e+00   |Residual|: 1.378e+00   |deigs|: 1.080e-02  t[s]:   7678.48
	FillingsUpdate:  mu: +0.402760587  nElectrons: 314.000000
SCF: Cycle:  1   F: -988.556800733806995   dF: -1.632e+00   |Residual|: 4.858e-01   |deigs|: 1.072e-02  t[s]:   7776.47
	FillingsUpdate:  mu: +0.398156522  nElectrons: 314.000000
SCF: Cycle:  2   F: -988.823442563925028   dF: -2.666e-01   |Residual|: 1.261e-01   |deigs|: 4.198e-03  t[s]:   7874.45
	FillingsUpdate:  mu: +0.398010995  nElectrons: 314.000000
SCF: Cycle:  3   F: -988.843012880755282   dF: -1.957e-02   |Residual|: 6.443e-02   |deigs|: 2.071e-03  t[s]:   7970.93
	FillingsUpdate:  mu: +0.397561882  nElectrons: 314.000000
SCF: Cycle:  4   F: -988.846101491486252   dF: -3.089e-03   |Residual|: 1.522e-02   |deigs|: 5.708e-04  t[s]:   8068.60
	FillingsUpdate:  mu: +0.397294605  nElectrons: 314.000000
SCF: Cycle:  5   F: -988.846657503415258   dF: -5.560e-04   |Residual|: 7.168e-03   |deigs|: 1.247e-04  t[s]:   8129.65
	FillingsUpdate:  mu: +0.397142997  nElectrons: 314.000000
SCF: Cycle:  6   F: -988.846752326965429   dF: -9.482e-05   |Residual|: 4.450e-03   |deigs|: 8.723e-05  t[s]:   8191.28
	FillingsUpdate:  mu: +0.397166539  nElectrons: 314.000000
SCF: Cycle:  7   F: -988.846773898897823   dF: -2.157e-05   |Residual|: 1.473e-03   |deigs|: 4.314e-05  t[s]:   8252.21
	FillingsUpdate:  mu: +0.397166652  nElectrons: 314.000000
SCF: Cycle:  8   F: -988.846777609735113   dF: -3.711e-06   |Residual|: 4.844e-04   |deigs|: 1.736e-05  t[s]:   8313.25
	FillingsUpdate:  mu: +0.397165560  nElectrons: 314.000000
SCF: Cycle:  9   F: -988.846778042137885   dF: -4.324e-07   |Residual|: 2.448e-04   |deigs|: 3.841e-06  t[s]:   8374.33
	FillingsUpdate:  mu: +0.397165589  nElectrons: 314.000000
SCF: Cycle: 10   F: -988.846778190536838   dF: -1.484e-07   |Residual|: 1.787e-04   |deigs|: 2.842e-06  t[s]:   8436.13
	FillingsUpdate:  mu: +0.397167096  nElectrons: 314.000000
SCF: Cycle: 11   F: -988.846778277212479   dF: -8.668e-08   |Residual|: 3.808e-05   |deigs|: 1.950e-06  t[s]:   8497.74
	FillingsUpdate:  mu: +0.397167121  nElectrons: 314.000000
SCF: Cycle: 12   F: -988.846778312914012   dF: -3.570e-08   |Residual|: 3.514e-05   |deigs|: 1.589e-06  t[s]:   8559.01
	FillingsUpdate:  mu: +0.397167143  nElectrons: 314.000000
SCF: Cycle: 13   F: -988.846778332478834   dF: -1.956e-08   |Residual|: 2.010e-05   |deigs|: 1.525e-06  t[s]:   8620.17
	FillingsUpdate:  mu: +0.397167100  nElectrons: 314.000000
SCF: Cycle: 14   F: -988.846778343594110   dF: -1.112e-08   |Residual|: 1.390e-05   |deigs|: 1.620e-06  t[s]:   8681.47
	FillingsUpdate:  mu: +0.397167097  nElectrons: 314.000000
SCF: Cycle: 15   F: -988.846778349803003   dF: -6.209e-09   |Residual|: 6.948e-06   |deigs|: 1.556e-06  t[s]:   8742.75
	FillingsUpdate:  mu: +0.397167109  nElectrons: 314.000000
SCF: Cycle: 16   F: -988.846778353221112   dF: -3.418e-09   |Residual|: 7.355e-06   |deigs|: 1.516e-06  t[s]:   8804.07
SCF: Converged (|Delta E|<1.000000e-08 for 2 iters).

Setting wave functions to eigenvectors of Hamiltonian

# Ionic positions in lattice coordinates:
ion O  -0.012550498323522  -0.016785748645032   0.740713322362864 1
ion O   0.510158847605894   0.253481938077981  -0.000210444380808 1
ion O   0.518718792954620   0.506340298600523   0.755338301704336 1
ion O   0.492150765467023   0.760634446619185   0.527139652194788 1
ion O   0.760997150099144   0.740997849969178   0.252128254379440 1
ion O  -0.013888555023058   0.740330120349458  -0.014888722573483 1
ion O  -0.003198632627394   0.510361647064064   0.254313972328353 1
ion O   0.243582959427308   0.754156882002595   0.747384242361045 1
ion O   0.744146491871653  -0.020960578210103  -0.015912778205315 1
ion O   0.266340558355390  -0.000735310695952   0.522222051040942 1
ion O   0.759551943150146   0.522870033638447   0.500983501589307 1
ion O   0.016803047545312   0.265935706223476   0.004840102951501 1
ion O   0.745118378112840   0.011369686951754   0.497463443893082 1
ion O   0.751901934223736   0.235187234576214   0.254704669968015 1
ion O   0.505936357957778   0.240030635185792   0.497707915458932 1
ion O   0.477257131443514   0.497810235249058   0.247211638269591 1
ion O   0.242303173384821   0.257882700487809   0.749000131635037 1
ion O   0.486685833266817   0.741965935388750   0.003829965878746 1
ion O   0.265245454709283   0.024405233887445   0.027522508256680 1
ion O   0.254598521183279   0.755347596616711   0.232864196541964 1
ion O  -0.008138887228245   0.458430668398506   0.742273694825277 1
ion O   0.014293135616929   0.023082762504979   0.274722551304848 1
ion O   0.237235693492662   0.474690139013987   0.488304134421225 1
ion Y   0.754083199149845   0.748529136892011   0.998124840708613 1
ion Y   0.492627127304277   0.255942249832944   0.753898172144533 1
ion Y   0.750379152659055   0.497390634259724   0.249986314681631 1
ion Y   1.002734928017597   0.753656464489399   0.745036136489279 1
ion Y   0.740072310335232   0.986581122021413   0.749663573850574 1
ion Y   0.243380670712979   0.746647017599888   0.497031330171292 1
ion Y   0.748070196519213   0.254182111380204   0.492622600787397 1
ion Y  -0.006181749452750   0.246378291435843   0.238947085897139 1
ion Y   0.243714185243911  -0.005710325613321   0.260435885559392 1
ion Y   0.510921666763265   0.750539102204824   0.257652960327779 1
ion Y   0.252419393183541   0.504838940202035   0.749402629966193 1
ion Y   0.255222371387213   0.253853780978026  -0.003021279057170 1
ion Y   0.012328586821678   0.507262933113905   0.010446396483161 1
ion Y   0.494204406858589  -0.001984484645697  -0.000573257576041 1
ion Y  -0.001078541289207  -0.000201887224424   0.501726855046456 1
ion Y   0.497772499119631   0.496534799818402   0.501663448313405 1

# Forces in Lattice coordinates:
force O  -0.042872434139400  -0.299536016945280  -0.000847349476620 1
force O   0.346297792315553   0.080438812155550  -0.381860893669511 1
force O   0.266177798808694  -0.020455319850903   0.051012017332190 1
force O   0.247325177351363  -0.100156291643137   0.121643596732787 1
force O   0.324868272736548  -0.213401854882150  -0.070681936835175 1
force O  -0.302220349481964   0.082380001525257  -0.104033373694826 1
force O  -0.335550387169750   0.393914927363434  -0.013970559678016 1
force O  -0.046838000657125   0.393181589979180  -0.435133432671432 1
force O  -0.042114383171763   0.110849300532021  -0.348446585932606 1
force O  -0.250309641557236  -0.233450793608275   0.353747603737690 1
force O   0.012597444073916   0.168778801005465   0.092012683323710 1
force O   0.109783079760454  -0.033885482204974   0.023156206350621 1
force O  -0.066509400116364   0.321900919784287  -0.253360612466571 1
force O   0.047940480146497  -0.296061005293822   0.237033401740243 1
force O   0.104110575515687   0.019546260082195  -0.314454036046185 1
force O  -0.281112969066026   0.028237225154658  -0.024682489858580 1
force O  -0.284417011157660   0.275076132817308   0.065299093805028 1
force O  -0.386944329725282   0.016783667183920   0.407608481082843 1
force O  -0.022842134958890  -0.075772649742910   0.394518829916235 1
force O   0.462008953468763  -0.228148449253561  -0.117005171477366 1
force O   0.221176482401323  -0.221099475540596   0.049658506738832 1
force O   0.140816565196464   0.289248051254832  -0.187009199869428 1
force O  -0.010147005306392  -0.376765282024030   0.139694981926930 1
force Y  -0.518554634266763   0.316634585606191   0.663454144637955 1
force Y  -0.557522863274656   0.375739168421030  -0.291832684015116 1
force Y  -0.441761251021705  -0.409524738962538   0.290074470970438 1
force Y   0.212442699548066  -0.471440379697381   0.819459341033656 1
force Y   0.678496556601280   0.242792417253675  -0.430171670311079 1
force Y   0.491932181129293  -0.550336498182553  -0.294082252789162 1
force Y  -0.301969361868869   0.330411613901134   0.243160139129236 1
force Y  -0.382019965665167   0.398803493215358  -0.381863621884153 1
force Y  -0.280499438441733  -0.131416435936690   0.051187829389424 1
force Y   0.231656855681361  -0.240565687041860   0.352623293776677 1
force Y   0.462519287098599   0.343800574952051  -0.456592980822832 1
force Y   0.327990588932868  -0.578259264649871  -0.293890995001168 1
force Y  -0.044011781288442   0.191603726622341   0.004277940842625 1
force Y   0.037776886954673  -0.016575185667474  -0.013285891334393 1
force Y  -0.078286765760113   0.054080384539063   0.079544340976311 1
force Y  -0.048954361775235   0.062758297527586  -0.027180285870454 1

# Energy components:
   Eewald =     -769.4081320043928827
       EH =      212.3532722287235117
     Eloc =     -744.3750190272527334
      Enl =      146.9457279783750039
      Exc =     -302.0451110759083804
 Exc_core =      126.2367063970657739
       KE =      341.4806497737454265
-------------------------------------
     Etot =     -988.8119057296441952
       TS =        0.0348726235769720
-------------------------------------
        F =     -988.8467783532211115

IonicMinimize: Iter:   3  F: -988.846778353221112  |grad|_K:  1.683e-02  alpha:  2.244e-01  linmin: -9.590e-01  t[s]:   8817.08

#--- Lowdin population analysis ---
# oxidation-state O -0.416 -0.412 -0.412 -0.402 -0.421 -0.421 -0.412 -0.415 -0.410 -0.409 -0.419 -0.431 -0.432 -0.407 -0.427 -0.420 -0.411 -0.425 -0.428 -0.404 -0.430 -0.424 -0.425
# oxidation-state Y +0.624 +0.562 +0.611 +0.634 +0.582 +0.615 +0.583 +0.648 +0.644 +0.653 +0.649 +0.634 +0.593 +0.689 +0.688 +0.692


-------- Electronic minimization -----------
Will mix electronic density at each iteration.
	FillingsUpdate:  mu: +0.397167109  nElectrons: 314.000000
	FillingsUpdate:  mu: +0.405994728  nElectrons: 314.000000
SCF: Cycle:  0   F: -988.384640243342687   dF: -5.479e-01   |Residual|: 7.325e-01   |deigs|: 3.044e-03  t[s]:   8954.72
	FillingsUpdate:  mu: +0.403764077  nElectrons: 314.000000
SCF: Cycle:  1   F: -988.826755715846502   dF: -4.421e-01   |Residual|: 2.616e-01   |deigs|: 4.211e-03  t[s]:   9052.74
	FillingsUpdate:  mu: +0.401824704  nElectrons: 314.000000
SCF: Cycle:  2   F: -988.891566072398064   dF: -6.481e-02   |Residual|: 6.965e-02   |deigs|: 1.922e-03  t[s]:   9150.20
	FillingsUpdate:  mu: +0.401832617  nElectrons: 314.000000
SCF: Cycle:  3   F: -988.898293401156025   dF: -6.727e-03   |Residual|: 3.471e-02   |deigs|: 9.484e-04  t[s]:   9245.15
	FillingsUpdate:  mu: +0.401760696  nElectrons: 314.000000
SCF: Cycle:  4   F: -988.899079330725385   dF: -7.859e-04   |Residual|: 8.076e-03   |deigs|: 2.864e-04  t[s]:   9306.73
	FillingsUpdate:  mu: +0.401685384  nElectrons: 314.000000
SCF: Cycle:  5   F: -988.899235606632487   dF: -1.563e-04   |Residual|: 3.953e-03   |deigs|: 7.440e-05  t[s]:   9367.72
	FillingsUpdate:  mu: +0.401650377  nElectrons: 314.000000
SCF: Cycle:  6   F: -988.899271424886592   dF: -3.582e-05   |Residual|: 2.296e-03   |deigs|: 6.255e-05  t[s]:   9429.16
	FillingsUpdate:  mu: +0.401664826  nElectrons: 314.000000
SCF: Cycle:  7   F: -988.899277468477635   dF: -6.044e-06   |Residual|: 1.029e-03   |deigs|: 2.358e-05  t[s]:   9490.03
	FillingsUpdate:  mu: +0.401662778  nElectrons: 314.000000
SCF: Cycle:  8   F: -988.899278850361611   dF: -1.382e-06   |Residual|: 3.089e-04   |deigs|: 8.044e-06  t[s]:   9551.45
	FillingsUpdate:  mu: +0.401662107  nElectrons: 314.000000
SCF: Cycle:  9   F: -988.899279083831289   dF: -2.335e-07   |Residual|: 1.298e-04   |deigs|: 2.307e-06  t[s]:   9612.59
	FillingsUpdate:  mu: +0.401662915  nElectrons: 314.000000
SCF: Cycle: 10   F: -988.899279172368210   dF: -8.854e-08   |Residual|: 9.244e-05   |deigs|: 1.555e-06  t[s]:   9673.90
	FillingsUpdate:  mu: +0.401663370  nElectrons: 314.000000
SCF: Cycle: 11   F: -988.899279224004999   dF: -5.164e-08   |Residual|: 2.494e-05   |deigs|: 1.179e-06  t[s]:   9735.46
	FillingsUpdate:  mu: +0.401663384  nElectrons: 314.000000
SCF: Cycle: 12   F: -988.899279249613642   dF: -2.561e-08   |Residual|: 3.459e-05   |deigs|: 1.094e-06  t[s]:   9796.69
	FillingsUpdate:  mu: +0.401663321  nElectrons: 314.000000
SCF: Cycle: 13   F: -988.899279264963411   dF: -1.535e-08   |Residual|: 1.226e-05   |deigs|: 1.084e-06  t[s]:   9857.92
	FillingsUpdate:  mu: +0.401663267  nElectrons: 314.000000
SCF: Cycle: 14   F: -988.899279273824845   dF: -8.861e-09   |Residual|: 1.473e-05   |deigs|: 1.115e-06  t[s]:   9919.38
	FillingsUpdate:  mu: +0.401663252  nElectrons: 314.000000
SCF: Cycle: 15   F: -988.899279278860831   dF: -5.036e-09   |Residual|: 5.217e-06   |deigs|: 1.096e-06  t[s]:   9980.76
SCF: Converged (|Delta E|<1.000000e-08 for 2 iters).

Setting wave functions to eigenvectors of Hamiltonian

# Ionic positions in lattice coordinates:
ion O  -0.013947822583567  -0.020706654635268   0.739099843222718 1
ion O   0.510707472871921   0.253184802704692  -0.002627016473603 1
ion O   0.521384893521813   0.508508056743572   0.757141226800522 1
ion O   0.495636941718766   0.760849892920186   0.529142117677656 1
ion O   0.762463690549751   0.739877210510097   0.252089460872637 1
ion O  -0.016958072509838   0.739577762530387  -0.016102954056440 1
ion O  -0.005926239774195   0.511584051861069   0.253856364501565 1
ion O   0.243740490731833   0.755859216558791   0.745253551014805 1
ion O   0.742302480939839  -0.021639369083034  -0.018775093601955 1
ion O   0.262912776338075  -0.003289574104709   0.522204196653461 1
ion O   0.760722234821162   0.524936977938541   0.503290228879964 1
ion O   0.018287393103490   0.266578254189033   0.005466810004045 1
ion O   0.745779266214926   0.013295230990921   0.496206202106877 1
ion O   0.751303719672309   0.233847593338609   0.255819549725988 1
ion O   0.503492749239729   0.239002508532306   0.494703079480519 1
ion O   0.474815621352101   0.495590456044912   0.245649166715381 1
ion O   0.240752824524214   0.259220599608229   0.748828792722203 1
ion O   0.485892701797258   0.743267987361107   0.006600783997458 1
ion O   0.266846126072164   0.024937019333460   0.030572830388005 1
ion O   0.257155973272710   0.754768343883875   0.232527102998446 1
ion O  -0.005613372589584   0.458872971221895   0.743438756835872 1
ion O   0.015192953012971   0.025787659362362   0.274925063065835 1
ion O   0.236006315437022   0.471781504736981   0.487040091196235 1
ion Y   0.753849798361295   0.751991909152089   1.003269007779428 1
ion Y   0.489363645988134   0.255118904714186   0.750731455240751 1
ion Y   0.747018681702963   0.493823133152461   0.249078898485713 1
ion Y   1.005850141144643   0.754064965206553   0.751303153226043 1
ion Y   0.745505264024525   0.990449851819862   0.749910235779264 1
ion Y   0.244743668623665   0.743400430263513   0.494820110665587 1
ion Y   0.748546586970780   0.256841136206379   0.495471389166751 1
ion Y  -0.008703810162682   0.246809259229185   0.235868509159999 1
ion Y   0.241694700403577  -0.007583268430111   0.259490180669829 1
ion Y   0.512626111826232   0.750899867022318   0.260487939830857 1
ion Y   0.255488056833680   0.507455780112472   0.749037557444218 1
ion Y   0.253580412063758   0.249573451512113  -0.006256401860503 1
ion Y   0.012061124108548   0.507681583069730   0.010301143239300 1
ion Y   0.494674925768163  -0.002365481678287  -0.001275236931270 1
ion Y  -0.000933408583417   0.000111829246257   0.502369394125910 1
ion Y   0.497602983191268   0.497304146853265   0.501742509249931 1

# Forces in Lattice coordinates:
force O  -0.017505554129841  -0.242625620232483  -0.011976036539864 1
force O   0.283233401934363   0.045378298738583  -0.327439994593822 1
force O   0.216859571940085   0.004683992770975   0.046986321917743 1
force O   0.252407425897976  -0.091510981089858   0.101210733254276 1
force O   0.274837447675111  -0.193193240939919  -0.024959080074161 1
force O  -0.271274262323669   0.046248813871863  -0.029181396516738 1
force O  -0.253075957923063   0.332075407352862  -0.033310115381940 1
force O  -0.012443209525212   0.328816092079665  -0.383083721547357 1
force O  -0.042188502297944   0.131760562108068  -0.329744999971604 1
force O  -0.221565106727532  -0.242180871813333   0.306766863359999 1
force O   0.013736850286627   0.155257476387752   0.102129912841623 1
force O   0.107798219294082  -0.027046094844851  -0.002795415874691 1
force O  -0.038102263954932   0.263966611951306  -0.204919086490898 1
force O   0.026807442436401  -0.253934570974738   0.206564999244695 1
force O   0.063693444770563   0.021326154517872  -0.276519387294290 1
force O  -0.254027971363858   0.007790609389189  -0.031476814698148 1
force O  -0.270594617735678   0.253490258107276   0.051954819411692 1
force O  -0.340433529647149   0.031667157736734   0.351380339102166 1
force O  -0.011719627930742  -0.089681212311626   0.338850337737392 1
force O   0.387507048661731  -0.206869842474203  -0.091556171801876 1
force O   0.215931771028943  -0.176656887983520   0.052296852865661 1
force O   0.101861594332806   0.260009386945952  -0.153344253749578 1
force O  -0.010166313650217  -0.299794166646320   0.089837859686118 1
force Y  -0.453003372465942   0.268181077219162   0.567392106067473 1
force Y  -0.465096301003080   0.332820160621224  -0.275713103124559 1
force Y  -0.425130728727965  -0.342535149905937   0.282989236420103 1
force Y   0.200700545970636  -0.447737394656011   0.668701414879473 1
force Y   0.552769776080748   0.224376884952624  -0.364430929755885 1
force Y   0.404260180264180  -0.439051686083068  -0.266148974623621 1
force Y  -0.288659915120031   0.314536020494328   0.207940745208957 1
force Y  -0.352431025755839   0.328938751755065  -0.300459592662952 1
force Y  -0.255432526770569  -0.116518475534805   0.073603804075615 1
force Y   0.222592297946290  -0.234795502040500   0.305818708515896 1
force Y   0.393694296864011   0.288332844504779  -0.369225180618568 1
force Y   0.312985159626330  -0.484783343584214  -0.252552338807982 1
force Y  -0.042538156917771   0.173418262212864  -0.007253512214584 1
force Y   0.047351507981133  -0.004274423451956  -0.013734896098569 1
force Y  -0.046245511778476   0.050269978734873   0.026799703931842 1
force Y  -0.007576094538071   0.030552506893095  -0.030651151326530 1

# Energy components:
   Eewald =     -768.8570902686146837
       EH =      212.7750938236707441
     Eloc =     -745.4240526764492643
      Enl =      146.9502644030758916
      Exc =     -302.0791353594711950
 Exc_core =      126.2367082840648891
       KE =      341.5320940796242439
-------------------------------------
     Etot =     -988.8661177140992322
       TS =        0.0331615647616243
-------------------------------------
        F =     -988.8992792788608313

IonicMinimize: Iter:   4  F: -988.899279278860831  |grad|_K:  1.445e-02  alpha:  1.208e-01  linmin: -9.580e-01  t[s]:   9993.54

#--- Lowdin population analysis ---
# oxidation-state O -0.417 -0.415 -0.415 -0.406 -0.424 -0.422 -0.415 -0.418 -0.412 -0.414 -0.424 -0.431 -0.434 -0.409 -0.428 -0.423 -0.413 -0.427 -0.430 -0.408 -0.431 -0.427 -0.426
# oxidation-state Y +0.626 +0.559 +0.616 +0.638 +0.582 +0.624 +0.585 +0.649 +0.647 +0.654 +0.652 +0.639 +0.598 +0.694 +0.699 +0.696


-------- Electronic minimization -----------
Will mix electronic density at each iteration.
	FillingsUpdate:  mu: +0.401663252  nElectrons: 314.000000
	FillingsUpdate:  mu: +0.411223896  nElectrons: 314.000000
SCF: Cycle:  0   F: -988.379183695758002   dF: -8.738e-01   |Residual|: 8.289e-01   |deigs|: 4.061e-03  t[s]:  10130.77
	FillingsUpdate:  mu: +0.408901470  nElectrons: 314.000000
SCF: Cycle:  1   F: -988.869463677023759   dF: -4.903e-01   |Residual|: 3.009e-01   |deigs|: 4.954e-03  t[s]:  10228.23
	FillingsUpdate:  mu: +0.406841584  nElectrons: 314.000000
SCF: Cycle:  2   F: -988.943432582657124   dF: -7.397e-02   |Residual|: 7.908e-02   |deigs|: 2.286e-03  t[s]:  10325.96
	FillingsUpdate:  mu: +0.406780727  nElectrons: 314.000000
SCF: Cycle:  3   F: -988.949622176984576   dF: -6.190e-03   |Residual|: 3.814e-02   |deigs|: 1.173e-03  t[s]:  10420.92
	FillingsUpdate:  mu: +0.406716459  nElectrons: 314.000000
SCF: Cycle:  4   F: -988.950094096204111   dF: -4.719e-04   |Residual|: 8.022e-03   |deigs|: 1.955e-04  t[s]:  10481.79
	FillingsUpdate:  mu: +0.406651230  nElectrons: 314.000000
SCF: Cycle:  5   F: -988.950217129594421   dF: -1.230e-04   |Residual|: 3.693e-03   |deigs|: 5.953e-05  t[s]:  10542.77
	FillingsUpdate:  mu: +0.406634171  nElectrons: 314.000000
SCF: Cycle:  6   F: -988.950238320632707   dF: -2.119e-05   |Residual|: 2.135e-03   |deigs|: 4.362e-05  t[s]:  10603.62
	FillingsUpdate:  mu: +0.406645346  nElectrons: 314.000000
SCF: Cycle:  7   F: -988.950242672775516   dF: -4.352e-06   |Residual|: 1.034e-03   |deigs|: 1.640e-05  t[s]:  10665.29
	FillingsUpdate:  mu: +0.406642637  nElectrons: 314.000000
SCF: Cycle:  8   F: -988.950243932631793   dF: -1.260e-06   |Residual|: 2.957e-04   |deigs|: 6.568e-06  t[s]:  10726.67
	FillingsUpdate:  mu: +0.406642560  nElectrons: 314.000000
SCF: Cycle:  9   F: -988.950244167759251   dF: -2.351e-07   |Residual|: 1.228e-04   |deigs|: 2.205e-06  t[s]:  10787.95
	FillingsUpdate:  mu: +0.406643878  nElectrons: 314.000000
SCF: Cycle: 10   F: -988.950244261769285   dF: -9.401e-08   |Residual|: 7.960e-05   |deigs|: 1.482e-06  t[s]:  10849.91
	FillingsUpdate:  mu: +0.406644432  nElectrons: 314.000000
SCF: Cycle: 11   F: -988.950244314407541   dF: -5.264e-08   |Residual|: 2.671e-05   |deigs|: 1.272e-06  t[s]:  10911.40
	FillingsUpdate:  mu: +0.406644475  nElectrons: 314.000000
SCF: Cycle: 12   F: -988.950244341780831   dF: -2.737e-08   |Residual|: 2.904e-05   |deigs|: 1.211e-06  t[s]:  10972.51
	FillingsUpdate:  mu: +0.406644411  nElectrons: 314.000000
SCF: Cycle: 13   F: -988.950244357918791   dF: -1.614e-08   |Residual|: 1.342e-05   |deigs|: 1.228e-06  t[s]:  11033.66
	FillingsUpdate:  mu: +0.406644349  nElectrons: 314.000000
SCF: Cycle: 14   F: -988.950244367145160   dF: -9.226e-09   |Residual|: 1.298e-05   |deigs|: 1.278e-06  t[s]:  11094.94
	FillingsUpdate:  mu: +0.406644341  nElectrons: 314.000000
SCF: Cycle: 15   F: -988.950244372355769   dF: -5.211e-09   |Residual|: 5.233e-06   |deigs|: 1.231e-06  t[s]:  11156.47
SCF: Converged (|Delta E|<1.000000e-08 for 2 iters).

Setting wave functions to eigenvectors of Hamiltonian

# Ionic positions in lattice coordinates:
ion O  -0.014505281856488  -0.024218209048557   0.737567273794639 1
ion O   0.510130746559360   0.251433829955936  -0.006250486990007 1
ion O   0.524391699736811   0.511706163165098   0.759562105629096 1
ion O   0.501138856721345   0.761781262255749   0.532037368685650 1
ion O   0.764487383842119   0.738904143195279   0.253429140531107 1
ion O  -0.020101298938661   0.738695905482556  -0.015444456554375 1
ion O  -0.007966298295218   0.513010301592449   0.253023412168410 1
ion O   0.244717814570635   0.757701952368279   0.742818218979411 1
ion O   0.740138082191674  -0.021560998456977  -0.022695581148653 1
ion O   0.258019060435623  -0.008060697703089   0.521313583994306 1
ion O   0.762912660997718   0.528297895377287   0.507191858157095 1
ion O   0.020081379249735   0.267135294541051   0.005423439134330 1
ion O   0.747331229710077   0.015574800300813   0.495534608059867 1
ion O   0.750083604911943   0.232116545506981   0.256852488276228 1
ion O   0.499700427315320   0.237331997429475   0.490598823509720 1
ion O   0.470928978288780   0.491948451276909   0.242786652603772 1
ion O   0.238196818176977   0.260853151256121   0.748272760005131 1
ion O   0.485017403885916   0.745277049969387   0.009939343073478 1
ion O   0.268392523941278   0.024572193847524   0.033614361911371 1
ion O   0.259541791964547   0.753594194218854   0.232124641617819 1
ion O  -0.001096036883554   0.460756547983915   0.746037113261136 1
ion O   0.015778104135092   0.029032103727433   0.275306285258171 1
ion O   0.234427244551664   0.468902378059191   0.484769510683309 1
ion Y   0.753094083495212   0.755523270768180   1.008587428678454 1
ion Y   0.485786730094002   0.254388277131534   0.746479237917151 1
ion Y   0.742147790368291   0.489949595550974   0.248819209994012 1
ion Y   1.008482424261689   0.752232591280524   0.756058157291687 1
ion Y   0.750589076887075   0.994863581833308   0.750058604854348 1
ion Y   0.245931373397291   0.740513758227402   0.492053865649603 1
ion Y   0.748293330752174   0.260571404049660   0.498679708386349 1
ion Y  -0.012436398488625   0.246716207711689   0.232782168414483 1
ion Y   0.239288728911542  -0.009543825501602   0.259337461395752 1
ion Y   0.515165901046299   0.750638201649137   0.263778931346335 1
ion Y   0.259176012618235   0.510628574276152   0.749480660859178 1
ion Y   0.253448943163002   0.245886403231167  -0.008991476995070 1
ion Y   0.011549245310975   0.508298321359516   0.009822171687813 1
ion Y   0.496041318493974  -0.002020859197234  -0.001533760385328 1
ion Y  -0.000669762617898   0.000187007339715   0.501756286052601 1
ion Y   0.498284307094066   0.497651233988213   0.501718880211625 1

# Forces in Lattice coordinates:
force O   0.022792208757026  -0.243002624111706  -0.014757985162252 1
force O   0.238769897490763   0.042626497317822  -0.285290398333657 1
force O   0.180604675409558   0.006173156139349   0.026665771579070 1
force O   0.212043834171033  -0.096314999033845   0.070629148389843 1
force O   0.212122090061274  -0.180016244424183   0.007609229894674 1
force O  -0.248249059913142   0.032305962845014   0.009598048994167 1
force O  -0.261438479185077   0.280506117071923  -0.008627484223673 1
force O   0.005546691210597   0.267190826706263  -0.322210653594912 1
force O  -0.049963448286221   0.101602139562402  -0.246435256809397 1
force O  -0.190151150035186  -0.168534358315596   0.239684981715410 1
force O  -0.011083680149607   0.105918984878902   0.091028165777197 1
force O   0.099341415456951  -0.019189803895300  -0.005213029850108 1
force O  -0.034013525748070   0.253280961074493  -0.191881397728574 1
force O  -0.020339990036593  -0.186856620045331   0.198684351600923 1
force O   0.027201808203102   0.040984027625327  -0.226627281690480 1
force O  -0.176808839239892  -0.018694809046584  -0.007468244243960 1
force O  -0.203777895678303   0.216941670548810   0.017737403269057 1
force O  -0.266185210883102   0.024770935368123   0.304339369694797 1
force O   0.001518790135153  -0.098848646447067   0.295564840388030 1
force O   0.334760680447328  -0.176203158411147  -0.066852756392159 1
force O   0.163157541194508  -0.109551121422406   0.014880083537072 1
force O   0.066052310349215   0.220840211947927  -0.128726879426814 1
[...]
force Y  -0.000186000203809  -0.000804031467688   0.002326851664188 1
force Y  -0.002430107831936   0.000544787787127   0.002802417047694 1
force Y   0.002331279144177  -0.001107812326803   0.000248447392411 1
force Y  -0.001217180906747  -0.001182839434880   0.000207984654044 1
force Y   0.000240793141928  -0.001850954385785   0.001842034534935 1
force Y  -0.000475556142842   0.000728535677225  -0.001161849333155 1
force Y   0.001008042867551  -0.001379202236409  -0.001579213527592 1
force Y  -0.000502588760396  -0.000235272682497   0.000832372005067 1
force Y  -0.000721706812895   0.002431631683920  -0.000181494553888 1
force Y   0.001567457780558   0.000459999878656  -0.001404357193711 1
force Y   0.000554683971841  -0.002378891906977   0.001356318019856 1
force Y  -0.002133758112500   0.001250003964749   0.001728371755667 1
force Y  -0.000501723618046   0.002047238404639  -0.002583168205171 1
force Y  -0.001704310793193   0.000319748513717   0.001253258393395 1

# Energy components:
   Eewald =     -765.0760885779384353
       EH =      215.3907824280479986
     Eloc =     -751.9907901064574389
      Enl =      146.9509858588246232
      Exc =     -302.1705365213509822
 Exc_core =      126.2367181960344169
       KE =      341.5920540037819819
-------------------------------------
     Etot =     -989.0668747190578642
       TS =        0.0193952634512716
-------------------------------------
        F =     -989.0862699825091795

IonicMinimize: Iter:  14  F: -989.086269982509179  |grad|_K:  1.331e-04  alpha:  1.000e+00  linmin: -8.878e-01  t[s]:  20236.36

#--- Lowdin population analysis ---
# oxidation-state O -0.427 -0.426 -0.430 -0.426 -0.431 -0.429 -0.431 -0.430 -0.428 -0.430 -0.434 -0.434 -0.436 -0.425 -0.432 -0.435 -0.425 -0.436 -0.436 -0.422 -0.436 -0.435 -0.435
# oxidation-state Y +0.663 +0.570 +0.668 +0.672 +0.565 +0.665 +0.585 +0.662 +0.671 +0.671 +0.669 +0.665 +0.601 +0.684 +0.689 +0.688


-------- Electronic minimization -----------
Will mix electronic density at each iteration.
	FillingsUpdate:  mu: +0.426638306  nElectrons: 314.000000
	FillingsUpdate:  mu: +0.426827675  nElectrons: 314.000000
SCF: Cycle:  0   F: -989.086275750578693   dF: -4.801e-05   |Residual|: 1.947e-03   |deigs|: 1.651e-06  t[s]:  20338.60
	FillingsUpdate:  mu: +0.426796732  nElectrons: 314.000000
SCF: Cycle:  1   F: -989.086286028878703   dF: -1.028e-05   |Residual|: 1.015e-03   |deigs|: 1.196e-05  t[s]:  20400.06
	FillingsUpdate:  mu: +0.426780686  nElectrons: 314.000000
SCF: Cycle:  2   F: -989.086287640804812   dF: -1.612e-06   |Residual|: 4.971e-04   |deigs|: 4.610e-06  t[s]:  20461.23
	FillingsUpdate:  mu: +0.426761321  nElectrons: 314.000000
SCF: Cycle:  3   F: -989.086288527281681   dF: -8.865e-07   |Residual|: 1.578e-04   |deigs|: 5.457e-06  t[s]:  20522.48
	FillingsUpdate:  mu: +0.426757513  nElectrons: 314.000000
SCF: Cycle:  4   F: -989.086288585415900   dF: -5.813e-08   |Residual|: 6.321e-05   |deigs|: 1.570e-06  t[s]:  20583.31
	FillingsUpdate:  mu: +0.426755293  nElectrons: 314.000000
SCF: Cycle:  5   F: -989.086288604760625   dF: -1.934e-08   |Residual|: 3.292e-05   |deigs|: 1.240e-06  t[s]:  20644.54
	FillingsUpdate:  mu: +0.426754401  nElectrons: 314.000000
SCF: Cycle:  6   F: -989.086288608676341   dF: -3.916e-09   |Residual|: 1.379e-05   |deigs|: 1.093e-06  t[s]:  20705.79
	FillingsUpdate:  mu: +0.426754543  nElectrons: 314.000000
SCF: Cycle:  7   F: -989.086288609404733   dF: -7.284e-10   |Residual|: 4.643e-06   |deigs|: 8.707e-07  t[s]:  20766.93
SCF: Converged (|Delta E|<1.000000e-08 for 2 iters).

Setting wave functions to eigenvectors of Hamiltonian

# Ionic positions in lattice coordinates:
ion O  -0.009522068164834  -0.043294444597401   0.729476351131799 1
ion O   0.505792323363456   0.239098640649663  -0.030652477490809 1
ion O   0.538247131643642   0.529935850436056   0.770945108860190 1
ion O   0.530666318594348   0.766214062329382   0.542078933221418 1
ion O   0.770622761717567   0.731290220396256   0.263890152366358 1
ion O  -0.038916558463033   0.731421768564144  -0.006197360576978 1
ion O  -0.027489883912534   0.514491666597954   0.244541097746942 1
ion O   0.257735573838117   0.768974781471994   0.731010740485698 1
ion O   0.728931372174029  -0.014366728898016  -0.040410229157980 1
ion O   0.236078999397901  -0.030485071998044   0.512262113297211 1
ion O   0.770217490897570   0.541225529170088   0.529561189408576 1
ion O   0.034562681131908   0.270290684896878   0.006194985429353 1
ion O   0.760196868557113   0.033269419688055   0.495056548955101 1
ion O   0.738275700460281   0.227893973605870   0.268155631972781 1
ion O   0.474643885636310   0.229942175687417   0.466474399324690 1
ion O   0.456012235235197   0.468567138780141   0.230326134164144 1
ion O   0.226770938650809   0.270565437535093   0.741328856568510 1
ion O   0.487601678023076   0.760481803405746   0.032415881206899 1
ion O   0.272357390503808   0.011692103470317   0.044705165768838 1
ion O   0.271728684626522   0.742272339308364   0.232673313049045 1
ion O   0.025584500072146   0.484678621643830   0.762239733816430 1
ion O   0.010750394594447   0.043315123413351   0.273829902341201 1
ion O   0.228880192506927   0.457394599763630   0.470003658797987 1
ion Y   0.749295437779363   0.779795083847883   1.033855533104329 1
ion Y   0.462485569692178   0.249491993873306   0.720370582045348 1
ion Y   0.716946457130626   0.468243510225133   0.248055286427464 1
ion Y   1.030940429440880   0.748824120677366   0.784321682062053 1
ion Y   0.780811699482865   1.020807712585000   0.750659570979328 1
ion Y   0.252701097248630   0.720801909034948   0.473126708920928 1
ion Y   0.750460580367478   0.281733704316841   0.526594576682457 1
ion Y  -0.032841276413753   0.250338899229642   0.217101695520656 1
ion Y   0.218714212521221  -0.029432376646926   0.253880230784885 1
ion Y   0.532512379787807   0.750700014142729   0.284614341237663 1
ion Y   0.280973936403674   0.531881940023766   0.751318734021784 1
ion Y   0.248132175396855   0.217217982692491  -0.030461516844655 1
ion Y   0.008116699445837   0.508091175486287   0.009539680929986 1
ion Y   0.498816240782770  -0.001069786759624  -0.002686296981386 1
ion Y  -0.001216140690086   0.000901894124687   0.501471821296335 1
ion Y   0.499341890538880   0.498072527825704   0.501027539125423 1

# Forces in Lattice coordinates:
force O   0.001667818076574  -0.001898542955089  -0.000228639178018 1
force O  -0.000171846285556   0.000408781330404   0.001011586420112 1
force O  -0.000721236075077   0.001493395276789  -0.000503213671869 1
force O   0.001301072430595  -0.000708328619849  -0.000328231119004 1
force O  -0.001055119409833   0.000634127656265   0.000247893953456 1
force O   0.000303706948729  -0.001640968001883   0.001424527526676 1
force O  -0.000633282867562  -0.000273852506345   0.000285100335453 1
force O  -0.000541362675325  -0.000834778738450   0.001562552221740 1
force O  -0.001626002320957   0.001167340090301  -0.001244618956550 1
force O  -0.000828183732171  -0.000226776177488   0.000278265747624 1
force O  -0.000718878199581  -0.000264196939203   0.002063170363400 1
force O   0.000483343810630  -0.000057561167553  -0.000829207740020 1
force O   0.000852795269749  -0.001881304450835   0.000283521078734 1
force O  -0.001931102095526  -0.000430836057834   0.002431978119449 1
force O  -0.000877236921418   0.001325436364602  -0.000682073635014 1
force O   0.001459268342747  -0.000032235483244   0.000028688211397 1
force O   0.000159599538702   0.001683865319956  -0.001887211969451 1
force O  -0.001277819160418   0.001211940995517   0.001723282001230 1
force O   0.000909699132539   0.000105236113495  -0.001865260794694 1
force O   0.001436716360895  -0.001528787507033   0.000384984621682 1
force O   0.000651410951538   0.003315684885325  -0.001846242705114 1
force O   0.000620088777558  -0.001036382295488  -0.001287214940806 1
force O   0.000043202342747   0.000873165453056   0.001383839871626 1
force Y  -0.000645608193573   0.001949652570810  -0.002489588452928 1
force Y   0.002182983125768  -0.000276568868002  -0.003372565500552 1
force Y   0.002266510729415  -0.002012159353133   0.001220601837847 1
force Y  -0.003579814358006   0.005031100480941  -0.002470808589520 1
force Y   0.001801012046297  -0.000783710522009   0.001959100777768 1
force Y  -0.004269530742268   0.004631906059976  -0.001779228052364 1
force Y  -0.004340912113991   0.000632941450123  -0.000951390867268 1
force Y  -0.001226385654672   0.000225219299811  -0.001002750186418 1
force Y   0.001308734463003   0.000793644082585   0.001953348309726 1
force Y  -0.001319398560610   0.001362994904143  -0.001201318308005 1
force Y   0.003674661828270  -0.004787669042123   0.001281500892005 1
force Y  -0.001405849355482   0.000394895049568  -0.001831536209754 1
force Y  -0.002121639574273  -0.004877597872457   0.004923276718816 1
force Y   0.001171252549327   0.003810362615741  -0.000545819724298 1
force Y   0.004446475433897  -0.000938832227218  -0.000502773849564 1
force Y   0.001840884244991  -0.005760370548512   0.002943744972074 1

# Energy components:
   Eewald =     -765.1308619987573820
       EH =      215.3333424369462250
     Eloc =     -751.8763292062099026
      Enl =      146.9505093656378563
      Exc =     -302.1695006450794381
 Exc_core =      126.2367185082344179
       KE =      341.5892587125339901
-------------------------------------
     Etot =     -989.0668628266944324
       TS =        0.0194257827103357
-------------------------------------
        F =     -989.0862886094047326

IonicMinimize: Iter:  15  F: -989.086288609404733  |grad|_K:  1.108e-04  alpha:  1.000e+00  linmin:  7.428e-02  t[s]:  20779.78

#--- Lowdin population analysis ---
# oxidation-state O -0.427 -0.426 -0.430 -0.426 -0.431 -0.429 -0.431 -0.430 -0.428 -0.430 -0.434 -0.434 -0.436 -0.425 -0.432 -0.435 -0.425 -0.436 -0.436 -0.422 -0.436 -0.435 -0.435
# oxidation-state Y +0.663 +0.570 +0.669 +0.672 +0.565 +0.665 +0.585 +0.662 +0.671 +0.671 +0.669 +0.665 +0.601 +0.684 +0.690 +0.689


-------- Electronic minimization -----------
Will mix electronic density at each iteration.
	FillingsUpdate:  mu: +0.426754543  nElectrons: 314.000000
	FillingsUpdate:  mu: +0.426669296  nElectrons: 314.000000
SCF: Cycle:  0   F: -989.086270586272008   dF: +3.517e-06   |Residual|: 2.211e-03   |deigs|: 1.399e-06  t[s]:  20882.01
	FillingsUpdate:  mu: +0.426700050  nElectrons: 314.000000
SCF: Cycle:  1   F: -989.086285070417830   dF: -1.448e-05   |Residual|: 1.268e-03   |deigs|: 1.378e-05  t[s]:  20942.97
	FillingsUpdate:  mu: +0.426710652  nElectrons: 314.000000
SCF: Cycle:  2   F: -989.086286434874637   dF: -1.364e-06   |Residual|: 3.909e-04   |deigs|: 3.574e-06  t[s]:  21004.49
	FillingsUpdate:  mu: +0.426730103  nElectrons: 314.000000
SCF: Cycle:  3   F: -989.086287413533341   dF: -9.787e-07   |Residual|: 1.613e-04   |deigs|: 5.670e-06  t[s]:  21065.62
	FillingsUpdate:  mu: +0.426733570  nElectrons: 314.000000
SCF: Cycle:  4   F: -989.086287487932395   dF: -7.440e-08   |Residual|: 7.647e-05   |deigs|: 1.975e-06  t[s]:  21126.85
	FillingsUpdate:  mu: +0.426735016  nElectrons: 314.000000
SCF: Cycle:  5   F: -989.086287502612322   dF: -1.468e-08   |Residual|: 3.544e-05   |deigs|: 1.137e-06  t[s]:  21188.14
	FillingsUpdate:  mu: +0.426735568  nElectrons: 314.000000
SCF: Cycle:  6   F: -989.086287505507130   dF: -2.895e-09   |Residual|: 1.509e-05   |deigs|: 9.371e-07  t[s]:  21249.29
	FillingsUpdate:  mu: +0.426735364  nElectrons: 314.000000
SCF: Cycle:  7   F: -989.086287505823975   dF: -3.168e-10   |Residual|: 4.323e-06   |deigs|: 7.399e-07  t[s]:  21310.59
SCF: Converged (|Delta E|<1.000000e-08 for 2 iters).

Setting wave functions to eigenvectors of Hamiltonian
IonicMinimize: 	Wolfe criterion not satisfied: alpha: 1  (E-E0)/|gdotd0|: 0.0930833  gdotd/gdotd0: -1.1821 (taking cubic step)

-------- Electronic minimization -----------
Will mix electronic density at each iteration.
	FillingsUpdate:  mu: +0.426735364  nElectrons: 314.000000
	FillingsUpdate:  mu: +0.426781678  nElectrons: 314.000000
SCF: Cycle:  0   F: -989.086286313483129   dF: +1.050e-06   |Residual|: 1.201e-03   |deigs|: 1.213e-06  t[s]:  21426.19
	FillingsUpdate:  mu: +0.426764979  nElectrons: 314.000000
SCF: Cycle:  1   F: -989.086290588172233   dF: -4.275e-06   |Residual|: 6.887e-04   |deigs|: 7.424e-06  t[s]:  21487.57
	FillingsUpdate:  mu: +0.426759248  nElectrons: 314.000000
SCF: Cycle:  2   F: -989.086290990875227   dF: -4.027e-07   |Residual|: 2.123e-04   |deigs|: 2.005e-06  t[s]:  21548.24
	FillingsUpdate:  mu: +0.426748726  nElectrons: 314.000000
SCF: Cycle:  3   F: -989.086291279869897   dF: -2.890e-07   |Residual|: 8.760e-05   |deigs|: 3.190e-06  t[s]:  21609.31
	FillingsUpdate:  mu: +0.426746861  nElectrons: 314.000000
SCF: Cycle:  4   F: -989.086291301816459   dF: -2.195e-08   |Residual|: 4.164e-05   |deigs|: 1.503e-06  t[s]:  21670.44
	FillingsUpdate:  mu: +0.426746086  nElectrons: 314.000000
SCF: Cycle:  5   F: -989.086291306119278   dF: -4.303e-09   |Residual|: 1.928e-05   |deigs|: 9.673e-07  t[s]:  21731.35
	FillingsUpdate:  mu: +0.426745789  nElectrons: 314.000000
SCF: Cycle:  6   F: -989.086291306967837   dF: -8.486e-10   |Residual|: 8.206e-06   |deigs|: 8.414e-07  t[s]:  21792.77
SCF: Converged (|Delta E|<1.000000e-08 for 2 iters).

Setting wave functions to eigenvectors of Hamiltonian

# Ionic positions in lattice coordinates:
ion O  -0.009502391913803  -0.043310414055221   0.729445355698967 1
ion O   0.505856533551769   0.239158292703362  -0.030615981809125 1
ion O   0.538262328934993   0.529968883664559   0.770945413035061 1
ion O   0.530682452754794   0.766233650932521   0.542110862405478 1
ion O   0.770623971995097   0.731295961130514   0.263866352004011 1
ion O  -0.038937212897021   0.731382887221711  -0.006220002880990 1
ion O  -0.027514857040603   0.514477718684523   0.244538669308520 1
ion O   0.257684104022351   0.768990762025289   0.731041382328962 1
ion O   0.728880774954737  -0.014360095174437  -0.040458820143322 1
ion O   0.236054607872729  -0.030494847555114   0.512243805752343 1
ion O   0.770224057978296   0.541233191421551   0.529622518317154 1
ion O   0.034581766777223   0.270252064015686   0.006196298937022 1
ion O   0.760178060596292   0.033213893747007   0.495026738334442 1
ion O   0.738256969575186   0.227880795355754   0.268201009073273 1
ion O   0.474649946938600   0.229946051093758   0.466457317028975 1
ion O   0.456050234070970   0.468594616886592   0.230357655950024 1
ion O   0.226781591575760   0.270571618012922   0.741296468191244 1
ion O   0.487604632913937   0.760540859279353   0.032467296206491 1
ion O   0.272366652391465   0.011742375938344   0.044707533908416 1
ion O   0.271738100841580   0.742236262442148   0.232651851165333 1
ion O   0.025595201018964   0.484669514451636   0.762240945898039 1
ion O   0.010775530957995   0.043286384123399   0.273776255019521 1
ion O   0.228888990000458   0.457407868765229   0.470060899408025 1
ion Y   0.749269551743094   0.779803798954323   1.033806826740780 1
ion Y   0.462475722075270   0.249481197093342   0.720324206403692 1
ion Y   0.716992797764319   0.468238228654992   0.248089431116820 1
ion Y   1.030890022941443   0.748836183919289   0.784307801052133 1
ion Y   0.780853377566569   1.020809060645356   0.750698465380309 1
ion Y   0.252614590814484   0.720801366766094   0.473069114093878 1
ion Y   0.750402478589556   0.281686801433433   0.526562324234692 1
ion Y  -0.032869396980857   0.250348729139736   0.217089902460452 1
ion Y   0.218745360217828  -0.029438531686768   0.253906387530136 1
ion Y   0.532469930484120   0.750691997027429   0.284590201779515 1
ion Y   0.281017302823585   0.531841864499098   0.751337339348451 1
ion Y   0.248136769707725   0.217224142646914  -0.030524339708108 1
ion Y   0.008072864893829   0.508020978433192   0.009576872628545 1
ion Y   0.498867987539618  -0.000961542098801  -0.002636286713231 1
ion Y  -0.001120838613255   0.000947633860587   0.501484891027806 1
ion Y   0.499319430560905   0.498019795600697   0.501057039486263 1

# Forces in Lattice coordinates:
force O   0.001571125512120  -0.000356705045646  -0.000730357974599 1
force O  -0.000402480143582   0.001125809142161  -0.000365486655506 1
force O  -0.000503200122232  -0.000356962069405   0.000240877257141 1
force O  -0.000154023246517  -0.001012399876193   0.000220193396713 1
force O   0.000056921190015  -0.000184210575433   0.000084080214591 1
force O   0.000009640514600  -0.001860096330380   0.002723554270948 1
force O   0.000138862456729  -0.001080220841490   0.000286559723220 1
force O   0.001479430465669  -0.000680918407847  -0.000669011781920 1
force O  -0.001265406014574   0.001057559262353   0.000247280577273 1
force O   0.000320393978583  -0.000060276301407  -0.000151796643056 1
force O  -0.001033907286372  -0.000490925192496   0.000802097684850 1
force O  -0.000257109091562   0.000656581452898  -0.000051621261505 1
force O   0.000956895557862  -0.000533664931049   0.000320224185271 1
force O  -0.000570463968343   0.000371242372860   0.000307107741703 1
force O  -0.002175655335571   0.000548722344304   0.000692477733388 1
force O   0.001266353507122  -0.001180610188262  -0.000357545358841 1
force O   0.001223139995260   0.000534044845650  -0.001717264308426 1
force O  -0.000119834894833   0.001049636169862  -0.000005754119952 1
force O   0.000425793525760   0.000204386876448  -0.000831077417776 1
force O  -0.001260419902156  -0.000853545685922   0.001684225626584 1
force O  -0.000087937409350   0.002100373065610  -0.000739147275685 1
force O  -0.000159421516482   0.000456549705725  -0.001241733638383 1
force O  -0.000640638802745   0.001000520030295  -0.000065439104946 1
force Y  -0.000423848588473   0.000980752283423   0.000033320483687 1
force Y   0.003356087447667  -0.000972095118656  -0.001690780638139 1
force Y  -0.002144380294849   0.001964227610850   0.002226019497018 1
force Y  -0.000669926745536   0.001819024126661  -0.001160623054351 1
force Y   0.001414461295839  -0.000576727318086  -0.001109535470275 1
force Y  -0.000614744982123   0.000861642828560   0.002254776105188 1
force Y  -0.001563882773670  -0.000518160907552   0.001135507911802 1
force Y   0.000775084811972  -0.002514095726355   0.000498776610061 1
force Y   0.001421026514166   0.001449954912232  -0.001943228612148 1
force Y   0.001678539077060  -0.000576033719730  -0.000135491661662 1
force Y  -0.001136602865044   0.001438109065508   0.001430951484425 1
force Y  -0.001151437005928  -0.000614719809347   0.001309995114839 1
force Y  -0.000779946697273  -0.001180009409970  -0.000688869836790 1
force Y  -0.000722448377534   0.000672098209150  -0.000592833081867 1
force Y  -0.000847228916160  -0.000875093999656  -0.000287567865349 1
force Y   0.001860693898846  -0.001079548349226  -0.001123585832788 1

# Energy components:
   Eewald =     -765.1372748413132285
       EH =      215.3268339277618111
     Eloc =     -751.8632037123495593
      Enl =      146.9504498383980717
      Exc =     -302.1694071024126060
 Exc_core =      126.2367185315524267
       KE =      341.5890048724524490
-------------------------------------
     Etot =     -989.0668784859105926
       TS =        0.0194128210572353
-------------------------------------
        F =     -989.0862913069678370

IonicMinimize: Iter:  16  F: -989.086291306967837  |grad|_K:  6.281e-05  alpha:  4.569e-01  linmin:  7.564e-03  t[s]:  21805.46
IonicMinimize: Converged (|grad|_K<1.000000e-04).

#--- Lowdin population analysis ---
# oxidation-state O -0.427 -0.426 -0.430 -0.426 -0.431 -0.429 -0.431 -0.430 -0.428 -0.430 -0.434 -0.434 -0.436 -0.425 -0.432 -0.435 -0.425 -0.436 -0.436 -0.422 -0.436 -0.435 -0.435
# oxidation-state Y +0.663 +0.571 +0.669 +0.671 +0.565 +0.665 +0.584 +0.662 +0.671 +0.671 +0.669 +0.665 +0.601 +0.684 +0.690 +0.689


Dumping '/data/rc652/Y2O3/vac/Y2O3_vac.Ecomponents' ... done
End date and time: Thu Jun 27 18:57:07 2024  (Duration: 0-6:03:33.09)
Done!
