--------------------------------------------------------------------------
Initialization of PSM library failed.

  Error: PSM is in the finalized state
--------------------------------------------------------------------------

*************** JDFTx 1.7.0 (git hash 3664913) ***************

Start date and time: Thu Jun 27 10:53:50 2024
Executable jdftx with command-line: -i Y2O3_ion.in
Running on hosts (process indices):  node3104.physics.cornell.edu (0-15)
Divided in process groups (process indices):  0 (0)  1 (1)  2 (2)  3 (3)  4 (4)  5 (5)  6 (6)  7 (7)  8 (8)  9 (9)  10 (10)  11 (11)  12 (12)  13 (13)  14 (14)  15 (15)
Resource initialization completed at t[s]:      0.00
Run totals: 16 processes, 32 threads, 0 GPUs


Input parsed successfully to the following command list (including defaults):

basis kpoint-dependent
coords-type Lattice
core-overlap-check vector
coulomb-interaction Periodic
davidson-band-ratio 1.1
dump End Ecomponents
dump-name /data/rc652/Y2O3/ion/Y2O3_ion.$VAR
elec-cutoff 20 100
elec-eigen-algo Davidson
elec-ex-corr gga-PBEsol
elec-smearing Fermi 0.01
electronic-minimize  \
	dirUpdateScheme      FletcherReeves \
	linminMethod         DirUpdateRecommended \
	nIterations          100 \
	history              15 \
	knormThreshold       0 \
	maxThreshold         no \
	energyDiffThreshold  1e-08 \
	nEnergyDiff          2 \
	alphaTstart          1 \
	alphaTmin            1e-10 \
	updateTestStepSize   yes \
	alphaTreduceFactor   0.1 \
	alphaTincreaseFactor 3 \
	nAlphaAdjustMax      3 \
	wolfeEnergy          0.0001 \
	wolfeGradient        0.9 \
	fdTest               no
electronic-scf  \
	nIterations	50 \
	energyDiffThreshold	1e-08 \
	residualThreshold	1e-07 \
	mixFraction	0.5 \
	qMetric	0.8 \
	history	10 \
	nEigSteps	2 \
	eigDiffThreshold	1e-08 \
	mixedVariable	Density \
	qKerker	0.8 \
	qKappa	-1 \
	verbose	no \
	mixFractionMag	1.5
exchange-regularization WignerSeitzTruncated
fluid None
fluid-ex-corr lda-TF lda-PZ
fluid-gummel-loop 10 1.000000e-05
fluid-minimize  \
	dirUpdateScheme      PolakRibiere \
	linminMethod         DirUpdateRecommended \
	nIterations          100 \
	history              15 \
	knormThreshold       0 \
	maxThreshold         no \
	energyDiffThreshold  0 \
	nEnergyDiff          2 \
	alphaTstart          1 \
	alphaTmin            1e-10 \
	updateTestStepSize   yes \
	alphaTreduceFactor   0.1 \
	alphaTincreaseFactor 3 \
	nAlphaAdjustMax      3 \
	wolfeEnergy          0.0001 \
	wolfeGradient        0.9 \
	fdTest               no
fluid-solvent H2O 55.338 ScalarEOS \
	epsBulk 78.4 \
	pMol 0.92466 \
	epsInf 1.77 \
	Pvap 1.06736e-10 \
	sigmaBulk 4.62e-05 \
	Rvdw 2.61727 \
	Res 1.42 \
	tauNuc 343133 \
	poleEl 15 7 1
forces-output-coords Positions
ion O   0.770840000000000   0.254150000000000   0.760990000000000 1
ion O   0.001450000000000  -0.015550000000000   0.745370000000000 1
ion O   0.491530000000000   0.242640000000000   0.004690000000000 1
ion O   0.512010000000000   0.492590000000000   0.736070000000000 1
ion O   0.491970000000000   0.748790000000000   0.506090000000000 1
ion O   0.758560000000000   0.751580000000000   0.235820000000000 1
ion O  -0.009620000000000   0.757090000000000  -0.006590000000000 1
ion O   0.003310000000000   0.489160000000000   0.253400000000000 1
ion O   0.244620000000000   0.745960000000000   0.747580000000000 1
ion O   0.752700000000000  -0.006240000000000   0.007460000000000 1
ion O   0.260520000000000  -0.000780000000000   0.512570000000000 1
ion O   0.761870000000000   0.484670000000000   0.505510000000000 1
ion O  -0.003030000000000   0.244710000000000   0.021210000000000 1
ion O   0.735710000000000  -0.006550000000000   0.517700000000000 1
ion O   0.755730000000000   0.275820000000000   0.254950000000000 1
ion O   0.497700000000000   0.259390000000000   0.489750000000000 1
ion O   0.494460000000000   0.514800000000000   0.256450000000000 1
ion O   0.249450000000000   0.236160000000000   0.748210000000000 1
ion O   0.503500000000000   0.753250000000000  -0.015400000000000 1
ion O   0.264980000000000   0.001240000000000  -0.003200000000000 1
ion O   0.263120000000000   0.745950000000000   0.244250000000000 1
ion O  -0.000780000000000   0.498580000000000   0.757480000000000 1
ion O   0.025740000000000   0.008160000000000   0.254560000000000 1
ion O   0.250360000000000   0.488390000000000   0.508960000000000 1
ion Y   0.732390000000000   0.700480000000000   0.972580000000000 1
ion Y   0.535980000000000   0.259680000000000   0.805010000000000 1
ion Y   0.799160000000000   0.542190000000000   0.261480000000000 1
ion Y   0.956100000000000   0.745380000000000   0.711980000000000 1
ion Y   0.711500000000000   0.949710000000000   0.759940000000000 1
ion Y   0.241980000000000   0.804520000000000   0.558190000000000 1
ion Y   0.756780000000000   0.236150000000000   0.464670000000000 1
ion Y   0.025050000000000   0.245230000000000   0.266670000000000 1
ion Y   0.278290000000000   0.019010000000000   0.242700000000000 1
ion Y   0.478180000000000   0.745210000000000   0.225910000000000 1
ion Y   0.221250000000000   0.487580000000000   0.730640000000000 1
ion Y   0.235810000000000   0.269940000000000   0.021540000000000 1
ion Y  -0.015320000000000   0.492630000000000   0.010710000000000 1
ion Y   0.509310000000000  -0.015250000000000   0.003520000000000 1
ion Y   0.008090000000000  -0.016640000000000   0.493260000000000 1
ion Y   0.490960000000000   0.505440000000000   0.487010000000000 1
ion-species GBRV/$ID_pbesol.uspp
ion-width 0
ionic-minimize  \
	dirUpdateScheme      L-BFGS \
	linminMethod         DirUpdateRecommended \
	nIterations          30 \
	history              15 \
	knormThreshold       0.0001 \
	maxThreshold         no \
	energyDiffThreshold  1e-06 \
	nEnergyDiff          2 \
	alphaTstart          1 \
	alphaTmin            1e-10 \
	updateTestStepSize   yes \
	alphaTreduceFactor   0.1 \
	alphaTincreaseFactor 3 \
	nAlphaAdjustMax      3 \
	wolfeEnergy          0.0001 \
	wolfeGradient        0.9 \
	fdTest               no
kpoint   0.500000000000   0.500000000000   0.500000000000  1.00000000000000
kpoint-folding 4 4 4 
latt-move-scale 1 1 1
latt-scale 1 1 1 
lattice  \
	  16.270760425093940   -8.135360109830996   -0.000000019385914  \
	   0.000000065721794   14.090834071502949   -0.000000033577194  \
	  -5.752566976195800   -5.752566976195567   17.257680834202077 
lattice-minimize  \
	dirUpdateScheme      L-BFGS \
	linminMethod         DirUpdateRecommended \
	nIterations          0 \
	history              15 \
	knormThreshold       0 \
	maxThreshold         no \
	energyDiffThreshold  1e-06 \
	nEnergyDiff          2 \
	alphaTstart          1 \
	alphaTmin            1e-10 \
	updateTestStepSize   yes \
	alphaTreduceFactor   0.1 \
	alphaTincreaseFactor 3 \
	nAlphaAdjustMax      3 \
	wolfeEnergy          0.0001 \
	wolfeGradient        0.9 \
	fdTest               no
lcao-params -1 1e-06 0.01
pcm-variant GLSSA13
perturb-minimize  \
	nIterations            0 \
	algorithm              MINRES \
	residualTol            0.0001 \
	residualDiffThreshold  0.0001 \
	CGBypass               no \
	recomputeResidual      no
spintype no-spin
subspace-rotation-factor 1 yes
symmetries automatic
symmetry-threshold 0.0001



---------- Setting up symmetries ----------

Found 48 point-group symmetries of the bravais lattice
Found 1 space-group symmetries with basis
Applied RMS atom displacement 0 bohrs to make symmetries exact.

---------- Initializing the Grid ----------
R = 
[      16.2708     -8.13536 -1.93859e-08  ]
[  6.57218e-08      14.0908 -3.35772e-08  ]
[     -5.75257     -5.75257      17.2577  ]
unit cell volume = 3956.64
G =
[   0.386164   0.222952 8.67571e-10  ]
[ -1.4944e-09   0.445906 8.67571e-10  ]
[   0.128722   0.222953   0.364081  ]
Minimum fftbox size, Smin = [  80  80  80  ]
Chosen fftbox size, S = [  80  80  80  ]

---------- Initializing tighter grid for wavefunction operations ----------
R = 
[      16.2708     -8.13536 -1.93859e-08  ]
[  6.57218e-08      14.0908 -3.35772e-08  ]
[     -5.75257     -5.75257      17.2577  ]
unit cell volume = 3956.64
G =
[   0.386164   0.222952 8.67571e-10  ]
[ -1.4944e-09   0.445906 8.67571e-10  ]
[   0.128722   0.222953   0.364081  ]
Minimum fftbox size, Smin = [  72  72  72  ]
Chosen fftbox size, S = [  72  72  72  ]

---------- Exchange Correlation functional ----------
Initalized PBEsol GGA exchange.
Initalized PBEsol GGA correlation.

---------- Setting up pseudopotentials ----------
Width of ionic core gaussian charges (only for fluid interactions / plotting) set to 0

Reading pseudopotential file '/home/rc652/build/pseudopotentials/GBRV/o_pbesol.uspp':
  Title: O.  Created by USPP 7.3.6 on 3-2-2014
  Reference state energy: -15.849885.  6 valence electrons in orbitals:
    |200>  occupation: 2  eigenvalue: -0.873214
    |210>  occupation: 4  eigenvalue: -0.330058
  lMax: 2  lLocal: 2  QijEcut: 6
  5 projectors sampled on a log grid with 511 points:
    l: 0  eig: -0.873214  rCut: 1.25
    l: 0  eig: 0.000000  rCut: 1.25
    l: 1  eig: -0.330058  rCut: 1.25
    l: 1  eig: 0.000000  rCut: 1.25
    l: 2  eig: 1.000000  rCut: 1.25
  Partial core density with radius 0.7
  Transforming core density to a uniform radial grid of dG=0.02 with 2190 points.
  Transforming local potential to a uniform radial grid of dG=0.02 with 2190 points.
  Transforming nonlocal projectors to a uniform radial grid of dG=0.02 with 432 points.
  Transforming density augmentations to a uniform radial grid of dG=0.02 with 2190 points.
  Transforming atomic orbitals to a uniform radial grid of dG=0.02 with 432 points.
  Core radius for overlap checks: 1.25 bohrs.

Reading pseudopotential file '/home/rc652/build/pseudopotentials/GBRV/y_pbesol.uspp':
  Title: Y.  Created by USPP 7.3.6 on 22-9-15
  Reference state energy: -46.146201.  11 valence electrons in orbitals:
    |400>  occupation: 2  eigenvalue: -1.762090
    |410>  occupation: 6  eigenvalue: -1.024857
    |420>  occupation: 1  eigenvalue: -0.092849
    |500>  occupation: 2  eigenvalue: -0.151409
    |510>  occupation: 0  eigenvalue: -0.052344
  lMax: 2  lLocal: 3  QijEcut: 5.5
  6 projectors sampled on a log grid with 623 points:
    l: 0  eig: -1.762090  rCut: 1.8
    l: 0  eig: -0.092849  rCut: 1.8
    l: 1  eig: -1.024857  rCut: 2
    l: 1  eig: 0.150000  rCut: 2
    l: 2  eig: -0.151409  rCut: 2.2
    l: 2  eig: 0.150000  rCut: 2.2
  Partial core density with radius 1.1
  Transforming core density to a uniform radial grid of dG=0.02 with 2190 points.
  Transforming local potential to a uniform radial grid of dG=0.02 with 2190 points.
  Transforming nonlocal projectors to a uniform radial grid of dG=0.02 with 432 points.
  Transforming density augmentations to a uniform radial grid of dG=0.02 with 2190 points.
  Transforming atomic orbitals to a uniform radial grid of dG=0.02 with 432 points.
  Core radius for overlap checks: 2.20 bohrs.

Initialized 2 species with 40 total atoms.

Folded 1 k-points by 4x4x4 to 64 k-points.

---------- Setting up k-points, bands, fillings ----------
Adding inversion symmetry to k-mesh for non-inversion-symmetric unit cell.
Reduced to 32 k-points under symmetry. 
Computing the number of bands and number of electrons
Calculating initial fillings.
nElectrons: 320.000000   nBands: 304   nStates: 32

----- Setting up reduced wavefunction bases (one per k-point) -----
average nbasis = 16906.375 , ideal nbasis = 16903.085

---------- Setting up ewald sum ----------
Optimum gaussian width for ewald sums = 3.364033 bohr.
Real space sum over 729 unit cells with max indices [  4  4  4  ]
Reciprocal space sum over 6859 terms with max indices [  9  9  9  ]

---------- Allocating electronic variables ----------
Initializing wave functions:  linear combination of atomic orbitals
O pseudo-atom occupations:   s ( 2 )  p ( 4 )
Y pseudo-atom occupations:   s ( 2 2 )  p ( 6 0 )  d ( 1 )
	FillingsUpdate:  mu: +0.506908052  nElectrons: 320.000000
LCAOMinimize: Iter:   0  F: -997.6811554170900536  |grad|_K:  3.024e-03  alpha:  1.000e+00
	FillingsUpdate:  mu: +0.495489025  nElectrons: 320.000000
LCAOMinimize: Iter:   1  F: -1000.4536520078046351  |grad|_K:  2.429e-03  alpha:  1.044e-01  linmin: -4.904e-01  cgtest:  8.549e-01  t[s]:    100.29
LCAOMinimize: Encountered beta<0, resetting CG.
LCAOMinimize: 	Predicted alpha/alphaT>3.000000, increasing alphaT to 3.130629e-01.
	FillingsUpdate:  mu: +0.397927798  nElectrons: 320.000000
LCAOMinimize: Iter:   2  F: -1003.0736553936213795  |grad|_K:  1.124e-03  alpha:  2.301e-01  linmin:  7.679e-02  cgtest: -3.033e-02  t[s]:    143.64
	FillingsUpdate:  mu: +0.367867644  nElectrons: 320.000000
LCAOMinimize: Iter:   3  F: -1003.2216991522436729  |grad|_K:  4.978e-04  alpha:  1.003e-01  linmin:  2.398e-02  cgtest:  3.790e-01  t[s]:    178.47
	FillingsUpdate:  mu: +0.372024158  nElectrons: 320.000000
LCAOMinimize: Iter:   4  F: -1003.2704978935793179  |grad|_K:  1.263e-04  alpha:  1.304e-01  linmin: -9.495e-02  cgtest:  2.322e-01  t[s]:    213.42
	FillingsUpdate:  mu: +0.371067847  nElectrons: 320.000000
LCAOMinimize: Iter:   5  F: -1003.2745917524295010  |grad|_K:  6.552e-05  alpha:  1.708e-01  linmin: -6.740e-03  cgtest:  1.790e-03  t[s]:    248.29
	FillingsUpdate:  mu: +0.370593501  nElectrons: 320.000000
LCAOMinimize: Iter:   6  F: -1003.2762424574406168  |grad|_K:  5.578e-05  alpha:  2.576e-01  linmin:  4.269e-03  cgtest: -3.109e-02  t[s]:    283.05
	FillingsUpdate:  mu: +0.370329569  nElectrons: 320.000000
LCAOMinimize: Iter:   7  F: -1003.2773334500609508  |grad|_K:  2.861e-05  alpha:  2.400e-01  linmin:  1.636e-03  cgtest:  5.604e-02  t[s]:    317.95
	FillingsUpdate:  mu: +0.369729887  nElectrons: 320.000000
LCAOMinimize: Iter:   8  F: -1003.2775242158500077  |grad|_K:  9.127e-06  alpha:  1.566e-01  linmin: -2.916e-04  cgtest:  2.693e-02  t[s]:    352.58
	FillingsUpdate:  mu: +0.370016275  nElectrons: 320.000000
LCAOMinimize: Iter:   9  F: -1003.2775505360428951  |grad|_K:  4.016e-06  alpha:  2.122e-01  linmin: -1.791e-04  cgtest: -2.615e-03  t[s]:    387.18
	FillingsUpdate:  mu: +0.370032637  nElectrons: 320.000000
LCAOMinimize: Iter:  10  F: -1003.2775556865349245  |grad|_K:  2.291e-06  alpha:  2.145e-01  linmin:  1.797e-04  cgtest: -1.095e-03  t[s]:    421.93
	FillingsUpdate:  mu: +0.370010927  nElectrons: 320.000000
LCAOMinimize: Iter:  11  F: -1003.2775576211564612  |grad|_K:  1.397e-06  alpha:  2.478e-01  linmin:  1.683e-04  cgtest:  2.304e-04  t[s]:    456.62
	FillingsUpdate:  mu: +0.370005859  nElectrons: 320.000000
LCAOMinimize: Iter:  12  F: -1003.2775584535332882  |grad|_K:  7.610e-07  alpha:  2.869e-01  linmin:  5.707e-05  cgtest:  3.420e-04  t[s]:    491.30
	FillingsUpdate:  mu: +0.370003106  nElectrons: 320.000000
LCAOMinimize: Iter:  13  F: -1003.2775586270274744  |grad|_K:  3.703e-07  alpha:  2.013e-01  linmin: -9.973e-06  cgtest:  4.012e-04  t[s]:    525.68
LCAOMinimize: Converged (|Delta F|<1.000000e-06 for 2 iters).


---- Citations for features of the code used in this run ----

   Software package:
      R. Sundararaman, K. Letchworth-Weaver, K.A. Schwarz, D. Gunceler, Y. Ozhabes and T.A. Arias, 'JDFTx: software for joint density-functional theory', SoftwareX 6, 278 (2017)

   gga-PBEsol exchange-correlation functional:
      J.P. Perdew et al., Phys. Rev. Lett. 100, 136406 (2008)

   Pseudopotentials:
      KF Garrity, JW Bennett, KM Rabe and D Vanderbilt, Comput. Mater. Sci. 81, 446 (2014)

This list may not be complete. Please suggest additional citations or
report any other bugs at https://github.com/shankar1729/jdftx/issues

Initialization completed successfully at t[s]:    540.76


-------- Electronic minimization -----------
Will mix electronic density at each iteration.
	FillingsUpdate:  mu: +0.370003106  nElectrons: 320.000000
	FillingsUpdate:  mu: +0.361645892  nElectrons: 320.000000
SCF: Cycle:  0   F: -1003.857851660411825   dF: -5.803e-01   |Residual|: 3.856e-01   |deigs|: 3.696e-02  t[s]:    687.92
	FillingsUpdate:  mu: +0.350704484  nElectrons: 320.000000
SCF: Cycle:  1   F: -1003.880673467631595   dF: -2.282e-02   |Residual|: 1.661e-01   |deigs|: 8.115e-03  t[s]:    810.36
	FillingsUpdate:  mu: +0.356994826  nElectrons: 320.000000
SCF: Cycle:  2   F: -1003.934640056870194   dF: -5.397e-02   |Residual|: 1.226e-01   |deigs|: 5.136e-03  t[s]:    929.75
	FillingsUpdate:  mu: +0.354772020  nElectrons: 320.000000
SCF: Cycle:  3   F: -1003.942246052229621   dF: -7.606e-03   |Residual|: 6.732e-02   |deigs|: 1.080e-03  t[s]:   1043.96
	FillingsUpdate:  mu: +0.354885712  nElectrons: 320.000000
SCF: Cycle:  4   F: -1003.950682525093839   dF: -8.436e-03   |Residual|: 1.731e-02   |deigs|: 3.056e-04  t[s]:   1156.91
	FillingsUpdate:  mu: +0.355119852  nElectrons: 320.000000
SCF: Cycle:  5   F: -1003.950873670280089   dF: -1.911e-04   |Residual|: 1.111e-02   |deigs|: 1.709e-04  t[s]:   1230.89
	FillingsUpdate:  mu: +0.355303006  nElectrons: 320.000000
SCF: Cycle:  6   F: -1003.951022573360092   dF: -1.489e-04   |Residual|: 5.027e-03   |deigs|: 2.431e-04  t[s]:   1303.50
	FillingsUpdate:  mu: +0.355306002  nElectrons: 320.000000
SCF: Cycle:  7   F: -1003.951066461450296   dF: -4.389e-05   |Residual|: 1.893e-03   |deigs|: 3.864e-05  t[s]:   1375.86
	FillingsUpdate:  mu: +0.355305314  nElectrons: 320.000000
SCF: Cycle:  8   F: -1003.951070547640370   dF: -4.086e-06   |Residual|: 1.042e-03   |deigs|: 2.621e-05  t[s]:   1449.05
	FillingsUpdate:  mu: +0.355324179  nElectrons: 320.000000
SCF: Cycle:  9   F: -1003.951071206781194   dF: -6.591e-07   |Residual|: 6.664e-04   |deigs|: 2.072e-05  t[s]:   1521.74
	FillingsUpdate:  mu: +0.355343042  nElectrons: 320.000000
SCF: Cycle: 10   F: -1003.951071914765180   dF: -7.080e-07   |Residual|: 2.027e-04   |deigs|: 1.592e-05  t[s]:   1594.10
	FillingsUpdate:  mu: +0.355343083  nElectrons: 320.000000
SCF: Cycle: 11   F: -1003.951071975772493   dF: -6.101e-08   |Residual|: 1.004e-04   |deigs|: 2.210e-06  t[s]:   1667.27
	FillingsUpdate:  mu: +0.355343543  nElectrons: 320.000000
SCF: Cycle: 12   F: -1003.951071991550975   dF: -1.578e-08   |Residual|: 5.008e-05   |deigs|: 1.910e-06  t[s]:   1740.02
	FillingsUpdate:  mu: +0.355344602  nElectrons: 320.000000
SCF: Cycle: 13   F: -1003.951071995901884   dF: -4.351e-09   |Residual|: 2.311e-05   |deigs|: 1.848e-06  t[s]:   1812.74
	FillingsUpdate:  mu: +0.355344731  nElectrons: 320.000000
SCF: Cycle: 14   F: -1003.951071997792951   dF: -1.891e-09   |Residual|: 1.141e-05   |deigs|: 1.441e-06  t[s]:   1885.64
SCF: Converged (|Delta E|<1.000000e-08 for 2 iters).

Setting wave functions to eigenvectors of Hamiltonian

# Ionic positions in lattice coordinates:
ion O   0.770840000000000   0.254150000000000   0.760990000000000 1
ion O   0.001450000000000  -0.015550000000000   0.745370000000000 1
ion O   0.491530000000000   0.242640000000000   0.004690000000000 1
ion O   0.512010000000000   0.492590000000000   0.736070000000000 1
ion O   0.491970000000000   0.748790000000000   0.506090000000000 1
ion O   0.758560000000000   0.751580000000000   0.235820000000000 1
ion O  -0.009620000000000   0.757090000000000  -0.006590000000000 1
ion O   0.003310000000000   0.489160000000000   0.253400000000000 1
ion O   0.244620000000000   0.745960000000000   0.747580000000000 1
ion O   0.752700000000000  -0.006240000000000   0.007460000000000 1
ion O   0.260520000000000  -0.000780000000000   0.512570000000000 1
ion O   0.761870000000000   0.484670000000000   0.505510000000000 1
ion O  -0.003030000000000   0.244710000000000   0.021210000000000 1
ion O   0.735710000000000  -0.006550000000000   0.517700000000000 1
ion O   0.755730000000000   0.275820000000000   0.254950000000000 1
ion O   0.497700000000000   0.259390000000000   0.489750000000000 1
ion O   0.494460000000000   0.514800000000000   0.256450000000000 1
ion O   0.249450000000000   0.236160000000000   0.748210000000000 1
ion O   0.503500000000000   0.753250000000000  -0.015400000000000 1
ion O   0.264980000000000   0.001240000000000  -0.003200000000000 1
ion O   0.263120000000000   0.745950000000000   0.244250000000000 1
ion O  -0.000780000000000   0.498580000000000   0.757480000000000 1
ion O   0.025740000000000   0.008160000000000   0.254560000000000 1
ion O   0.250360000000000   0.488390000000000   0.508960000000000 1
ion Y   0.732390000000000   0.700480000000000   0.972580000000000 1
ion Y   0.535980000000000   0.259680000000000   0.805010000000000 1
ion Y   0.799160000000000   0.542190000000000   0.261480000000000 1
ion Y   0.956100000000000   0.745380000000000   0.711980000000000 1
ion Y   0.711500000000000   0.949710000000000   0.759940000000000 1
ion Y   0.241980000000000   0.804520000000000   0.558190000000000 1
ion Y   0.756780000000000   0.236150000000000   0.464670000000000 1
ion Y   0.025050000000000   0.245230000000000   0.266670000000000 1
ion Y   0.278290000000000   0.019010000000000   0.242700000000000 1
ion Y   0.478180000000000   0.745210000000000   0.225910000000000 1
ion Y   0.221250000000000   0.487580000000000   0.730640000000000 1
ion Y   0.235810000000000   0.269940000000000   0.021540000000000 1
ion Y  -0.015320000000000   0.492630000000000   0.010710000000000 1
ion Y   0.509310000000000  -0.015250000000000   0.003520000000000 1
ion Y   0.008090000000000  -0.016640000000000   0.493260000000000 1
ion Y   0.490960000000000   0.505440000000000   0.487010000000000 1

# Forces in Lattice coordinates:
force O  -0.910268737366110  -0.074733672961538   0.717279041442958 1
force O  -0.465426332679524   0.477823448490648  -0.183953475519510 1
force O   0.517127830661084   0.117615167027728  -0.267436715827999 1
force O   0.205116419098861  -0.233692440035906   0.260403962380202 1
force O  -0.300628921336570   0.028380020127066   0.627835924918900 1
force O   0.298161541987628  -0.399235415851117   0.109488822099645 1
force O  -0.216637023737454  -0.144375821993548  -0.184302843394018 1
force O  -0.391797755237809   0.892946441817595  -0.019376664424015 1
force O  -0.398131084891895   0.165693076185485   0.455779920811153 1
force O  -0.003072040763221  -0.272766235899100   0.029846890828847 1
force O  -0.071468379117422   0.657121920664568  -0.083209484585671 1
force O  -0.416874226847009   1.046125595570139  -0.444672672562851 1
force O   0.648452653909431  -0.077799121796518  -0.194391548838552 1
force O   0.281660921827064   0.424152797896589  -1.022869114796965 1
force O   0.448964134262475  -0.953762516414262   0.084201590567435 1
force O   0.309197012597614  -0.294099135255874  -0.616259497864470 1
force O  -0.309852063090876   0.060892289788885  -0.445750205850169 1
force O  -0.652327562310386   0.777628906646854   0.152989290272331 1
force O  -0.555747066994741  -0.793201655759205   0.864615271646510 1
force O  -0.315698237267604   0.177543543912360   0.600898717034951 1
force O  -0.201127453534591   0.457628155468224  -0.507624910432690 1
force O   0.541996046119492  -0.564203786193766  -0.090293084173472 1
force O   0.134982472006138   0.305440679570328   0.132251871160721 1
force O  -0.119094620433318  -0.344323063547039  -0.078542500827067 1
force Y  -0.475645551154921   1.233135582939322   0.451421607966331 1
force Y  -0.620888435219624   0.737618201657177  -1.336801571005899 1
force Y  -0.975419172463385  -1.191856657290816   1.118652396151901 1
force Y   1.111993606722004  -1.719236325271322   1.535470484755292 1
force Y   0.996659800656253   1.363635065902674  -1.486670614985208 1
force Y   1.732229237198618  -1.769560684939088  -1.257081620443920 1
force Y  -1.017043471845642   0.319644020843326   1.513688180312433 1
force Y  -0.975231683820640   0.737803245956218  -0.515092398570747 1
force Y  -0.882720343558729  -0.872968925204574   0.942279749217469 1
force Y   1.033594098908150  -0.813794786915173   0.767703775231516 1
force Y   0.832318339385368   0.174985376607546  -0.108068165392299 1
force Y   1.304298709406961  -0.892048781333274  -1.211065762634075 1
force Y   0.717573099625476   0.147679402746848  -0.564601019450979 1
force Y  -0.475230767905260   0.756724158137211  -0.073341374783770 1
force Y  -0.444342810477404   0.865329348231898  -0.059036394720635 1
force Y   0.079383470619588  -0.512927106203813   0.386675911951020 1

# Energy components:
   Eewald =     -794.7911851211696330
       EH =      205.4798351800002365
     Eloc =     -733.8816333795415403
      Enl =      149.5658333242726314
      Exc =     -305.3473621929363730
 Exc_core =      126.2996020599451157
       KE =      348.8136502975493158
-------------------------------------
     Etot =    -1003.8612598318801474
       TS =        0.0898121659128487
-------------------------------------
        F =    -1003.9510719977929512

IonicMinimize: Iter:   0  F: -1003.951071997792951  |grad|_K:  3.992e-02  t[s]:   1903.38

#--- Lowdin population analysis ---
# oxidation-state O -0.353 -0.351 -0.339 -0.355 -0.347 -0.381 -0.370 -0.350 -0.336 -0.360 -0.328 -0.336 -0.365 -0.379 -0.350 -0.364 -0.390 -0.398 -0.377 -0.365 -0.377 -0.366 -0.377 -0.368
# oxidation-state Y +0.516 +0.598 +0.551 +0.536 +0.606 +0.549 +0.588 +0.566 +0.596 +0.590 +0.615 +0.673 +0.573 +0.538 +0.574 +0.568


-------- Electronic minimization -----------
Will mix electronic density at each iteration.
	FillingsUpdate:  mu: +0.355344731  nElectrons: 320.000000
	FillingsUpdate:  mu: +0.362315297  nElectrons: 320.000000
SCF: Cycle:  0   F: -1003.024503478468432   dF: +7.562e-02   |Residual|: 7.796e-01   |deigs|: 3.213e-03  t[s]:   2070.30
	FillingsUpdate:  mu: +0.365149680  nElectrons: 320.000000
SCF: Cycle:  1   F: -1003.905586224486569   dF: -8.811e-01   |Residual|: 3.361e-01   |deigs|: 7.482e-03  t[s]:   2191.42
	FillingsUpdate:  mu: +0.354057114  nElectrons: 320.000000
SCF: Cycle:  2   F: -1003.955266234257351   dF: -4.968e-02   |Residual|: 2.090e-01   |deigs|: 5.625e-03  t[s]:   2312.34
	FillingsUpdate:  mu: +0.356464199  nElectrons: 320.000000
SCF: Cycle:  3   F: -1004.069893747415449   dF: -1.146e-01   |Residual|: 5.320e-02   |deigs|: 2.406e-03  t[s]:   2433.75
	FillingsUpdate:  mu: +0.356412406  nElectrons: 320.000000
SCF: Cycle:  4   F: -1004.070758289682999   dF: -8.645e-04   |Residual|: 3.035e-02   |deigs|: 3.027e-04  t[s]:   2542.20
	FillingsUpdate:  mu: +0.356223593  nElectrons: 320.000000
SCF: Cycle:  5   F: -1004.071876851773823   dF: -1.119e-03   |Residual|: 1.746e-02   |deigs|: 3.471e-04  t[s]:   2627.34
	FillingsUpdate:  mu: +0.356205349  nElectrons: 320.000000
SCF: Cycle:  6   F: -1004.072682537323885   dF: -8.057e-04   |Residual|: 5.619e-03   |deigs|: 9.957e-05  t[s]:   2700.85
	FillingsUpdate:  mu: +0.356178738  nElectrons: 320.000000
SCF: Cycle:  7   F: -1004.072743263691336   dF: -6.073e-05   |Residual|: 3.155e-03   |deigs|: 5.547e-05  t[s]:   2773.59
	FillingsUpdate:  mu: +0.356152071  nElectrons: 320.000000
SCF: Cycle:  8   F: -1004.072745686009966   dF: -2.422e-06   |Residual|: 2.105e-03   |deigs|: 3.512e-05  t[s]:   2846.10
	FillingsUpdate:  mu: +0.356151791  nElectrons: 320.000000
SCF: Cycle:  9   F: -1004.072754860404984   dF: -9.174e-06   |Residual|: 9.193e-04   |deigs|: 1.698e-05  t[s]:   2918.76
	FillingsUpdate:  mu: +0.356165553  nElectrons: 320.000000
SCF: Cycle: 10   F: -1004.072756664391818   dF: -1.804e-06   |Residual|: 3.946e-04   |deigs|: 9.425e-06  t[s]:   2991.34
	FillingsUpdate:  mu: +0.356165805  nElectrons: 320.000000
SCF: Cycle: 11   F: -1004.072756868145916   dF: -2.038e-07   |Residual|: 1.879e-04   |deigs|: 2.139e-06  t[s]:   3064.62
	FillingsUpdate:  mu: +0.356163755  nElectrons: 320.000000
SCF: Cycle: 12   F: -1004.072756901114758   dF: -3.297e-08   |Residual|: 1.112e-04   |deigs|: 1.663e-06  t[s]:   3137.35
	FillingsUpdate:  mu: +0.356164147  nElectrons: 320.000000
SCF: Cycle: 13   F: -1004.072756926406896   dF: -2.529e-08   |Residual|: 5.563e-05   |deigs|: 8.180e-07  t[s]:   3210.03
	FillingsUpdate:  mu: +0.356164607  nElectrons: 320.000000
SCF: Cycle: 14   F: -1004.072756931690606   dF: -5.284e-09   |Residual|: 3.252e-05   |deigs|: 5.788e-07  t[s]:   3282.91
	FillingsUpdate:  mu: +0.356164187  nElectrons: 320.000000
SCF: Cycle: 15   F: -1004.072756934214453   dF: -2.524e-09   |Residual|: 1.128e-05   |deigs|: 4.566e-07  t[s]:   3355.52
SCF: Converged (|Delta E|<1.000000e-08 for 2 iters).

Setting wave functions to eigenvectors of Hamiltonian
IonicMinimize: 	Wolfe criterion not satisfied: alpha: 0.650376  (E-E0)/|gdotd0|: -0.636312  gdotd/gdotd0: 0.956141 (taking cubic step)

-------- Electronic minimization -----------
Will mix electronic density at each iteration.
	FillingsUpdate:  mu: +0.356164187  nElectrons: 320.000000
	FillingsUpdate:  mu: +0.366152033  nElectrons: 320.000000
SCF: Cycle:  0   F: -1000.918906055540560   dF: -4.637e-01   |Residual|: 1.515e+00   |deigs|: 1.265e-02  t[s]:   3541.51
	FillingsUpdate:  mu: +0.369114307  nElectrons: 320.000000
SCF: Cycle:  1   F: -1003.751764256450997   dF: -2.833e+00   |Residual|: 5.549e-01   |deigs|: 1.480e-02  t[s]:   3662.27
	FillingsUpdate:  mu: +0.358714479  nElectrons: 320.000000
SCF: Cycle:  2   F: -1004.156630184831101   dF: -4.049e-01   |Residual|: 2.283e-01   |deigs|: 5.594e-03  t[s]:   3783.10
	FillingsUpdate:  mu: +0.360157308  nElectrons: 320.000000
SCF: Cycle:  3   F: -1004.290503900174713   dF: -1.339e-01   |Residual|: 9.172e-02   |deigs|: 2.681e-03  t[s]:   3905.00
	FillingsUpdate:  mu: +0.358659928  nElectrons: 320.000000
SCF: Cycle:  4   F: -1004.294654829922479   dF: -4.151e-03   |Residual|: 3.672e-02   |deigs|: 6.774e-04  t[s]:   4027.69
	FillingsUpdate:  mu: +0.358442031  nElectrons: 320.000000
SCF: Cycle:  5   F: -1004.298254742366339   dF: -3.600e-03   |Residual|: 1.616e-02   |deigs|: 3.618e-04  t[s]:   4135.79
	FillingsUpdate:  mu: +0.358376101  nElectrons: 320.000000
SCF: Cycle:  6   F: -1004.298812848925650   dF: -5.581e-04   |Residual|: 7.636e-03   |deigs|: 1.398e-04  t[s]:   4208.67
	FillingsUpdate:  mu: +0.358391206  nElectrons: 320.000000
SCF: Cycle:  7   F: -1004.298846621070993   dF: -3.377e-05   |Residual|: 3.854e-03   |deigs|: 6.823e-05  t[s]:   4281.90
	FillingsUpdate:  mu: +0.358392846  nElectrons: 320.000000
SCF: Cycle:  8   F: -1004.298867994620878   dF: -2.137e-05   |Residual|: 1.573e-03   |deigs|: 4.172e-05  t[s]:   4354.65
	FillingsUpdate:  mu: +0.358392125  nElectrons: 320.000000
SCF: Cycle:  9   F: -1004.298871329737381   dF: -3.335e-06   |Residual|: 9.093e-04   |deigs|: 1.337e-05  t[s]:   4427.22
	FillingsUpdate:  mu: +0.358395134  nElectrons: 320.000000
SCF: Cycle: 10   F: -1004.298872930378025   dF: -1.601e-06   |Residual|: 4.230e-04   |deigs|: 8.965e-06  t[s]:   4499.69
	FillingsUpdate:  mu: +0.358391195  nElectrons: 320.000000
SCF: Cycle: 11   F: -1004.298873137661531   dF: -2.073e-07   |Residual|: 1.550e-04   |deigs|: 3.419e-06  t[s]:   4572.55
	FillingsUpdate:  mu: +0.358391020  nElectrons: 320.000000
SCF: Cycle: 12   F: -1004.298873172791900   dF: -3.513e-08   |Residual|: 9.634e-05   |deigs|: 1.779e-06  t[s]:   4645.58
	FillingsUpdate:  mu: +0.358391602  nElectrons: 320.000000
SCF: Cycle: 13   F: -1004.298873190381983   dF: -1.759e-08   |Residual|: 5.011e-05   |deigs|: 1.020e-06  t[s]:   4718.36
	FillingsUpdate:  mu: +0.358391554  nElectrons: 320.000000
SCF: Cycle: 14   F: -1004.298873196678073   dF: -6.296e-09   |Residual|: 2.087e-05   |deigs|: 8.597e-07  t[s]:   4790.87
	FillingsUpdate:  mu: +0.358391561  nElectrons: 320.000000
SCF: Cycle: 15   F: -1004.298873199407581   dF: -2.730e-09   |Residual|: 1.036e-05   |deigs|: 7.047e-07  t[s]:   4864.13
SCF: Converged (|Delta E|<1.000000e-08 for 2 iters).

Setting wave functions to eigenvectors of Hamiltonian

# Ionic positions in lattice coordinates:
ion O   0.765052087820231   0.252467136211450   0.763198610229269 1
ion O  -0.001679731761610  -0.014045425390899   0.743622992672081 1
ion O   0.495875542301484   0.245022364001474   0.005180434543602 1
ion O   0.514156858309310   0.492580591472818   0.738488273346785 1
ion O   0.492240029821886   0.750676345429951   0.510921704144261 1
ion O   0.760066306631921   0.749659491322124   0.236399045644715 1
ion O  -0.013363770751536   0.753701022178452  -0.010175162058988 1
ion O   0.003752089146749   0.495914309863495   0.255671691339069 1
ion O   0.243761197362097   0.747871247197486   0.750916552573820 1
ion O   0.751476244007971  -0.008789112385303   0.006397738234237 1
ion O   0.262637548727045   0.004917174246595   0.514629617643882 1
ion O   0.760728656180216   0.490716709291066   0.504231811046119 1
ion O   0.002004788733482   0.246176215701795   0.022103334400394 1
ion O   0.735536080976715  -0.006024037508084   0.511116151550722 1
ion O   0.755869348379613   0.269066963367878   0.253296885979062 1
ion O   0.496265445204916   0.254990969804104   0.483768056156001 1
ion O   0.489524201163642   0.511685553668463   0.250846209982266 1
ion O   0.247612229988287   0.241347924640875   0.750328813175210 1
ion O   0.498389683189692   0.746972713555570  -0.013531770466364 1
ion O   0.265702493928364   0.004385752481382   0.002025857344887 1
ion O   0.260897915219558   0.746964393985820   0.240521710196992 1
ion O   0.001330245123204   0.495254823030201   0.756483323072909 1
ion O   0.029216983387195   0.012474292501047   0.258023333562151 1
ion O   0.247111974647129   0.484035086061064   0.505910965258181 1
ion Y   0.735992834677420   0.712478531677458   0.980737646631297 1
ion Y   0.526934671283376   0.257309269230999   0.792446809946849 1
ion Y   0.789215107121822   0.531181378996861   0.261823838346868 1
ion Y   0.966124333434198   0.741493197073591   0.724084857981719 1
ion Y   0.720689401233511   0.960702304295300   0.756927587674538 1
ion Y   0.244131083843198   0.789465182997928   0.545653179923414 1
ion Y   0.755793637202743   0.241731068782258   0.476117882187302 1
ion Y   0.016560914041983   0.245157452061416   0.260441471918142 1
ion Y   0.269956269069265   0.010723904172039   0.243332948949980 1
ion Y   0.488110380498225   0.746063242770388   0.234533759873428 1
ion Y   0.229757758906610   0.492857828290509   0.734527053715285 1
ion Y   0.238293577229365   0.261631831565326   0.011664356004587 1
ion Y  -0.010317098967261   0.494832576754295   0.009412840798724 1
ion Y   0.507997751469476  -0.010509410963492   0.004182136462935 1
ion Y   0.007685185384275  -0.010610117162831   0.494748094753999 1
ion Y   0.491119745834235   0.502689254729135   0.488679355259670 1

# Forces in Lattice coordinates:
force O  -0.868183087177546  -0.101327618717420   0.721216789151875 1
force O  -0.350684296375681  -0.113676711166065  -0.003514356573422 1
force O   0.623872583419162   0.163404417960183  -0.420163873561839 1
force O   0.283048881449551  -0.190157508826158   0.300466794118342 1
force O  -0.315145469729146   0.021177984491612   0.645029738726678 1
force O   0.348771197695905  -0.496781177032566   0.186142766679962 1
force O  -0.216027902190507  -0.169076844184135  -0.179076880357037 1
force O  -0.397306651840211   0.884682572316315  -0.016168629161728 1
force O  -0.272739211218094   0.476044965483412  -0.130924375545370 1
force O   0.022180308268804  -0.225016235334311  -0.257410945631309 1
force O   0.043855599398416  -0.178296679791543   0.397062886669223 1
force O  -0.321929735570569   1.044851696371228  -0.466760214336033 1
force O   0.612339091470864   0.008901887861235  -0.231658851304525 1
force O   0.279518805343529   0.432384920936047  -1.011664947427500 1
force O   0.391107246088691  -1.012151260644727   0.322540591320666 1
force O   0.337102179286109  -0.281926670967381  -0.563372766002936 1
force O  -0.301772378120282  -0.018287426558000  -0.236364842559885 1
force O  -0.640237484621196   0.729264743499953   0.147496219247176 1
force O  -0.613250554717031  -0.419133062467248   0.742238572880365 1
force O  -0.302808748574948   0.176944332453283   0.570749564477210 1
force O   0.032521662566048   0.340282697494498  -0.504616023025121 1
force O   0.481324458354423  -0.544186413670079  -0.108443493755628 1
force O  -0.000162601968879   0.357562155974418   0.129104838629980 1
force O  -0.088057731722064  -0.277544837916624  -0.101177487059981 1
force Y  -0.525723638744233   1.152550457266676   0.345766193086088 1
force Y  -0.656780779620819   0.762492598690820  -1.224401510326445 1
force Y  -1.023010015781165  -1.047693045906068   1.014640194040569 1
force Y   0.986157520975193  -1.102920979782608   1.243312602258361 1
force Y   0.959298215261494   1.239492254995036  -1.210921654436612 1
force Y   1.439381520636379  -1.228544213262805  -1.277048773247028 1
force Y  -0.937011280583423   0.381841536978044   1.258532420149396 1
force Y  -0.870176198064473   0.620525544315808  -0.428306306895262 1
force Y  -0.745026534287506  -0.756214497555549   0.803653053408253 1
force Y   0.700493086178822  -0.578449790167086   0.705839999354025 1
force Y   0.760090498034801   0.096581788824528  -0.045957198505694 1
force Y   1.117138485592294  -0.846014824421772  -0.991524786674818 1
force Y   0.564464611416245   0.106661936059396  -0.458769637051510 1
force Y  -0.317795849825421   0.429004061969809   0.042182546378979 1
force Y  -0.291982909732898   0.582746945745324   0.031262589970054 1
force Y   0.074249139313070  -0.420592723250055   0.260412033467065 1

# Energy components:
   Eewald =     -794.8254710361726438
       EH =      205.9298150039668656
     Eloc =     -734.2081043858119074
      Enl =      149.3564734341283895
      Exc =     -305.3888388212856171
 Exc_core =      126.2995950701733250
       KE =      348.5953691108848034
-------------------------------------
     Etot =    -1004.2411616241167849
       TS =        0.0577115752908385
-------------------------------------
        F =    -1004.2988731994075806

IonicMinimize: Iter:   1  F: -1004.298873199407581  |grad|_K:  3.531e-02  alpha:  1.951e+00  linmin: -9.723e-01  t[s]:   4881.65

#--- Lowdin population analysis ---
# oxidation-state O -0.378 -0.379 -0.363 -0.375 -0.368 -0.389 -0.385 -0.366 -0.356 -0.379 -0.357 -0.360 -0.381 -0.405 -0.378 -0.387 -0.404 -0.408 -0.397 -0.387 -0.402 -0.392 -0.393 -0.385
# oxidation-state Y +0.543 +0.614 +0.589 +0.570 +0.629 +0.607 +0.622 +0.578 +0.600 +0.601 +0.618 +0.672 +0.626 +0.597 +0.618 +0.623


-------- Electronic minimization -----------
Will mix electronic density at each iteration.
	FillingsUpdate:  mu: +0.358391561  nElectrons: 320.000000
	FillingsUpdate:  mu: +0.365586198  nElectrons: 320.000000
SCF: Cycle:  0   F: -1003.543236438132908   dF: -2.395e-01   |Residual|: 8.054e-01   |deigs|: 3.448e-03  t[s]:   5050.11
	FillingsUpdate:  mu: +0.366741211  nElectrons: 320.000000
SCF: Cycle:  1   F: -1004.292123766503778   dF: -7.489e-01   |Residual|: 3.019e-01   |deigs|: 6.249e-03  t[s]:   5171.09
	FillingsUpdate:  mu: +0.358556325  nElectrons: 320.000000
SCF: Cycle:  2   F: -1004.372921231823739   dF: -8.080e-02   |Residual|: 1.363e-01   |deigs|: 4.139e-03  t[s]:   5292.42
	FillingsUpdate:  mu: +0.360598119  nElectrons: 320.000000
SCF: Cycle:  3   F: -1004.415864266107747   dF: -4.294e-02   |Residual|: 4.364e-02   |deigs|: 2.041e-03  t[s]:   5412.17
	FillingsUpdate:  mu: +0.360140973  nElectrons: 320.000000
SCF: Cycle:  4   F: -1004.416375756657203   dF: -5.115e-04   |Residual|: 1.975e-02   |deigs|: 3.069e-04  t[s]:   5520.30
	FillingsUpdate:  mu: +0.359992676  nElectrons: 320.000000
SCF: Cycle:  5   F: -1004.417376997710107   dF: -1.001e-03   |Residual|: 6.571e-03   |deigs|: 2.181e-04  t[s]:   5592.37
	FillingsUpdate:  mu: +0.359991677  nElectrons: 320.000000
SCF: Cycle:  6   F: -1004.417487915846436   dF: -1.109e-04   |Residual|: 3.564e-03   |deigs|: 8.057e-05  t[s]:   5665.12
	FillingsUpdate:  mu: +0.359973190  nElectrons: 320.000000
SCF: Cycle:  7   F: -1004.417500237993409   dF: -1.232e-05   |Residual|: 1.840e-03   |deigs|: 3.408e-05  t[s]:   5737.63
	FillingsUpdate:  mu: +0.359968476  nElectrons: 320.000000
SCF: Cycle:  8   F: -1004.417504755564323   dF: -4.518e-06   |Residual|: 6.494e-04   |deigs|: 2.476e-05  t[s]:   5810.62
	FillingsUpdate:  mu: +0.359973188  nElectrons: 320.000000
SCF: Cycle:  9   F: -1004.417505469016078   dF: -7.135e-07   |Residual|: 3.957e-04   |deigs|: 6.641e-06  t[s]:   5883.54
	FillingsUpdate:  mu: +0.359977061  nElectrons: 320.000000
SCF: Cycle: 10   F: -1004.417505739105763   dF: -2.701e-07   |Residual|: 1.580e-04   |deigs|: 4.335e-06  t[s]:   5955.91
	FillingsUpdate:  mu: +0.359974490  nElectrons: 320.000000
SCF: Cycle: 11   F: -1004.417505771733772   dF: -3.263e-08   |Residual|: 6.311e-05   |deigs|: 1.470e-06  t[s]:   6028.61
	FillingsUpdate:  mu: +0.359974765  nElectrons: 320.000000
SCF: Cycle: 12   F: -1004.417505782635772   dF: -1.090e-08   |Residual|: 3.358e-05   |deigs|: 7.848e-07  t[s]:   6101.79
	FillingsUpdate:  mu: +0.359974833  nElectrons: 320.000000
SCF: Cycle: 13   F: -1004.417505786914830   dF: -4.279e-09   |Residual|: 1.781e-05   |deigs|: 6.446e-07  t[s]:   6175.14
	FillingsUpdate:  mu: +0.359974701  nElectrons: 320.000000
SCF: Cycle: 14   F: -1004.417505789119673   dF: -2.205e-09   |Residual|: 7.388e-06   |deigs|: 6.344e-07  t[s]:   6247.52
SCF: Converged (|Delta E|<1.000000e-08 for 2 iters).

Setting wave functions to eigenvectors of Hamiltonian
IonicMinimize: 	Wolfe criterion not satisfied: alpha: 0.0318731  (E-E0)/|gdotd0|: -0.0312601  gdotd/gdotd0: 0.95977 (taking cubic step)

-------- Electronic minimization -----------
Will mix electronic density at each iteration.
	FillingsUpdate:  mu: +0.359974701  nElectrons: 320.000000
	FillingsUpdate:  mu: +0.370264925  nElectrons: 320.000000
SCF: Cycle:  0   F: -1001.624577638249320   dF: -1.378e+00   |Residual|: 1.580e+00   |deigs|: 1.360e-02  t[s]:   6432.33
	FillingsUpdate:  mu: +0.371353946  nElectrons: 320.000000
SCF: Cycle:  1   F: -1004.178176434086822   dF: -2.554e+00   |Residual|: 5.583e-01   |deigs|: 1.415e-02  t[s]:   6554.60
	FillingsUpdate:  mu: +0.363658243  nElectrons: 320.000000
SCF: Cycle:  2   F: -1004.561869578180563   dF: -3.837e-01   |Residual|: 1.783e-01   |deigs|: 5.124e-03  t[s]:   6676.08
	FillingsUpdate:  mu: +0.365258025  nElectrons: 320.000000
SCF: Cycle:  3   F: -1004.628173728337060   dF: -6.630e-02   |Residual|: 8.212e-02   |deigs|: 2.571e-03  t[s]:   6795.79
	FillingsUpdate:  mu: +0.364056446  nElectrons: 320.000000
SCF: Cycle:  4   F: -1004.634758314490568   dF: -6.585e-03   |Residual|: 2.371e-02   |deigs|: 7.758e-04  t[s]:   6917.30
	FillingsUpdate:  mu: +0.363839599  nElectrons: 320.000000
SCF: Cycle:  5   F: -1004.636559548543801   dF: -1.801e-03   |Residual|: 1.117e-02   |deigs|: 2.790e-04  t[s]:   7002.94
	FillingsUpdate:  mu: +0.363772827  nElectrons: 320.000000
SCF: Cycle:  6   F: -1004.636804755114781   dF: -2.452e-04   |Residual|: 6.768e-03   |deigs|: 1.449e-04  t[s]:   7075.45
	FillingsUpdate:  mu: +0.363733756  nElectrons: 320.000000
SCF: Cycle:  7   F: -1004.636858483971537   dF: -5.373e-05   |Residual|: 1.791e-03   |deigs|: 8.712e-05  t[s]:   7148.66
	FillingsUpdate:  mu: +0.363731657  nElectrons: 320.000000
SCF: Cycle:  8   F: -1004.636863925055764   dF: -5.441e-06   |Residual|: 1.170e-03   |deigs|: 2.705e-05  t[s]:   7221.94
	FillingsUpdate:  mu: +0.363740119  nElectrons: 320.000000
SCF: Cycle:  9   F: -1004.636866015519331   dF: -2.090e-06   |Residual|: 4.055e-04   |deigs|: 1.523e-05  t[s]:   7294.90
	FillingsUpdate:  mu: +0.363736482  nElectrons: 320.000000
SCF: Cycle: 10   F: -1004.636866243258055   dF: -2.277e-07   |Residual|: 1.662e-04   |deigs|: 3.966e-06  t[s]:   7367.34
	FillingsUpdate:  mu: +0.363734657  nElectrons: 320.000000
SCF: Cycle: 11   F: -1004.636866311308154   dF: -6.805e-08   |Residual|: 8.399e-05   |deigs|: 3.428e-06  t[s]:   7439.85
	FillingsUpdate:  mu: +0.363736174  nElectrons: 320.000000
SCF: Cycle: 12   F: -1004.636866341694144   dF: -3.039e-08   |Residual|: 2.860e-05   |deigs|: 1.986e-06  t[s]:   7512.15
	FillingsUpdate:  mu: +0.363736003  nElectrons: 320.000000
SCF: Cycle: 13   F: -1004.636866353709365   dF: -1.202e-08   |Residual|: 1.788e-05   |deigs|: 1.374e-06  t[s]:   7585.48
	FillingsUpdate:  mu: +0.363735988  nElectrons: 320.000000
SCF: Cycle: 14   F: -1004.636866359928604   dF: -6.219e-09   |Residual|: 1.088e-05   |deigs|: 1.279e-06  t[s]:   7658.33
	FillingsUpdate:  mu: +0.363736065  nElectrons: 320.000000
SCF: Cycle: 15   F: -1004.636866363264289   dF: -3.336e-09   |Residual|: 7.196e-06   |deigs|: 1.256e-06  t[s]:   7731.09
SCF: Converged (|Delta E|<1.000000e-08 for 2 iters).

Setting wave functions to eigenvectors of Hamiltonian

# Ionic positions in lattice coordinates:
ion O   0.758166765108710   0.250276870117472   0.766179615886672 1
ion O  -0.007022878246377  -0.018828795166208   0.740531567449063 1
ion O   0.502196346917354   0.248391577784837   0.004650628631304 1
ion O   0.518688131127500   0.494115361219238   0.743079330115867 1
ion O   0.492439139840818   0.752983541543442   0.517152615641169 1
ion O   0.762584373295979   0.746710076685083   0.237936838342414 1
ion O  -0.018255110050215   0.749070008139421  -0.014829604715064 1
ion O   0.004192040841736   0.504348861702166   0.258501132125223 1
ion O   0.242477799808965   0.751500305532331   0.749591462767803 1
ion O   0.748497154556835  -0.013280710920519   0.001268035251716 1
ion O   0.264387301202713   0.004044013230839   0.519058264070350 1
ion O   0.760534927816784   0.498924919234104   0.502982600746091 1
ion O   0.008225473155808   0.248792560067707   0.023057569211114 1
ion O   0.735429324687853  -0.005163241569689   0.502971973459200 1
ion O   0.756530452060433   0.260973409840799   0.253916127734927 1
ion O   0.495355162437400   0.250198723252494   0.477272972777222 1
ion O   0.484360590137310   0.508177277127477   0.246353011678906 1
ion O   0.245054848893974   0.247255991042311   0.752663265671923 1
ion O   0.492931506296002   0.743287600254093  -0.010617667455029 1
ion O   0.266582204505982   0.008241275419553   0.008299717411335 1
ion O   0.260737677109359   0.748267713122616   0.236710691367167 1
ion O   0.003108611842400   0.490740858149325   0.754638106895799 1
ion O   0.031962838690042   0.017695967243499   0.261747825314469 1
ion O   0.243788629585815   0.479576492178149   0.502436290901592 1
ion Y   0.738407763736979   0.725324209083251   0.988517498513779 1
ion Y   0.515943346879781   0.255251621093613   0.778107659934047 1
ion Y   0.776172870045041   0.518235040300472   0.261420580906043 1
ion Y   0.979398713833657   0.742701034153821   0.738747512939831 1
ion Y   0.732936803036858   0.974585218042715   0.756043807373729 1
ion Y   0.246374744631379   0.776150421073636   0.531305693202284 1
ion Y   0.754293040673273   0.248435413400355   0.487878521826257 1
ion Y   0.007136393337394   0.244743773910342   0.253750157769148 1
ion Y   0.261286187294704   0.001957112228816   0.243965175548084 1
ion Y   0.497003778625808   0.747718100688853   0.243813961133501 1
ion Y   0.239347918830102   0.498301023016665   0.739263878130569 1
ion Y   0.240626883485767   0.252021729923607   0.001372291789728 1
ion Y  -0.005785231178013   0.496654693195542   0.007898579192625 1
ion Y   0.507105553264609  -0.007373682570145   0.005481528361722 1
ion Y   0.008018777809850  -0.005385138351207   0.497017894346525 1
ion Y   0.490989144069632   0.499598775579125   0.489552887750896 1

# Forces in Lattice coordinates:
force O  -0.738097268186591  -0.114196716470669   0.636034518513251 1
force O  -0.290892785998901  -0.193611032308584   0.005195735948627 1
force O   0.639576798550975   0.168615083022507  -0.479471656075577 1
force O   0.271843597722495  -0.127909394229257   0.267682321610978 1
force O  -0.237244982676003   0.046823842202905   0.582722794055666 1
force O   0.354965254082204  -0.506303585174932   0.241517935726170 1
force O  -0.226230146984208  -0.207460004985222  -0.052406727460868 1
force O  -0.411313422503430   0.799248454461893  -0.007839973590366 1
force O  -0.143756188818332   0.504363220055558  -0.341816777956475 1
force O   0.016624107033854  -0.129361829489522  -0.385744897545355 1
force O  -0.005768260291500  -0.267828259168415   0.428419779071804 1
force O  -0.208882226714188   0.934212235534820  -0.378101252410115 1
force O   0.554246935848172   0.074320827743456  -0.282551564822564 1
force O   0.276287693768307   0.416250275469400  -0.870838560320171 1
force O   0.294212145313157  -0.926551603555167   0.429324803432999 1
force O   0.286632184991730  -0.267167992400362  -0.446649229090537 1
force O  -0.266866077468656  -0.105985360326526  -0.093788528969084 1
force O  -0.569403818317406   0.625886138992746   0.065073264536030 1
force O  -0.560054190767628  -0.239879736658324   0.663253316882645 1
force O  -0.253934685378905   0.124862110793249   0.517736107647275 1
force O   0.115275779440499   0.229706794478351  -0.421667644968423 1
force O   0.426391224660078  -0.496782920929292  -0.086159401970039 1
force O  -0.124578173926346   0.348052498967931   0.167485222485391 1
force O  -0.046598901396155  -0.270813227977677  -0.089551557932872 1
force Y  -0.449719576769497   0.958075121492917   0.278905136019264 1
force Y  -0.568937846634533   0.692346385561464  -1.016058579443435 1
force Y  -0.948881668472242  -0.864784786204116   0.799546525661246 1
force Y   0.867936539595144  -0.858804599195333   0.909837640035439 1
force Y   0.831873488604225   1.058450344452158  -1.017191610748836 1
force Y   1.240714836391649  -1.149524859978958  -1.059666319229796 1
force Y  -0.803568536993985   0.367340345719256   1.007770146564996 1
force Y  -0.699060086166931   0.513854128562905  -0.325095904703502 1
force Y  -0.575352936205431  -0.563215066158777   0.604230193038749 1
force Y   0.491380798543033  -0.412515031790840   0.561042579916368 1
force Y   0.613848516921972   0.118775792640455  -0.080709363269102 1
force Y   0.884812472705808  -0.733202611755973  -0.679994640610348 1
force Y   0.383826555854573   0.062779656089125  -0.324008389847527 1
force Y  -0.260540212330796   0.318392069600923   0.038221970581969 1
force Y  -0.219984010152251   0.392217472269882   0.045538218827694 1
force Y   0.061196631282222  -0.318095407730429   0.187316877669740 1

# Energy components:
   Eewald =     -793.3224672296030349
       EH =      207.7203848890340794
     Eloc =     -737.6893849634865319
      Enl =      149.2490132763026054
      Exc =     -305.5351193907563356
 Exc_core =      126.2995982833309085
       KE =      348.6665102446495439
-------------------------------------
     Etot =    -1004.6114648905288504
       TS =        0.0254014727354601
-------------------------------------
        F =    -1004.6368663632642892

IonicMinimize: Iter:   2  F: -1004.636866363264289  |grad|_K:  2.997e-02  alpha:  9.562e-02  linmin: -9.953e-01  t[s]:   7748.93

#--- Lowdin population analysis ---
# oxidation-state O -0.404 -0.401 -0.390 -0.395 -0.391 -0.402 -0.400 -0.388 -0.380 -0.396 -0.378 -0.385 -0.399 -0.425 -0.399 -0.410 -0.415 -0.419 -0.409 -0.408 -0.419 -0.411 -0.408 -0.400
# oxidation-state Y +0.572 +0.632 +0.622 +0.594 +0.654 +0.635 +0.644 +0.592 +0.609 +0.610 +0.628 +0.671 +0.679 +0.658 +0.677 +0.672


-------- Electronic minimization -----------
Will mix electronic density at each iteration.
	FillingsUpdate:  mu: +0.363736065  nElectrons: 320.000000
	FillingsUpdate:  mu: +0.368015754  nElectrons: 320.000000
SCF: Cycle:  0   F: -1004.288048785949968   dF: -3.251e-01   |Residual|: 6.355e-01   |deigs|: 2.208e-03  t[s]:   7916.73
	FillingsUpdate:  mu: +0.368774443  nElectrons: 320.000000
SCF: Cycle:  1   F: -1004.659441379748728   dF: -3.714e-01   |Residual|: 2.295e-01   |deigs|: 3.668e-03  t[s]:   8038.44
	FillingsUpdate:  mu: +0.364757438  nElectrons: 320.000000
SCF: Cycle:  2   F: -1004.707006115654849   dF: -4.756e-02   |Residual|: 8.174e-02   |deigs|: 2.231e-03  t[s]:   8159.14
	FillingsUpdate:  mu: +0.365945755  nElectrons: 320.000000
SCF: Cycle:  3   F: -1004.719111785000337   dF: -1.211e-02   |Residual|: 3.174e-02   |deigs|: 1.160e-03  t[s]:   8278.59
	FillingsUpdate:  mu: +0.365740336  nElectrons: 320.000000
SCF: Cycle:  4   F: -1004.719766996215981   dF: -6.552e-04   |Residual|: 9.201e-03   |deigs|: 2.565e-04  t[s]:   8351.34
	FillingsUpdate:  mu: +0.365625886  nElectrons: 320.000000
SCF: Cycle:  5   F: -1004.719979558127761   dF: -2.126e-04   |Residual|: 4.024e-03   |deigs|: 1.118e-04  t[s]:   8424.04
	FillingsUpdate:  mu: +0.365573366  nElectrons: 320.000000
SCF: Cycle:  6   F: -1004.720022981494481   dF: -4.342e-05   |Residual|: 2.456e-03   |deigs|: 6.560e-05  t[s]:   8496.86
	FillingsUpdate:  mu: +0.365566869  nElectrons: 320.000000
SCF: Cycle:  7   F: -1004.720029679048366   dF: -6.698e-06   |Residual|: 6.846e-04   |deigs|: 2.062e-05  t[s]:   8569.30
	FillingsUpdate:  mu: +0.365567152  nElectrons: 320.000000
SCF: Cycle:  8   F: -1004.720030639567653   dF: -9.605e-07   |Residual|: 5.086e-04   |deigs|: 9.325e-06  t[s]:   8641.81
	FillingsUpdate:  mu: +0.365566694  nElectrons: 320.000000
SCF: Cycle:  9   F: -1004.720031007524653   dF: -3.680e-07   |Residual|: 1.172e-04   |deigs|: 4.240e-06  t[s]:   8714.60
	FillingsUpdate:  mu: +0.365566236  nElectrons: 320.000000
SCF: Cycle: 10   F: -1004.720031061320128   dF: -5.380e-08   |Residual|: 6.418e-05   |deigs|: 1.199e-06  t[s]:   8787.14
	FillingsUpdate:  mu: +0.365565831  nElectrons: 320.000000
SCF: Cycle: 11   F: -1004.720031085518485   dF: -2.420e-08   |Residual|: 2.618e-05   |deigs|: 1.093e-06  t[s]:   8859.63
	FillingsUpdate:  mu: +0.365565932  nElectrons: 320.000000
SCF: Cycle: 12   F: -1004.720031097515289   dF: -1.200e-08   |Residual|: 1.741e-05   |deigs|: 7.779e-07  t[s]:   8932.30
	FillingsUpdate:  mu: +0.365566012  nElectrons: 320.000000
SCF: Cycle: 13   F: -1004.720031104080817   dF: -6.566e-09   |Residual|: 1.186e-05   |deigs|: 7.424e-07  t[s]:   9005.03
	FillingsUpdate:  mu: +0.365565919  nElectrons: 320.000000
SCF: Cycle: 14   F: -1004.720031107850787   dF: -3.770e-09   |Residual|: 8.789e-06   |deigs|: 7.919e-07  t[s]:   9078.04
SCF: Converged (|Delta E|<1.000000e-08 for 2 iters).

Setting wave functions to eigenvectors of Hamiltonian
IonicMinimize: 	Wolfe criterion not satisfied: alpha: 0.0385037  (E-E0)/|gdotd0|: -0.0373751  gdotd/gdotd0: 0.939839 (taking cubic step)

-------- Electronic minimization -----------
Will mix electronic density at each iteration.
	FillingsUpdate:  mu: +0.365565919  nElectrons: 320.000000
	FillingsUpdate:  mu: +0.371580676  nElectrons: 320.000000
SCF: Cycle:  0   F: -1003.256859906037334   dF: -1.380e+00   |Residual|: 1.258e+00   |deigs|: 8.847e-03  t[s]:   9262.90
	FillingsUpdate:  mu: +0.372411766  nElectrons: 320.000000
SCF: Cycle:  1   F: -1004.634980434794784   dF: -1.378e+00   |Residual|: 4.480e-01   |deigs|: 9.417e-03  t[s]:   9384.44
	FillingsUpdate:  mu: +0.368051091  nElectrons: 320.000000
SCF: Cycle:  2   F: -1004.834304438789218   dF: -1.993e-01   |Residual|: 1.380e-01   |deigs|: 3.719e-03  t[s]:   9505.57
	FillingsUpdate:  mu: +0.369495251  nElectrons: 320.000000
SCF: Cycle:  3   F: -1004.864894898193029   dF: -3.059e-02   |Residual|: 6.207e-02   |deigs|: 1.885e-03  t[s]:   9625.62
	FillingsUpdate:  mu: +0.369416875  nElectrons: 320.000000
SCF: Cycle:  4   F: -1004.868091975527932   dF: -3.197e-03   |Residual|: 1.673e-02   |deigs|: 5.481e-04  t[s]:   9746.55
	FillingsUpdate:  mu: +0.369210944  nElectrons: 320.000000
SCF: Cycle:  5   F: -1004.868848156111540   dF: -7.562e-04   |Residual|: 8.306e-03   |deigs|: 2.016e-04  t[s]:   9819.52
	FillingsUpdate:  mu: +0.369194217  nElectrons: 320.000000
SCF: Cycle:  6   F: -1004.869056516413480   dF: -2.084e-04   |Residual|: 5.180e-03   |deigs|: 1.571e-04  t[s]:   9892.04
	FillingsUpdate:  mu: +0.369171481  nElectrons: 320.000000
SCF: Cycle:  7   F: -1004.869086464092220   dF: -2.995e-05   |Residual|: 1.463e-03   |deigs|: 5.973e-05  t[s]:   9964.61
	FillingsUpdate:  mu: +0.369175557  nElectrons: 320.000000
SCF: Cycle:  8   F: -1004.869090222495515   dF: -3.758e-06   |Residual|: 7.518e-04   |deigs|: 1.653e-05  t[s]:  10037.34
	FillingsUpdate:  mu: +0.369177228  nElectrons: 320.000000
SCF: Cycle:  9   F: -1004.869090925381670   dF: -7.029e-07   |Residual|: 2.742e-04   |deigs|: 6.747e-06  t[s]:  10110.42
	FillingsUpdate:  mu: +0.369173548  nElectrons: 320.000000
SCF: Cycle: 10   F: -1004.869091056526031   dF: -1.311e-07   |Residual|: 1.693e-04   |deigs|: 3.576e-06  t[s]:  10183.20
	FillingsUpdate:  mu: +0.369173641  nElectrons: 320.000000
SCF: Cycle: 11   F: -1004.869091132645167   dF: -7.612e-08   |Residual|: 3.775e-05   |deigs|: 1.634e-06  t[s]:  10255.81
	FillingsUpdate:  mu: +0.369173807  nElectrons: 320.000000
SCF: Cycle: 12   F: -1004.869091164653128   dF: -3.201e-08   |Residual|: 4.417e-05   |deigs|: 1.408e-06  t[s]:  10328.53
	FillingsUpdate:  mu: +0.369173655  nElectrons: 320.000000
SCF: Cycle: 13   F: -1004.869091183021737   dF: -1.837e-08   |Residual|: 1.636e-05   |deigs|: 1.324e-06  t[s]:  10400.99
	FillingsUpdate:  mu: +0.369173554  nElectrons: 320.000000
SCF: Cycle: 14   F: -1004.869091193198642   dF: -1.018e-08   |Residual|: 2.030e-05   |deigs|: 1.401e-06  t[s]:  10473.71
	FillingsUpdate:  mu: +0.369173527  nElectrons: 320.000000
SCF: Cycle: 15   F: -1004.869091199128889   dF: -5.930e-09   |Residual|: 5.890e-06   |deigs|: 1.465e-06  t[s]:  10547.36
	FillingsUpdate:  mu: +0.369173531  nElectrons: 320.000000
SCF: Cycle: 16   F: -1004.869091202439790   dF: -3.311e-09   |Residual|: 9.879e-06   |deigs|: 1.348e-06  t[s]:  10620.54
SCF: Converged (|Delta E|<1.000000e-08 for 2 iters).

Setting wave functions to eigenvectors of Hamiltonian

# Ionic positions in lattice coordinates:
ion O   0.752494607266716   0.247930123995534   0.768789159836485 1
ion O  -0.012114271626022  -0.023392224075939   0.737020461261986 1
ion O   0.509295217731698   0.251799725561712   0.002617488592907 1
ion O   0.523640846977360   0.496880111234325   0.747820832906700 1
ion O   0.495108924194889   0.757242105555282   0.524514877668028 1
ion O   0.766601044878332   0.744092815865404   0.241598775897305 1
ion O  -0.022991170656001   0.744196889788754  -0.016583605043245 1
ion O   0.002728811293751   0.511524179884595   0.260448008008834 1
ion O   0.242446836872925   0.754974679282292   0.745407220418110 1
ion O   0.744583175447563  -0.017179704405204  -0.006625007008482 1
ion O   0.263933213766352   0.002984999808851   0.522232182034691 1
ion O   0.763709458466138   0.508587177658161   0.504779612671432 1
ion O   0.014113530927281   0.252142224878535   0.022480212738866 1
ion O   0.737572076606865  -0.002098590057078   0.497817202312307 1
ion O   0.757097500368784   0.254149958154832   0.257367157198404 1
ion O   0.494372397108583   0.245685672271623   0.472486169042923 1
ion O   0.479801542728837   0.503596340482710   0.244025022595569 1
ion O   0.241081043573788   0.250694993535153   0.751873337579871 1
ion O   0.489655238979178   0.743146239893741  -0.005751195148530 1
ion O   0.267559547136992   0.011012114013161   0.014198238483740 1
ion O   0.261965806148157   0.748802074435807   0.234202989732312 1
ion O   0.004985273463160   0.486440292388729   0.753333930009245 1
ion O   0.031879626534738   0.022303302624330   0.265623702669363 1
ion O   0.241225076282726   0.474771178520195   0.499291393910906 1
ion Y   0.740329715722281   0.735117813467023   0.994561296886854 1
ion Y   0.508095298581744   0.255281175447081   0.767892266748726 1
ion Y   0.762287560745801   0.505914748761849   0.257906089208957 1
ion Y   0.989372909083334   0.741958903632256   0.746827056247504 1
ion Y   0.743255593000862   0.986216547433513   0.755067230543816 1
ion Y   0.247436530719993   0.760105924031496   0.518747057135448 1
ion Y   0.752560678138632   0.254151198870688   0.496443586454166 1
ion Y   0.001329394281117   0.245582806766391   0.250103111595524 1
ion Y   0.256040927165085  -0.002873250091860   0.244129282027854 1
ion Y   0.502137279177742   0.749083334847534   0.249711280722385 1
ion Y   0.245958480452870   0.503049845321522   0.741489937322061 1
ion Y   0.243158543468486   0.245513339340477  -0.002704641386496 1
ion Y  -0.004547535693911   0.496777774800452   0.006821582718145 1
ion Y   0.505608215082355  -0.005351998209946   0.005682473368881 1
ion Y   0.007389674245700  -0.003462279773214   0.497909001153983 1
ion Y   0.491051381355117   0.497867434059232   0.490135220882464 1

# Forces in Lattice coordinates:
force O  -0.605640021682182  -0.042255981101152   0.492008167796826 1
force O  -0.174260845598972  -0.272498132038552   0.053326880620442 1
force O   0.509260654708776   0.098867791360877  -0.377822172480839 1
force O   0.205191076341868  -0.016746831554851   0.171736523621208 1
force O  -0.088361058763016  -0.040468449404145   0.434834202150111 1
force O   0.276780510173921  -0.447870896442895   0.209817549877076 1
force O  -0.173592211701477  -0.217845412059033   0.006427253002334 1
force O  -0.377841155501971   0.588505282833965  -0.004794360058788 1
force O  -0.067595956260923   0.369774810683917  -0.255125335217150 1
force O  -0.024480115871665  -0.015251689766428  -0.359958936116753 1
force O   0.036922452361418  -0.451077791582281   0.411419049106833 1
force O  -0.214549256464815   0.698843397125584  -0.237358379255799 1
force O   0.460233983572789   0.084689070600088  -0.203911571054723 1
force O   0.223181659897774   0.405882475069404  -0.735308241416201 1
force O   0.185084931069839  -0.764290173223585   0.406559560468299 1
force O   0.198649885105307  -0.162725490265454  -0.360654037651057 1
force O  -0.231744295594237  -0.127806142130859  -0.033674347929742 1
force O  -0.480913690757371   0.554822782138350   0.056451908323624 1
force O  -0.483992976279340  -0.139410953865363   0.573365823029907 1
force O  -0.166537772248147   0.075445722304958   0.413198813552682 1
force O   0.131825702598806   0.148052032530204  -0.349423896456060 1
force O   0.363863859389373  -0.386284701993816  -0.064989005951667 1
force O  -0.141547512527028   0.352620831229481   0.099679175065539 1
force O  -0.000305435321298  -0.197297239229585  -0.139123388751080 1
force Y  -0.361234324488238   0.756312110969884   0.284062750469031 1
force Y  -0.455467226962959   0.511739517250039  -0.842401492196965 1
force Y  -0.738237135593425  -0.621431919557017   0.564004239195671 1
force Y   0.671594237376732  -0.548004430952361   0.673890763189571 1
force Y   0.676790388172023   0.858548917359776  -0.817375735170003 1
force Y   0.918507888288419  -0.637824340315972  -0.999286518916425 1
force Y  -0.622608191185337   0.252106975627208   0.831296148723997 1
force Y  -0.566952445866635   0.410993650243139  -0.335706381788169 1
force Y  -0.560616184721385  -0.501090447105741   0.606519256947960 1
force Y   0.424221553071343  -0.365197979647543   0.466556512829637 1
force Y   0.488773693004897   0.050152615922827   0.000035112700186 1
force Y   0.699444664878936  -0.562395475332813  -0.600821140663414 1
force Y   0.278753268552609   0.047766707940944  -0.236651452540459 1
force Y  -0.147239222393687   0.248673768090202  -0.037398084206316 1
force Y  -0.142214101801388   0.236662594324155   0.059376568403329 1
force Y   0.074870267720985  -0.232028704784662   0.177794646807426 1

# Energy components:
   Eewald =     -791.8896752399447223
       EH =      209.1293852423530097
     Eloc =     -740.7793118933615233
      Enl =      149.2218802200897585
      Exc =     -305.6689162930751422
 Exc_core =      126.2995953031823291
       KE =      348.8279753274877066
-------------------------------------
     Etot =    -1004.8590673332686265
       TS =        0.0100238691711396
-------------------------------------
        F =    -1004.8690912024397903

IonicMinimize: Iter:   3  F: -1004.869091202439790  |grad|_K:  2.410e-02  alpha:  1.155e-01  linmin: -9.633e-01  t[s]:  10638.00

#--- Lowdin population analysis ---
# oxidation-state O -0.418 -0.417 -0.408 -0.409 -0.406 -0.415 -0.413 -0.406 -0.396 -0.410 -0.402 -0.400 -0.409 -0.432 -0.409 -0.419 -0.422 -0.425 -0.416 -0.416 -0.425 -0.420 -0.416 -0.407
# oxidation-state Y +0.594 +0.640 +0.636 +0.616 +0.657 +0.642 +0.650 +0.611 +0.622 +0.624 +0.641 +0.672 +0.710 +0.702 +0.704 +0.706


-------- Electronic minimization -----------
Will mix electronic density at each iteration.
	FillingsUpdate:  mu: +0.369173531  nElectrons: 320.000000
	FillingsUpdate:  mu: +0.374043405  nElectrons: 320.000000
SCF: Cycle:  0   F: -1004.377992748530801   dF: -4.917e-01   |Residual|: 7.458e-01   |deigs|: 3.084e-03  t[s]:  10806.41
	FillingsUpdate:  mu: +0.372614546  nElectrons: 320.000000
SCF: Cycle:  1   F: -1004.866797623426692   dF: -4.888e-01   |Residual|: 2.674e-01   |deigs|: 4.418e-03  t[s]:  10927.37
	FillingsUpdate:  mu: +0.370252664  nElectrons: 320.000000
SCF: Cycle:  2   F: -1004.931640472753202   dF: -6.484e-02   |Residual|: 8.084e-02   |deigs|: 1.982e-03  t[s]:  11048.22
	FillingsUpdate:  mu: +0.370915535  nElectrons: 320.000000
SCF: Cycle:  3   F: -1004.944278331136729   dF: -1.264e-02   |Residual|: 3.685e-02   |deigs|: 9.974e-04  t[s]:  11166.21
	FillingsUpdate:  mu: +0.370966783  nElectrons: 320.000000
SCF: Cycle:  4   F: -1004.945709594668756   dF: -1.431e-03   |Residual|: 9.584e-03   |deigs|: 4.601e-04  t[s]:  11239.04
	FillingsUpdate:  mu: +0.370884924  nElectrons: 320.000000
SCF: Cycle:  5   F: -1004.945976066211074   dF: -2.665e-04   |Residual|: 5.150e-03   |deigs|: 1.199e-04  t[s]:  11312.03
	FillingsUpdate:  mu: +0.370901315  nElectrons: 320.000000
SCF: Cycle:  6   F: -1004.946052573433235   dF: -7.651e-05   |Residual|: 2.918e-03   |deigs|: 1.028e-04  t[s]:  11384.27
	FillingsUpdate:  mu: +0.370912037  nElectrons: 320.000000
SCF: Cycle:  7   F: -1004.946062854067463   dF: -1.028e-05   |Residual|: 9.597e-04   |deigs|: 2.986e-05  t[s]:  11457.76
	FillingsUpdate:  mu: +0.370912143  nElectrons: 320.000000
SCF: Cycle:  8   F: -1004.946064228489263   dF: -1.374e-06   |Residual|: 4.869e-04   |deigs|: 9.682e-06  t[s]:  11530.19
	FillingsUpdate:  mu: +0.370913254  nElectrons: 320.000000
SCF: Cycle:  9   F: -1004.946064559650949   dF: -3.312e-07   |Residual|: 1.440e-04   |deigs|: 3.451e-06  t[s]:  11603.64
	FillingsUpdate:  mu: +0.370911835  nElectrons: 320.000000
SCF: Cycle: 10   F: -1004.946064641599605   dF: -8.195e-08   |Residual|: 9.655e-05   |deigs|: 1.906e-06  t[s]:  11676.25
	FillingsUpdate:  mu: +0.370911413  nElectrons: 320.000000
SCF: Cycle: 11   F: -1004.946064689248942   dF: -4.765e-08   |Residual|: 2.446e-05   |deigs|: 1.401e-06  t[s]:  11748.53
	FillingsUpdate:  mu: +0.370911419  nElectrons: 320.000000
SCF: Cycle: 12   F: -1004.946064712082148   dF: -2.283e-08   |Residual|: 3.300e-05   |deigs|: 1.235e-06  t[s]:  11820.86
	FillingsUpdate:  mu: +0.370911326  nElectrons: 320.000000
SCF: Cycle: 13   F: -1004.946064725615543   dF: -1.353e-08   |Residual|: 1.248e-05   |deigs|: 1.233e-06  t[s]:  11893.32
	FillingsUpdate:  mu: +0.370911209  nElectrons: 320.000000
SCF: Cycle: 14   F: -1004.946064733183107   dF: -7.568e-09   |Residual|: 1.358e-05   |deigs|: 1.281e-06  t[s]:  11966.09
	FillingsUpdate:  mu: +0.370911200  nElectrons: 320.000000
SCF: Cycle: 15   F: -1004.946064737451707   dF: -4.269e-09   |Residual|: 6.230e-06   |deigs|: 1.294e-06  t[s]:  12038.62
SCF: Converged (|Delta E|<1.000000e-08 for 2 iters).

Setting wave functions to eigenvectors of Hamiltonian

# Ionic positions in lattice coordinates:
ion O   0.750361897140942   0.247650818462326   0.769741788437757 1
ion O  -0.013428858974234  -0.025513563156153   0.736147739240682 1
ion O   0.511559209213159   0.252420457891763   0.001717728923937 1
ion O   0.525470362237057   0.498809548600235   0.749326492144466 1
ion O   0.497000653560734   0.758103578811441   0.526921065005845 1
ion O   0.767696035476854   0.742491341853973   0.242761535092982 1
ion O  -0.024641665185769   0.741977127978849  -0.016715469285628 1
ion O   0.000848271193580   0.512864052863870   0.260299798154473 1
ion O   0.243188919165144   0.756125322902965   0.744853670086413 1
ion O   0.742914611865711  -0.017708037261589  -0.009676519850272 1
ion O   0.263069404351794   0.000204503754491   0.522682625078079 1
ion O   0.764109902201800   0.511450644737714   0.505764386109902 1
ion O   0.017055331504502   0.254125874287332   0.023034619558576 1
ion O   0.738741678870024   0.000039974366103   0.495892876461560 1
ion O   0.756713560726921   0.251269037373677   0.258879529371755 1
ion O   0.493783974143581   0.244527993153581   0.470726747755096 1
ion O   0.477646214761513   0.501255327613877   0.243096182238202 1
ion O   0.239668969318292   0.252798588710856   0.751905005864930 1
ion O   0.488563245101703   0.743686572481054  -0.003046176494434 1
ion O   0.268360023963082   0.011927062604844   0.016526835120941 1
ion O   0.262440449104560   0.748594520218183   0.233003481551019 1
ion O   0.006330152475396   0.485307622373980   0.753292006854135 1
ion O   0.031593166804778   0.024690898337338   0.266821017856411 1
ion O   0.240424613747725   0.472927877140601   0.497372394712508 1
ion Y   0.741704801166061   0.739341295898627   0.998061370331754 1
ion Y   0.504509362576122   0.254197072892861   0.763051819020586 1
ion Y   0.757459323960202   0.501980609046826   0.256097448582452 1
ion Y   0.993346214469727   0.742792734637926   0.749896392216108 1
ion Y   0.747296116206435   0.990817031585160   0.754523943863407 1
ion Y   0.247708568423860   0.756472406112719   0.513055288229785 1
ion Y   0.752151232806727   0.255970752432408   0.500152477670155 1
ion Y  -0.001748472809606   0.245201264199174   0.247227702924628 1
ion Y   0.252778419889765  -0.005509793214671   0.245057660033233 1
ion Y   0.504803153578961   0.749334124102657   0.252325192920523 1
ion Y   0.248651131197898   0.504704054385936   0.743040419612381 1
ion Y   0.243753646540927   0.242875568824059  -0.005255017042191 1
ion Y  -0.004264875580711   0.496807778834961   0.006539752137868 1
ion Y   0.505390501278678  -0.004470293154030   0.004965803608885 1
ion Y   0.007169056628425  -0.003405505339667   0.498202210487788 1
ion Y   0.492031696897676   0.498083752653743   0.491418175413300 1

# Forces in Lattice coordinates:
force O  -0.558165054660308  -0.017305448427281   0.433660811289974 1
force O  -0.138379877032502  -0.238133650660694   0.029766429487442 1
force O   0.456554922627919   0.092326929049988  -0.391131823074926 1
force O   0.186172658942518  -0.007929440013869   0.183473762051025 1
force O  -0.033621322453677  -0.022225489153097   0.362947154289498 1
force O   0.242494105546602  -0.395504016819177   0.206322106696731 1
force O  -0.164462338615551  -0.202977825831873   0.028184353558363 1
force O  -0.350588468311903   0.532117361607815  -0.032611072029706 1
force O  -0.020209591248083   0.366303420517103  -0.319498745484625 1
force O  -0.012476424226321   0.004308210619427  -0.357736831136266 1
force O   0.002255819314687  -0.362372765226290   0.347518835635830 1
force O  -0.195102687250959   0.633322156033660  -0.187333188902807 1
force O   0.433942981846388   0.091751560769041  -0.230718556666581 1
force O   0.223308548406993   0.360064989558169  -0.654608730089428 1
force O   0.138632880544514  -0.686333030508851   0.387104555437651 1
force O   0.139685179052703  -0.169629999531781  -0.289020359353559 1
force O  -0.206106424751021  -0.123401972000966  -0.040487433285809 1
force O  -0.413865748917714   0.479141048854694   0.028301174902869 1
force O  -0.423394808492068  -0.122164817649701   0.535300326114304 1
force O  -0.167645690393331   0.051756758152382   0.408799745011132 1
force O   0.130684587323367   0.106266878515014  -0.290221752232415 1
force O   0.328785797800198  -0.354561120097594  -0.037621914794327 1
force O  -0.152487658385799   0.298045133992102   0.115805197348567 1
force O  -0.007275170452001  -0.191350474844150  -0.119259376951171 1
force Y  -0.333965187699274   0.688532848888219   0.234032674846361 1
force Y  -0.411608293015358   0.485804353689751  -0.753442636140475 1
force Y  -0.659184110192352  -0.588164740372722   0.545602539925418 1
force Y   0.619084542487211  -0.519944346228655   0.602328720801974 1
force Y   0.594241557764900   0.753736451316334  -0.718206417341812 1
force Y   0.815288904352037  -0.666558561509448  -0.798192257263111 1
force Y  -0.546926910383316   0.252552932502505   0.712344421072494 1
force Y  -0.519582858618867   0.393457520202902  -0.273663546123444 1
force Y  -0.476992930334033  -0.429306272230290   0.503645411076635 1
force Y   0.368411745062945  -0.335280164713293   0.427980917035696 1
force Y   0.454807307009811   0.087788186045036  -0.063893863450492 1
force Y   0.628337830297148  -0.510225331405305  -0.511476775282441 1
force Y   0.253863352294877   0.046145019684344  -0.216304215077887 1
force Y  -0.141060819511907   0.206976614751950  -0.019729836262676 1
force Y  -0.149257618687021   0.220574746353297   0.059257630297811 1
force Y   0.064242071420205  -0.207452929355915   0.154527329911406 1

# Energy components:
   Eewald =     -791.3954186911041688
       EH =      209.5721791759738153
     Eloc =     -741.8087469414813313
      Enl =      149.2188214020572161
      Exc =     -305.7142270535410944
 Exc_core =      126.2995937205778176
       KE =      348.8887953970122453
-------------------------------------
     Etot =    -1004.9390029905055144
       TS =        0.0070617469462316
-------------------------------------
        F =    -1004.9460647374517066

IonicMinimize: Iter:   4  F: -1004.946064737451707  |grad|_K:  2.157e-02  alpha:  7.882e-02  linmin: -9.603e-01  t[s]:  12056.35

#--- Lowdin population analysis ---
# oxidation-state O -0.421 -0.421 -0.412 -0.413 -0.411 -0.417 -0.417 -0.410 -0.404 -0.414 -0.406 -0.406 -0.413 -0.434 -0.413 -0.423 -0.425 -0.428 -0.419 -0.420 -0.427 -0.423 -0.419 -0.412
# oxidation-state Y +0.604 +0.647 +0.638 +0.623 +0.658 +0.645 +0.652 +0.615 +0.630 +0.631 +0.645 +0.673 +0.717 +0.712 +0.717 +0.710


-------- Electronic minimization -----------
Will mix electronic density at each iteration.
	FillingsUpdate:  mu: +0.370911200  nElectrons: 320.000000
	FillingsUpdate:  mu: +0.372692754  nElectrons: 320.000000
SCF: Cycle:  0   F: -1004.516474233147505   dF: -7.415e-01   |Residual|: 7.760e-01   |deigs|: 3.451e-03  t[s]:  12224.83
	FillingsUpdate:  mu: +0.374672125  nElectrons: 320.000000
SCF: Cycle:  1   F: -1004.947871257314318   dF: -4.314e-01   |Residual|: 2.805e-01   |deigs|: 4.263e-03  t[s]:  12346.20
	FillingsUpdate:  mu: +0.371864034  nElectrons: 320.000000
SCF: Cycle:  2   F: -1005.012016159385780   dF: -6.414e-02   |Residual|: 7.595e-02   |deigs|: 2.279e-03  t[s]:  12466.84
	FillingsUpdate:  mu: +0.373108772  nElectrons: 320.000000
SCF: Cycle:  3   F: -1005.018574527291889   dF: -6.558e-03   |Residual|: 3.641e-02   |deigs|: 1.186e-03  t[s]:  12584.23
	FillingsUpdate:  mu: +0.373109109  nElectrons: 320.000000
SCF: Cycle:  4   F: -1005.019315640038940   dF: -7.411e-04   |Residual|: 8.396e-03   |deigs|: 2.662e-04  t[s]:  12657.17
	FillingsUpdate:  mu: +0.373052672  nElectrons: 320.000000
SCF: Cycle:  5   F: -1005.019489263384003   dF: -1.736e-04   |Residual|: 4.270e-03   |deigs|: 8.349e-05  t[s]:  12730.60
	FillingsUpdate:  mu: +0.373064089  nElectrons: 320.000000
SCF: Cycle:  6   F: -1005.019534938096854   dF: -4.567e-05   |Residual|: 2.576e-03   |deigs|: 7.220e-05  t[s]:  12803.28
	FillingsUpdate:  mu: +0.373070573  nElectrons: 320.000000
SCF: Cycle:  7   F: -1005.019543880996821   dF: -8.943e-06   |Residual|: 1.263e-03   |deigs|: 3.230e-05  t[s]:  12875.84
	FillingsUpdate:  mu: +0.373073403  nElectrons: 320.000000
SCF: Cycle:  8   F: -1005.019545660580661   dF: -1.780e-06   |Residual|: 3.919e-04   |deigs|: 8.843e-06  t[s]:  12948.37
	FillingsUpdate:  mu: +0.373073430  nElectrons: 320.000000
SCF: Cycle:  9   F: -1005.019545973376921   dF: -3.128e-07   |Residual|: 1.526e-04   |deigs|: 2.701e-06  t[s]:  13021.26
	FillingsUpdate:  mu: +0.373072341  nElectrons: 320.000000
SCF: Cycle: 10   F: -1005.019546078480175   dF: -1.051e-07   |Residual|: 1.011e-04   |deigs|: 1.570e-06  t[s]:  13094.03
	FillingsUpdate:  mu: +0.373072227  nElectrons: 320.000000
SCF: Cycle: 11   F: -1005.019546141447790   dF: -6.297e-08   |Residual|: 2.847e-05   |deigs|: 1.141e-06  t[s]:  13166.70
	FillingsUpdate:  mu: +0.373072150  nElectrons: 320.000000
SCF: Cycle: 12   F: -1005.019546173928802   dF: -3.248e-08   |Residual|: 4.093e-05   |deigs|: 1.063e-06  t[s]:  13239.24
	FillingsUpdate:  mu: +0.373072022  nElectrons: 320.000000
SCF: Cycle: 13   F: -1005.019546194020450   dF: -2.009e-08   |Residual|: 1.368e-05   |deigs|: 1.060e-06  t[s]:  13311.68
	FillingsUpdate:  mu: +0.373071923  nElectrons: 320.000000
SCF: Cycle: 14   F: -1005.019546205459278   dF: -1.144e-08   |Residual|: 1.942e-05   |deigs|: 1.075e-06  t[s]:  13384.70
	FillingsUpdate:  mu: +0.373071911  nElectrons: 320.000000
SCF: Cycle: 15   F: -1005.019546212216483   dF: -6.757e-09   |Residual|: 5.477e-06   |deigs|: 1.061e-06  t[s]:  13458.55
	FillingsUpdate:  mu: +0.373071896  nElectrons: 320.000000
SCF: Cycle: 16   F: -1005.019546215976789   dF: -3.760e-09   |Residual|: 1.148e-05   |deigs|: 1.040e-06  t[s]:  13531.19
SCF: Converged (|Delta E|<1.000000e-08 for 2 iters).

Setting wave functions to eigenvectors of Hamiltonian

# Ionic positions in lattice coordinates:
ion O   0.747740225943460   0.247767217115832   0.770566796208461 1
ion O  -0.014306027601791  -0.027513079265586   0.735046488363919 1
ion O   0.512925688133911   0.252144645761323  -0.001147320430069 1
ion O   0.528163919041665   0.501740944787758   0.752204616377160 1
ion O   0.500486194857251   0.759795633629198   0.529492839376815 1
ion O   0.769010197056787   0.741234897875254   0.244601802184651 1
ion O  -0.026427600539768   0.739594595194653  -0.016370597415175 1
ion O  -0.002076984202037   0.513613199927167   0.258866869986141 1
ion O   0.244459604150491   0.757696344097289   0.742401178003845 1
ion O   0.741225232231857  -0.018009330124359  -0.013600008994777 1
ion O   0.261398336451301  -0.002223464954198   0.522526305996320 1
ion O   0.764865677780234   0.515053010941071   0.507777132569458 1
ion O   0.020414350881741   0.256329000348160   0.022585238023753 1
ion O   0.740832482913157   0.002667774745357   0.494320138116200 1
ion O   0.755623606443925   0.248038053260598   0.260694014669468 1
ion O   0.491858669440407   0.242332984805029   0.468940610288010 1
ion O   0.475016748627373   0.498278371428588   0.241485507815022 1
ion O   0.238127290600727   0.254348332755932   0.751188011902029 1
ion O   0.488220922253046   0.744877454744542   0.000869806896315 1
ion O   0.268950830077621   0.012689615900545   0.019821065207236 1
ion O   0.263297381571111   0.748036460704032   0.232298829406749 1
ion O   0.008129158298261   0.484277242980810   0.753955248065489 1
ion O   0.030549871016155   0.026579887406744   0.268234943061251 1
ion O   0.239116319031722   0.470404473849684   0.495084992553603 1
ion Y   0.742630294585846   0.743744745352075   1.001100636193101 1
ion Y   0.501015462938949   0.253923439652153   0.758272309783624 1
ion Y   0.752727834469748   0.497494106917947   0.255283299722955 1
ion Y   0.997718974926674   0.742971972228655   0.753064450593994 1
ion Y   0.751102430323078   0.995163560124407   0.753944156624803 1
ion Y   0.247768808026698   0.750957766306157   0.508738007173807 1
ion Y   0.752061391443762   0.258506048373544   0.503661772902056 1
ion Y  -0.004603656798607   0.245991277371612   0.245314046981213 1
ion Y   0.249731775474650  -0.007993825037916   0.245435802932155 1
ion Y   0.507378605712241   0.749236825149183   0.255219741318934 1
ion Y   0.251842044565044   0.507208228422819   0.743478332560085 1
ion Y   0.244809795374813   0.240294560277077  -0.007276886423477 1
ion Y  -0.003715977665974   0.497029612174397   0.006215527176545 1
ion Y   0.504809895490729  -0.004012772306976   0.004243724314938 1
ion Y   0.006402939112459  -0.003242454782428   0.498529100399863 1
ion Y   0.492927287561283   0.498192641861873   0.492621469513531 1

# Forces in Lattice coordinates:
force O  -0.490587802333365   0.007306218629989   0.366650955807561 1
force O  -0.093759710351217  -0.250691016282326   0.039521458097820 1
force O   0.397727173980831   0.050232850397930  -0.330923183755122 1
force O   0.144628346182520   0.029723908391162   0.135189951055441 1
force O  -0.012867947649718  -0.051793658041163   0.314391906072848 1
[...]
force O   0.003012178130587   0.000628571903041  -0.001391065836451 1
force O  -0.002893601132278   0.003878430068468  -0.006403389349529 1
force O   0.002818621324879   0.006217694708483   0.001327494458105 1
force O  -0.006634182281595  -0.002338922888487   0.007521187030956 1
force O   0.004175954945475  -0.006210106500253   0.000802150820830 1
force O   0.003294937675570  -0.001173068533638   0.003224510502632 1
force O  -0.000095113305837   0.006570582992140  -0.006470752950649 1
force O   0.000014039885962   0.003453669726553  -0.002768624184830 1
force O  -0.004477456192954   0.001679428281109  -0.001906103693308 1
force O   0.007347629045193  -0.003571784434167  -0.001421994210817 1
force O   0.007608944782329  -0.000453545575460  -0.011090997681152 1
force O  -0.002426465470617   0.002608714556114   0.001628489021840 1
force O  -0.005629670124677   0.001079457536919   0.006061251562586 1
force O  -0.000317687046737  -0.007439641673106   0.000942250808150 1
force O   0.000232430293268   0.000736618734471  -0.002901481264843 1
force O   0.001830758485383   0.004855181211661  -0.008089686933689 1
force O  -0.005604591319442   0.000720854354513  -0.000391998578624 1
force O   0.004622503299911   0.000108605449569   0.000394490248135 1
force O   0.000675506031288  -0.003298574293611   0.003030515755401 1
force Y  -0.001735389607283   0.000010863662196   0.001256401533852 1
force Y  -0.002875208561694  -0.000242324442754  -0.001031892709087 1
force Y   0.001894823925696  -0.003392335311946  -0.001037167760185 1
force Y  -0.000358447878372   0.000178098108881   0.003753184657530 1
force Y   0.000680210131052   0.006672805485188  -0.004053068177005 1
force Y   0.003927826350890  -0.001606033817065  -0.003867432295036 1
force Y  -0.002560782759667  -0.002767525758122  -0.000667134124283 1
force Y   0.002313836320886  -0.000605076104750  -0.000047032755761 1
force Y   0.000945633074999   0.001160971000956  -0.001034885012949 1
force Y  -0.000191617175637   0.000436365197944  -0.000824121116539 1
force Y   0.000808739478773  -0.010279410567535   0.004942428907361 1
force Y   0.004192967091307  -0.000119986737719  -0.002586381642343 1
force Y   0.002051623750314   0.000919220441479  -0.000681377423762 1
force Y  -0.002368136753002   0.003751699283193   0.003994175759897 1
force Y  -0.000722228213753   0.008673188998169  -0.002481491601315 1
force Y  -0.004461267836707  -0.005702251498806   0.004741037724941 1

# Energy components:
   Eewald =     -786.9608252871611285
       EH =      212.7151351741977408
     Eloc =     -749.7068523653146030
      Enl =      149.2090027856986012
      Exc =     -305.8718211007656578
 Exc_core =      126.2996137175729530
       KE =      349.0138161379589974
-------------------------------------
     Etot =    -1005.3019309378129265
       TS =        0.0003641536977415
-------------------------------------
        F =    -1005.3022950915107003

IonicMinimize: Iter:  15  F: -1005.302295091510700  |grad|_K:  2.299e-04  alpha:  1.000e+00  linmin: -6.398e-02  t[s]:  26915.71

#--- Lowdin population analysis ---
# oxidation-state O -0.435 -0.435 -0.435 -0.435 -0.435 -0.435 -0.435 -0.435 -0.434 -0.435 -0.435 -0.435 -0.435 -0.435 -0.435 -0.435 -0.435 -0.435 -0.435 -0.435 -0.435 -0.435 -0.435 -0.435
# oxidation-state Y +0.677 +0.678 +0.677 +0.677 +0.678 +0.677 +0.678 +0.677 +0.678 +0.677 +0.677 +0.677 +0.701 +0.699 +0.700 +0.701


-------- Electronic minimization -----------
Will mix electronic density at each iteration.
	FillingsUpdate:  mu: +0.389624651  nElectrons: 320.000000
	FillingsUpdate:  mu: +0.389614295  nElectrons: 320.000000
SCF: Cycle:  0   F: -1005.302310398370537   dF: -5.539e-06   |Residual|: 9.494e-04   |deigs|: 1.735e-06  t[s]:  27038.63
	FillingsUpdate:  mu: +0.389617660  nElectrons: 320.000000
SCF: Cycle:  1   F: -1005.302313046655627   dF: -2.648e-06   |Residual|: 5.103e-04   |deigs|: 4.454e-06  t[s]:  27110.76
	FillingsUpdate:  mu: +0.389617569  nElectrons: 320.000000
SCF: Cycle:  2   F: -1005.302313351749035   dF: -3.051e-07   |Residual|: 2.275e-04   |deigs|: 2.061e-06  t[s]:  27183.34
	FillingsUpdate:  mu: +0.389618110  nElectrons: 320.000000
SCF: Cycle:  3   F: -1005.302313607518613   dF: -2.558e-07   |Residual|: 8.465e-05   |deigs|: 3.022e-06  t[s]:  27256.12
	FillingsUpdate:  mu: +0.389617939  nElectrons: 320.000000
SCF: Cycle:  4   F: -1005.302313626543878   dF: -1.903e-08   |Residual|: 3.990e-05   |deigs|: 1.988e-06  t[s]:  27328.13
	FillingsUpdate:  mu: +0.389617638  nElectrons: 320.000000
SCF: Cycle:  5   F: -1005.302313633936819   dF: -7.393e-09   |Residual|: 2.024e-05   |deigs|: 1.638e-06  t[s]:  27400.65
	FillingsUpdate:  mu: +0.389617528  nElectrons: 320.000000
SCF: Cycle:  6   F: -1005.302313635426231   dF: -1.489e-09   |Residual|: 8.985e-06   |deigs|: 1.648e-06  t[s]:  27473.20
SCF: Converged (|Delta E|<1.000000e-08 for 2 iters).

Setting wave functions to eigenvectors of Hamiltonian

# Ionic positions in lattice coordinates:
ion O   0.730756691704103   0.259214265477894   0.773096953020729 1
ion O  -0.009576492833634  -0.043935239481162   0.729917434351854 1
ion O   0.511577387956312   0.237467436978696  -0.030088984322308 1
ion O   0.543285273144517   0.530233967664810   0.771960241318377 1
ion O   0.532478622774493   0.768842501299831   0.543339218035040 1
ion O   0.772485971853743   0.727652515596072   0.262099476095771 1
ion O  -0.040870578638283   0.726656866692386  -0.008994017937593 1
ion O  -0.030718890745200   0.508708529071116   0.240355505421156 1
ion O   0.261910710084308   0.770207823429629   0.730797896748643 1
ion O   0.729209279343521  -0.012332739707031  -0.040724175335377 1
ion O   0.240163700964278  -0.033035270464413   0.512203798604981 1
ion O   0.771700024231408   0.540445013591027   0.533080673385583 1
ion O   0.043087937862329   0.269714583754008   0.012471658527745 1
ion O   0.762283806946353   0.029753370235973   0.490898598814716 1
ion O   0.739695697573261   0.226640127619347   0.271904726000260 1
ion O   0.469808522010850   0.228160539536347   0.459852728836174 1
ion O   0.458902312446538   0.467072105591895   0.230887725859287 1
ion O   0.229424269739530   0.268842842173034   0.740311288409573 1
ion O   0.490384471746879   0.759746604328268   0.032938044813260 1
ion O   0.272787506587420   0.009353348309621   0.043853103382128 1
ion O   0.271480456321321   0.737394724512770   0.230049166694035 1
ion O   0.032846151402121   0.487742835483191   0.762651759192321 1
ion O   0.011619327190010   0.040294366505557   0.273059856529687 1
ion O   0.230560636749636   0.456370690475973   0.469989855094558 1
ion Y   0.751111577519546   0.781237912978300   1.034295805561453 1
ion Y   0.468361410803384   0.248668459539804   0.718759334917036 1
ion Y   0.718003722729714   0.465434391223271   0.251392387931023 1
ion Y   1.033969586663674   0.748324165598310   0.784463724466298 1
ion Y   0.783834337892081   1.030959936060997   0.751454782725389 1
ion Y   0.250886526164385   0.715472101251572   0.468494599807110 1
ion Y   0.751288511876987   0.281244860128208   0.534501960866157 1
ion Y  -0.031982836814465   0.248255309321516   0.218819237733797 1
ion Y   0.218389739846655  -0.034301010685230   0.251650300389597 1
ion Y   0.533873235436884   0.748537150919575   0.284189996361073 1
ion Y   0.284030648448680   0.531431564817073   0.751397481832748 1
ion Y   0.250934237047642   0.215601900752288  -0.031378881994582 1
ion Y   0.001044072670453   0.498159266097837   0.001560843027192 1
ion Y   0.500929284941342  -0.001532730829128   0.001296886869091 1
ion Y   0.001069676838559  -0.002026881562559   0.501463889214026 1
ion Y   0.501183471518664   0.498541795713328   0.501415118751993 1

# Forces in Lattice coordinates:
force O  -0.004053811648813  -0.001118547193908   0.004143715818831 1
force O  -0.004611258410367   0.003003730720001  -0.000747288824242 1
force O   0.003163681356486   0.001092128010452   0.001562332165025 1
force O   0.003145535793657  -0.007745255515658   0.001628769289270 1
force O  -0.005021053151080  -0.000029635531470   0.006345570764615 1
force O   0.002306546921665  -0.000064801612713  -0.000200956197467 1
force O  -0.002121063524537   0.002385682497096  -0.004135196958438 1
force O   0.001426439719977   0.004896989839669   0.000855624771849 1
force O  -0.003915337245919  -0.002057643339457   0.005183272759034 1
force O   0.002848690983093  -0.004187963022496   0.000761523220783 1
force O   0.002038767398592   0.000442956195928   0.002267551578523 1
force O  -0.001198425525853   0.004888524247349  -0.004905354912151 1
force O   0.001380490476637   0.003023265487661  -0.002390765337183 1
force O  -0.003219184315852   0.002716586036823  -0.003374178866215 1
force O   0.006085848773769  -0.004031577829285   0.000077327332381 1
force O   0.005764113197072  -0.000993811574283  -0.008324544887812 1
force O  -0.002336762117671   0.001581528797982   0.000959866717587 1
force O  -0.004257624258208   0.000684407928486   0.005017675897239 1
force O  -0.001146513235716  -0.006587458584733   0.002081937354513 1
force O  -0.000191527009575   0.001477983801031  -0.001197520189118 1
force O   0.001974248365336   0.004422219335396  -0.007119100740906 1
force O  -0.003623562385158  -0.001225592755967  -0.000473447519423 1
force O   0.003753987675269   0.001014999300823   0.000453102113634 1
force O   0.000707570989589  -0.004229479224426   0.003138620523506 1
force Y  -0.001001331394140   0.002182248765116   0.000485520474617 1
force Y  -0.001118090700945  -0.001973647956963  -0.000989420669155 1
force Y   0.001418438740398  -0.001258691591079   0.000333852092898 1
force Y   0.000235435541806  -0.000084236464656   0.001869700204811 1
force Y   0.000421663996459   0.003508070295841  -0.001133974889317 1
force Y   0.003392852633805  -0.001543251037523  -0.001665577823445 1
force Y  -0.002260883574851  -0.000056048070027   0.000404564697966 1
force Y   0.001804284866692  -0.000096267516088  -0.002738479357532 1
force Y  -0.001630956256040  -0.001198154841724   0.000546406988313 1
force Y   0.000242408691935  -0.001488482756874   0.001227791214734 1
force Y  -0.000496289308072  -0.003456493638691   0.003076986847884 1
force Y   0.002260288240835  -0.001274940028595  -0.001597907231989 1
force Y   0.001307748958225   0.001956116737117  -0.000949532897850 1
force Y   0.000246585228749  -0.000307057827342   0.001227556091370 1
force Y  -0.000233026743957   0.005101257638506  -0.001838936747742 1
force Y  -0.002307140618359  -0.002190948314494   0.002282490136418 1

# Energy components:
   Eewald =     -786.9843344217903223
       EH =      212.6937515192029480
     Eloc =     -749.6611806056245086
      Enl =      149.2087227113088659
      Exc =     -305.8714596908271233
 Exc_core =      126.2996137087243369
       KE =      349.0129378374039675
-------------------------------------
     Etot =    -1005.3019489416019496
       TS =        0.0003646938242818
-------------------------------------
        F =    -1005.3023136354262306

IonicMinimize: Iter:  16  F: -1005.302313635426231  |grad|_K:  1.679e-04  alpha:  1.000e+00  linmin: -7.118e-01  t[s]:  27490.84

#--- Lowdin population analysis ---
# oxidation-state O -0.435 -0.435 -0.435 -0.435 -0.435 -0.435 -0.435 -0.435 -0.435 -0.435 -0.435 -0.435 -0.435 -0.435 -0.435 -0.435 -0.435 -0.435 -0.435 -0.435 -0.435 -0.435 -0.435 -0.435
# oxidation-state Y +0.677 +0.678 +0.677 +0.677 +0.677 +0.677 +0.678 +0.677 +0.678 +0.677 +0.677 +0.677 +0.701 +0.700 +0.701 +0.701


-------- Electronic minimization -----------
Will mix electronic density at each iteration.
	FillingsUpdate:  mu: +0.389617528  nElectrons: 320.000000
	FillingsUpdate:  mu: +0.389626453  nElectrons: 320.000000
SCF: Cycle:  0   F: -1005.302332709904931   dF: -5.942e-05   |Residual|: 1.625e-03   |deigs|: 1.839e-06  t[s]:  27613.90
	FillingsUpdate:  mu: +0.389629795  nElectrons: 320.000000
SCF: Cycle:  1   F: -1005.302337566025471   dF: -4.856e-06   |Residual|: 8.742e-04   |deigs|: 6.666e-06  t[s]:  27686.52
	FillingsUpdate:  mu: +0.389629769  nElectrons: 320.000000
SCF: Cycle:  2   F: -1005.302338276066962   dF: -7.100e-07   |Residual|: 4.601e-04   |deigs|: 2.458e-06  t[s]:  27759.04
	FillingsUpdate:  mu: +0.389630779  nElectrons: 320.000000
SCF: Cycle:  3   F: -1005.302338595270271   dF: -3.192e-07   |Residual|: 1.089e-04   |deigs|: 2.785e-06  t[s]:  27831.76
	FillingsUpdate:  mu: +0.389630527  nElectrons: 320.000000
SCF: Cycle:  4   F: -1005.302338632439842   dF: -3.717e-08   |Residual|: 5.157e-05   |deigs|: 1.199e-06  t[s]:  27904.74
	FillingsUpdate:  mu: +0.389630582  nElectrons: 320.000000
SCF: Cycle:  5   F: -1005.302338644990868   dF: -1.255e-08   |Residual|: 2.251e-05   |deigs|: 1.089e-06  t[s]:  27977.60
	FillingsUpdate:  mu: +0.389630490  nElectrons: 320.000000
SCF: Cycle:  6   F: -1005.302338648910563   dF: -3.920e-09   |Residual|: 1.195e-05   |deigs|: 1.213e-06  t[s]:  28049.95
	FillingsUpdate:  mu: +0.389630434  nElectrons: 320.000000
SCF: Cycle:  7   F: -1005.302338649814146   dF: -9.036e-10   |Residual|: 4.240e-06   |deigs|: 1.125e-06  t[s]:  28122.66
SCF: Converged (|Delta E|<1.000000e-08 for 2 iters).

Setting wave functions to eigenvectors of Hamiltonian

# Ionic positions in lattice coordinates:
ion O   0.730609141119121   0.259143177567433   0.773245325108241 1
ion O  -0.009830281111690  -0.043854425404969   0.729809048910321 1
ion O   0.511916377560769   0.237745222952557  -0.029747066677557 1
ion O   0.543248201730683   0.529724882710491   0.771868831411246 1
ion O   0.532246940859489   0.768878101207604   0.543614364640744 1
ion O   0.772676510351358   0.727799347134008   0.262161475722889 1
ion O  -0.041077108483255   0.726674448243476  -0.009275078764102 1
ion O  -0.030272753338518   0.509177501111510   0.240697402505394 1
ion O   0.261724386366909   0.770052662573438   0.730963882921626 1
ion O   0.729355100526704  -0.012494648924521  -0.040632291595024 1
ion O   0.240460114599833  -0.032825840677273   0.512475979990189 1
ion O   0.771611709299799   0.540533581774208   0.532798486959191 1
ion O   0.043165561413731   0.269928874141907   0.012470445600112 1
ion O   0.761941851497496   0.029649233327799   0.490632479395515 1
ion O   0.740085550368173   0.226627607288244   0.271944240700802 1
ion O   0.469866183832401   0.227952065653010   0.459325803002781 1
ion O   0.458833427033102   0.467188143676613   0.230976733577825 1
ion O   0.229320493970057   0.268861044601461   0.740578033151054 1
ion O   0.490129249158880   0.759250471121531   0.032696861229301 1
ion O   0.272783010876193   0.009400437737719   0.043747421314249 1
ion O   0.271519165799683   0.737556996475201   0.229721615783303 1
ion O   0.032420802205806   0.487494502396989   0.762421169419332 1
ion O   0.012018155811127   0.040547966515390   0.273282128679491 1
ion O   0.230568123849769   0.456196396519951   0.470124036323857 1
ion Y   0.751048531905028   0.781178679183203   1.034245780865725 1
ion Y   0.468345432846566   0.248465071565234   0.718733343792080 1
ion Y   0.718225773821917   0.465628351411257   0.251506391290070 1
ion Y   1.033850873676808   0.748361897150243   0.784392678294753 1
ion Y   0.783823101768792   1.031084457150897   0.751490954248084 1
ion Y   0.251062050260293   0.715611201347620   0.468711736497898 1
ion Y   0.751118421929160   0.281133388258258   0.534341791844418 1
ion Y  -0.031809386935080   0.248213411791544   0.218750293715310 1
ion Y   0.218370976266927  -0.034290998109167   0.251545007062584 1
ion Y   0.533855836699269   0.748478405606523   0.284177648132610 1
ion Y   0.283819739477620   0.531197728303170   0.751456907065012 1
ion Y   0.250986064906298   0.215641819952499  -0.031328575820014 1
ion Y   0.001082929172722   0.498275203450162   0.001523436722582 1
ion Y   0.500968349774726  -0.001579809823510   0.001374289661040 1
ion Y   0.001105122134073  -0.001763051661469   0.501488513494025 1
ion Y   0.501036266997262   0.498376494699760   0.501378473823045 1

# Forces in Lattice coordinates:
force O  -0.000723781017634   0.000380231673661  -0.000790752847165 1
force O   0.000085175712930  -0.000215139015656  -0.000122301551460 1
force O   0.001038624278494  -0.001960766590759  -0.000981232363664 1
force O  -0.000592600779134   0.000043338734195   0.002037771148969 1
force O   0.002445812277071  -0.000078496347720  -0.000011539129760 1
force O   0.000231858263526   0.001176977386406   0.000644087377330 1
force O  -0.000557240174831   0.000894484395915  -0.001131876795410 1
force O  -0.000448963219679   0.000925608083734  -0.000021060972613 1
force O   0.001190444985636   0.000070268403237  -0.000722855795842 1
force O   0.000147684715646  -0.000015239963981  -0.001312659901271 1
force O  -0.001920235975275   0.000053107255437   0.000368996629899 1
force O  -0.001150257252818   0.001194918184668   0.001133366061672 1
force O   0.001501278891801   0.000754499631711  -0.002268324682549 1
force O   0.000432716082054   0.000189665833116  -0.000480738339855 1
force O   0.001092728149817  -0.001721671275960   0.000509364457653 1
force O  -0.000536229443140  -0.000663850686914   0.000818294356329 1
force O   0.000157663038961  -0.000393844561654  -0.000532111207376 1
force O  -0.000521694883207  -0.000736326203213   0.000994476798859 1
force O   0.000270774078680  -0.000892555787030   0.001340576616663 1
force O  -0.000011524608328  -0.000469697130823  -0.000286861771343 1
force O   0.000852171859000   0.000000575043906   0.000530424291271 1
force O   0.000402576643430   0.000013900077848  -0.001118879074931 1
force O  -0.000837964287611  -0.000066344589193  -0.000120350917354 1
force O  -0.000269537532228  -0.000924881504195   0.001612280318141 1
force Y   0.001626071548942  -0.002387923179946  -0.000619478353534 1
force Y  -0.000337439501064   0.000599028595636   0.000387282819490 1
force Y   0.003226293276192  -0.002176462647283  -0.000605815927208 1
force Y  -0.001489596169228   0.000837064436641  -0.001049219509989 1
force Y  -0.000709663427852  -0.000073084030276  -0.000028085024606 1
force Y  -0.000636262671674  -0.000780167588948  -0.001204867498324 1
force Y   0.000029354153514   0.001640589498326  -0.002424705555050 1
force Y  -0.001405713981329   0.005454217777584  -0.000648235956400 1
force Y   0.000883269447198  -0.002868143184264   0.000368417269470 1
force Y  -0.002546389303193  -0.001139369123479   0.002692247791628 1
force Y   0.001542230060685  -0.001618748847605  -0.001176022377502 1
force Y   0.000931354720857  -0.000161008017989   0.000480437118391 1
force Y  -0.001596483846836   0.001657648032993   0.002377912280078 1
force Y   0.000373281764501   0.000220038406377   0.001428405544820 1
force Y  -0.000522385373781   0.000857573490582   0.000464370829373 1
force Y  -0.000578821385583  -0.000235340019547   0.001416688126553 1

# Energy components:
   Eewald =     -787.0577663601092127
       EH =      212.6195914707741110
     Eloc =     -749.5101565594039812
      Enl =      149.2077756124550376
      Exc =     -305.8699001487745477
 Exc_core =      126.2996139019257669
       KE =      349.0088675934516687
-------------------------------------
     Etot =    -1005.3019744896812426
       TS =        0.0003641601328609
-------------------------------------
        F =    -1005.3023386498141463

IonicMinimize: Iter:  17  F: -1005.302338649814146  |grad|_K:  7.287e-05  alpha:  1.000e+00  linmin:  2.560e-02  t[s]:  28140.55
IonicMinimize: Converged (|grad|_K<1.000000e-04).

#--- Lowdin population analysis ---
# oxidation-state O -0.435 -0.435 -0.435 -0.435 -0.435 -0.435 -0.435 -0.435 -0.435 -0.435 -0.435 -0.435 -0.435 -0.435 -0.435 -0.435 -0.435 -0.435 -0.435 -0.435 -0.435 -0.435 -0.435 -0.435
# oxidation-state Y +0.677 +0.677 +0.677 +0.677 +0.677 +0.677 +0.677 +0.677 +0.677 +0.677 +0.677 +0.677 +0.701 +0.701 +0.701 +0.701


Dumping '/data/rc652/Y2O3/ion/Y2O3_ion.Ecomponents' ... done
End date and time: Thu Jun 27 18:43:03 2024  (Duration: 0-7:49:12.21)
Done!
