--------------------------------------------------------------------------
Initialization of PSM library failed.

  Error: PSM is in the finalized state
--------------------------------------------------------------------------

*************** JDFTx 1.7.0 (git hash 3664913) ***************

Start date and time: Mon Jul 15 02:54:47 2024
Executable jdftx with command-line: -i ZnO_vac.in
Running on hosts (process indices):  node3204.physics.cornell.edu (0-14)
Divided in process groups (process indices):  0 (0)  1 (1)  2 (2)  3 (3)  4 (4)  5 (5)  6 (6)  7 (7)  8 (8)  9 (9)  10 (10)  11 (11)  12 (12)  13 (13)  14 (14)
Resource initialization completed at t[s]:      0.01
Run totals: 15 processes, 30 threads, 0 GPUs


Input parsed successfully to the following command list (including defaults):

basis kpoint-dependent
coords-type Lattice
core-overlap-check vector
coulomb-interaction Periodic
davidson-band-ratio 1.1
dump End Ecomponents
dump-name /data/rc652/ZnO/vac/ZnO_vac.$VAR
elec-cutoff 20 100
elec-eigen-algo Davidson
elec-ex-corr gga-PBEsol
elec-smearing Fermi 0.01
electronic-minimize  \
	dirUpdateScheme      FletcherReeves \
	linminMethod         DirUpdateRecommended \
	nIterations          100 \
	history              15 \
	knormThreshold       0 \
	maxThreshold         no \
	energyDiffThreshold  1e-08 \
	nEnergyDiff          2 \
	alphaTstart          1 \
	alphaTmin            1e-10 \
	updateTestStepSize   yes \
	alphaTreduceFactor   0.1 \
	alphaTincreaseFactor 3 \
	nAlphaAdjustMax      3 \
	wolfeEnergy          0.0001 \
	wolfeGradient        0.9 \
	fdTest               no
electronic-scf  \
	nIterations	50 \
	energyDiffThreshold	1e-08 \
	residualThreshold	1e-07 \
	mixFraction	0.5 \
	qMetric	0.8 \
	history	10 \
	nEigSteps	2 \
	eigDiffThreshold	1e-08 \
	mixedVariable	Density \
	qKerker	0.8 \
	qKappa	-1 \
	verbose	no \
	mixFractionMag	1.5
exchange-regularization WignerSeitzTruncated
fluid None
fluid-ex-corr lda-TF lda-PZ
fluid-gummel-loop 10 1.000000e-05
fluid-minimize  \
	dirUpdateScheme      PolakRibiere \
	linminMethod         DirUpdateRecommended \
	nIterations          100 \
	history              15 \
	knormThreshold       0 \
	maxThreshold         no \
	energyDiffThreshold  0 \
	nEnergyDiff          2 \
	alphaTstart          1 \
	alphaTmin            1e-10 \
	updateTestStepSize   yes \
	alphaTreduceFactor   0.1 \
	alphaTincreaseFactor 3 \
	nAlphaAdjustMax      3 \
	wolfeEnergy          0.0001 \
	wolfeGradient        0.9 \
	fdTest               no
fluid-solvent H2O 55.338 ScalarEOS \
	epsBulk 78.4 \
	pMol 0.92466 \
	epsInf 1.77 \
	Pvap 1.06736e-10 \
	sigmaBulk 4.62e-05 \
	Rvdw 2.61727 \
	Res 1.42 \
	tauNuc 343133 \
	poleEl 15 7 1
forces-output-coords Positions
ion Zn   0.209720000000000   0.095970000000000   0.253470000000000 1
ion Zn   0.095650000000000   0.224400000000000   0.001010000000000 1
ion Zn   0.233880000000000   0.125320000000000   0.757230000000000 1
ion Zn   0.101290000000000   0.242020000000000   0.496030000000000 1
ion Zn   0.236320000000000   0.451270000000000   0.253300000000000 1
ion Zn   0.108880000000000   0.555520000000000  -0.004250000000000 1
ion Zn   0.227750000000000   0.445670000000000   0.747390000000000 1
ion Zn   0.133460000000000   0.556450000000000   0.475460000000000 1
ion Zn   0.235780000000000   0.794460000000000   0.244470000000000 1
ion Zn   0.113680000000000   0.904150000000000  -0.000240000000000 1
ion Zn   0.211790000000000   0.771550000000000   0.747820000000000 1
ion Zn   0.122180000000000   0.884370000000000   0.522080000000000 1
ion Zn   0.562490000000000   0.118130000000000   0.269350000000000 1
ion Zn   0.440720000000000   0.221170000000000  -0.000610000000000 1
ion Zn   0.564750000000000   0.106440000000000   0.742360000000000 1
ion Zn   0.444410000000000   0.226900000000000   0.509950000000000 1
ion Zn   0.559220000000000   0.427190000000000   0.243040000000000 1
ion Zn   0.445300000000000   0.547990000000000  -0.003480000000000 1
ion Zn   0.566060000000000   0.464230000000000   0.740960000000000 1
ion Zn   0.445720000000000   0.561680000000000   0.513350000000000 1
ion Zn   0.544940000000000   0.772280000000000   0.238160000000000 1
ion Zn   0.430830000000000   0.915630000000000  -0.015280000000000 1
ion Zn   0.532690000000000   0.762690000000000   0.746460000000000 1
ion Zn   0.446300000000000   0.896130000000000   0.499090000000000 1
ion Zn   0.885690000000000   0.113180000000000   0.255550000000000 1
ion Zn   0.785310000000000   0.221630000000000   0.013320000000000 1
ion Zn   0.875850000000000   0.116310000000000   0.743040000000000 1
ion Zn   0.794800000000000   0.232170000000000   0.492840000000000 1
ion Zn   0.878630000000000   0.446050000000000   0.251680000000000 1
ion Zn   0.785190000000000   0.549490000000000  -0.001050000000000 1
ion Zn   0.896760000000000   0.450900000000000   0.750110000000000 1
ion Zn   0.770310000000000   0.562090000000000   0.512150000000000 1
ion Zn   0.878060000000000   0.779350000000000   0.236310000000000 1
ion Zn   0.764340000000000   0.889390000000000   0.002090000000000 1
ion Zn   0.883210000000000   0.770730000000000   0.753490000000000 1
ion Zn   0.784870000000000   0.888380000000000   0.493620000000000 1
ion O   0.228270000000000   0.101870000000000   0.455490000000000 1
ion O   0.107120000000000   0.229290000000000   0.187400000000000 1
ion O   0.219740000000000   0.098270000000000   0.938210000000000 1
ion O   0.120470000000000   0.220530000000000   0.686680000000000 1
ion O   0.209210000000000   0.443700000000000   0.445760000000000 1
ion O   0.095890000000000   0.566100000000000   0.183790000000000 1
ion O   0.216910000000000   0.438430000000000   0.941830000000000 1
ion O   0.099500000000000   0.534610000000000   0.696010000000000 1
ion O   0.221950000000000   0.780020000000000   0.454670000000000 1
ion O   0.115360000000000   0.897760000000000   0.194290000000000 1
ion O   0.217200000000000   0.780340000000000   0.952210000000000 1
ion O   0.115930000000000   0.881870000000000   0.695970000000000 1
ion O   0.567580000000000   0.105050000000000   0.447430000000000 1
ion O   0.447980000000000   0.217060000000000   0.196090000000000 1
ion O   0.561560000000000   0.112580000000000   0.917720000000000 1
ion O   0.453830000000000   0.222470000000000   0.671290000000000 1
ion O   0.557200000000000   0.434600000000000   0.435840000000000 1
ion O   0.450150000000000   0.555310000000000   0.195320000000000 1
ion O   0.566860000000000   0.446400000000000   0.939520000000000 1
ion O   0.437470000000000   0.547640000000000   0.677200000000000 1
ion O   0.563770000000000   0.792150000000000   0.443940000000000 1
ion O   0.443460000000000   0.883500000000000   0.199480000000000 1
ion O   0.551650000000000   0.779590000000000   0.936520000000000 1
ion O   0.451800000000000   0.884660000000000   0.675460000000000 1
ion O   0.904890000000000   0.113490000000000   0.441840000000000 1
ion O   0.762470000000000   0.211670000000000   0.194150000000000 1
ion O   0.878980000000000   0.112010000000000   0.931670000000000 1
ion O   0.777570000000000   0.224880000000000   0.686840000000000 1
ion O   0.883620000000000   0.436120000000000   0.423990000000000 1
ion O   0.786170000000000   0.563890000000000   0.185690000000000 1
ion O   0.890060000000000   0.465970000000000   0.929180000000000 1
ion O   0.772480000000000   0.568730000000000   0.692850000000000 1
ion O   0.891580000000000   0.765030000000000   0.431920000000000 1
ion O   0.773330000000000   0.886480000000000   0.183880000000000 1
ion O   0.779570000000000   0.890630000000000   0.695030000000000 1
ion-species GBRV/$ID_pbesol.uspp
ion-width 0
ionic-minimize  \
	dirUpdateScheme      L-BFGS \
	linminMethod         DirUpdateRecommended \
	nIterations          30 \
	history              15 \
	knormThreshold       0.0001 \
	maxThreshold         no \
	energyDiffThreshold  1e-06 \
	nEnergyDiff          2 \
	alphaTstart          1 \
	alphaTmin            1e-10 \
	updateTestStepSize   yes \
	alphaTreduceFactor   0.1 \
	alphaTincreaseFactor 3 \
	nAlphaAdjustMax      3 \
	wolfeEnergy          0.0001 \
	wolfeGradient        0.9 \
	fdTest               no
kpoint   0.500000000000   0.500000000000   0.500000000000  1.00000000000000
kpoint-folding 3 3 3 
latt-move-scale 1 1 1
latt-scale 1 1 1 
lattice  \
	   9.171042196668017    9.171042196668017    0.000000000000000  \
	 -15.884716943984428   15.884716943984428   -0.000000000000000  \
	   0.000000000000000   -0.000000000000000   19.742696924199336 
lattice-minimize  \
	dirUpdateScheme      L-BFGS \
	linminMethod         DirUpdateRecommended \
	nIterations          0 \
	history              15 \
	knormThreshold       0 \
	maxThreshold         no \
	energyDiffThreshold  1e-06 \
	nEnergyDiff          2 \
	alphaTstart          1 \
	alphaTmin            1e-10 \
	updateTestStepSize   yes \
	alphaTreduceFactor   0.1 \
	alphaTincreaseFactor 3 \
	nAlphaAdjustMax      3 \
	wolfeEnergy          0.0001 \
	wolfeGradient        0.9 \
	fdTest               no
lcao-params -1 1e-06 0.01
pcm-variant GLSSA13
perturb-minimize  \
	nIterations            0 \
	algorithm              MINRES \
	residualTol            0.0001 \
	residualDiffThreshold  0.0001 \
	CGBypass               no \
	recomputeResidual      no
spintype no-spin
subspace-rotation-factor 1 yes
symmetries automatic
symmetry-threshold 0.0001



---------- Setting up symmetries ----------

Found 24 point-group symmetries of the bravais lattice
Found 1 space-group symmetries with basis
Applied RMS atom displacement 0 bohrs to make symmetries exact.

---------- Initializing the Grid ----------
R = 
[      9.17104      9.17104            0  ]
[     -15.8847      15.8847            0  ]
[            0            0      19.7427  ]
unit cell volume = 5752.21
G =
[   0.342556  -0.197775         -0  ]
[   0.342556   0.197775          0  ]
[          0          0   0.318254  ]
Minimum fftbox size, Smin = [  84  84  92  ]
Chosen fftbox size, S = [  84  84  96  ]

---------- Initializing tighter grid for wavefunction operations ----------
R = 
[      9.17104      9.17104            0  ]
[     -15.8847      15.8847            0  ]
[            0            0      19.7427  ]
unit cell volume = 5752.21
G =
[   0.342556  -0.197775         -0  ]
[   0.342556   0.197775          0  ]
[          0          0   0.318254  ]
Minimum fftbox size, Smin = [  76  76  80  ]
Chosen fftbox size, S = [  80  80  80  ]

---------- Exchange Correlation functional ----------
Initalized PBEsol GGA exchange.
Initalized PBEsol GGA correlation.

---------- Setting up pseudopotentials ----------
Width of ionic core gaussian charges (only for fluid interactions / plotting) set to 0

Reading pseudopotential file '/home/rc652/build/pseudopotentials/GBRV/zn_pbesol.uspp':
  Title: Zn.  Created by USPP 7.3.6 on 23-7-2013
  Reference state energy: -230.565303.  20 valence electrons in orbitals:
    |300>  occupation: 2  eigenvalue: -4.737806
    |310>  occupation: 6  eigenvalue: -3.059602
    |320>  occupation: 10  eigenvalue: -0.373701
    |400>  occupation: 2  eigenvalue: -0.220431
    |410>  occupation: 0  eigenvalue: -0.039521
  lMax: 2  lLocal: 3  QijEcut: 5
  6 projectors sampled on a log grid with 687 points:
    l: 0  eig: -4.737806  rCut: 1.35
    l: 0  eig: -0.220431  rCut: 1.35
    l: 1  eig: -3.059602  rCut: 1.4
    l: 1  eig: -0.039521  rCut: 1.4
    l: 2  eig: -0.373701  rCut: 1.6
    l: 2  eig: 1.000000  rCut: 1.6
  Transforming local potential to a uniform radial grid of dG=0.02 with 1634 points.
  Transforming nonlocal projectors to a uniform radial grid of dG=0.02 with 432 points.
  Transforming density augmentations to a uniform radial grid of dG=0.02 with 1634 points.
  Transforming atomic orbitals to a uniform radial grid of dG=0.02 with 432 points.
  Core radius for overlap checks: 1.80 bohrs.

Reading pseudopotential file '/home/rc652/build/pseudopotentials/GBRV/o_pbesol.uspp':
  Title: O.  Created by USPP 7.3.6 on 3-2-2014
  Reference state energy: -15.849885.  6 valence electrons in orbitals:
    |200>  occupation: 2  eigenvalue: -0.873214
    |210>  occupation: 4  eigenvalue: -0.330058
  lMax: 2  lLocal: 2  QijEcut: 6
  5 projectors sampled on a log grid with 511 points:
    l: 0  eig: -0.873214  rCut: 1.25
    l: 0  eig: 0.000000  rCut: 1.25
    l: 1  eig: -0.330058  rCut: 1.25
    l: 1  eig: 0.000000  rCut: 1.25
    l: 2  eig: 1.000000  rCut: 1.25
  Partial core density with radius 0.7
  Transforming core density to a uniform radial grid of dG=0.02 with 1634 points.
  Transforming local potential to a uniform radial grid of dG=0.02 with 1634 points.
  Transforming nonlocal projectors to a uniform radial grid of dG=0.02 with 432 points.
  Transforming density augmentations to a uniform radial grid of dG=0.02 with 1634 points.
  Transforming atomic orbitals to a uniform radial grid of dG=0.02 with 432 points.
  Core radius for overlap checks: 1.25 bohrs.

Initialized 2 species with 71 total atoms.

Folded 1 k-points by 3x3x3 to 27 k-points.

---------- Setting up k-points, bands, fillings ----------
Adding inversion symmetry to k-mesh for non-inversion-symmetric unit cell.
Reduced to 14 k-points under symmetry. 
Computing the number of bands and number of electrons
Calculating initial fillings.
nElectrons: 930.000000   nBands: 608   nStates: 14

----- Setting up reduced wavefunction bases (one per k-point) -----
average nbasis = 24571.704 , ideal nbasis = 24573.875

---------- Setting up ewald sum ----------
Optimum gaussian width for ewald sums = 3.512734 bohr.
Real space sum over 567 unit cells with max indices [  4  4  3  ]
Reciprocal space sum over 7581 terms with max indices [  9  9  10  ]

---------- Allocating electronic variables ----------
Initializing wave functions:  linear combination of atomic orbitals
Zn pseudo-atom occupations:   s ( 2 2 )  p ( 6 0 )  d ( 10 )
O pseudo-atom occupations:   s ( 2 )  p ( 4 )
	FillingsUpdate:  mu: +0.528870901  nElectrons: 930.000000
LCAOMinimize: Iter:   0  F: -8859.7841957131149684  |grad|_K:  2.031e-03  alpha:  1.000e+00
	FillingsUpdate:  mu: +0.430334549  nElectrons: 930.000000
LCAOMinimize: Iter:   1  F: -8863.4209956485228759  |grad|_K:  7.662e-04  alpha:  2.318e-01  linmin: -5.087e-01  cgtest:  8.907e-01  t[s]:    189.99
LCAOMinimize: Encountered beta<0, resetting CG.
	FillingsUpdate:  mu: +0.391077699  nElectrons: 930.000000
LCAOMinimize: Iter:   2  F: -8863.9416489911563986  |grad|_K:  8.821e-05  alpha:  3.511e-01  linmin:  2.103e-01  cgtest: -5.278e-01  t[s]:    256.34
	FillingsUpdate:  mu: +0.386612187  nElectrons: 930.000000
LCAOMinimize: Iter:   3  F: -8863.9450468481063581  |grad|_K:  5.677e-05  alpha:  2.667e-01  linmin:  4.695e-04  cgtest:  6.045e-01  t[s]:    324.09
	FillingsUpdate:  mu: +0.388181204  nElectrons: 930.000000
LCAOMinimize: Iter:   4  F: -8863.9478281503288599  |grad|_K:  1.006e-05  alpha:  3.322e-01  linmin: -4.349e-03  cgtest:  4.848e-03  t[s]:    391.40
	FillingsUpdate:  mu: +0.388358499  nElectrons: 930.000000
LCAOMinimize: Iter:   5  F: -8863.9479795464576455  |grad|_K:  5.182e-06  alpha:  5.752e-01  linmin:  9.238e-04  cgtest: -7.483e-03  t[s]:    459.31
	FillingsUpdate:  mu: +0.388315472  nElectrons: 930.000000
LCAOMinimize: Iter:   6  F: -8863.9480036991535599  |grad|_K:  1.720e-06  alpha:  3.468e-01  linmin: -1.919e-04  cgtest:  1.305e-02  t[s]:    527.21
	FillingsUpdate:  mu: +0.388178620  nElectrons: 930.000000
LCAOMinimize: Iter:   7  F: -8863.9480061437443510  |grad|_K:  5.529e-07  alpha:  3.181e-01  linmin:  9.831e-05  cgtest: -2.455e-03  t[s]:    593.62
	FillingsUpdate:  mu: +0.388202339  nElectrons: 930.000000
LCAOMinimize: Iter:   8  F: -8863.9480065564475808  |grad|_K:  3.266e-07  alpha:  5.202e-01  linmin:  2.847e-05  cgtest:  3.264e-04  t[s]:    661.23
	FillingsUpdate:  mu: +0.388208341  nElectrons: 930.000000
LCAOMinimize: Iter:   9  F: -8863.9480066495143546  |grad|_K:  5.403e-08  alpha:  3.362e-01  linmin: -4.189e-05  cgtest:  7.840e-05  t[s]:    727.09
LCAOMinimize: Converged (|Delta F|<1.000000e-06 for 2 iters).


---- Citations for features of the code used in this run ----

   Software package:
      R. Sundararaman, K. Letchworth-Weaver, K.A. Schwarz, D. Gunceler, Y. Ozhabes and T.A. Arias, 'JDFTx: software for joint density-functional theory', SoftwareX 6, 278 (2017)

   gga-PBEsol exchange-correlation functional:
      J.P. Perdew et al., Phys. Rev. Lett. 100, 136406 (2008)

   Pseudopotentials:
      KF Garrity, JW Bennett, KM Rabe and D Vanderbilt, Comput. Mater. Sci. 81, 446 (2014)

This list may not be complete. Please suggest additional citations or
report any other bugs at https://github.com/shankar1729/jdftx/issues

Initialization completed successfully at t[s]:    760.36


-------- Electronic minimization -----------
Will mix electronic density at each iteration.
	FillingsUpdate:  mu: +0.388208341  nElectrons: 930.000000
	FillingsUpdate:  mu: +0.379140761  nElectrons: 930.000000
SCF: Cycle:  0   F: -8864.794395273702321   dF: -8.464e-01   |Residual|: 4.902e-01   |deigs|: 2.337e-02  t[s]:   1053.70
	FillingsUpdate:  mu: +0.370619784  nElectrons: 930.000000
SCF: Cycle:  1   F: -8864.899312698900758   dF: -1.049e-01   |Residual|: 1.189e-01   |deigs|: 8.281e-03  t[s]:   1302.10
	FillingsUpdate:  mu: +0.372469917  nElectrons: 930.000000
SCF: Cycle:  2   F: -8864.913265641505859   dF: -1.395e-02   |Residual|: 7.284e-02   |deigs|: 2.560e-03  t[s]:   1535.25
	FillingsUpdate:  mu: +0.372454972  nElectrons: 930.000000
SCF: Cycle:  3   F: -8864.914385631645928   dF: -1.120e-03   |Residual|: 2.287e-02   |deigs|: 1.423e-03  t[s]:   1761.94
	FillingsUpdate:  mu: +0.372637977  nElectrons: 930.000000
SCF: Cycle:  4   F: -8864.914641193998250   dF: -2.556e-04   |Residual|: 7.489e-03   |deigs|: 2.956e-04  t[s]:   1912.70
	FillingsUpdate:  mu: +0.372852758  nElectrons: 930.000000
SCF: Cycle:  5   F: -8864.914658517973294   dF: -1.732e-05   |Residual|: 3.131e-03   |deigs|: 1.800e-04  t[s]:   2059.19
	FillingsUpdate:  mu: +0.372914401  nElectrons: 930.000000
SCF: Cycle:  6   F: -8864.914665706806773   dF: -7.189e-06   |Residual|: 1.237e-03   |deigs|: 8.011e-05  t[s]:   2209.54
	FillingsUpdate:  mu: +0.372945040  nElectrons: 930.000000
SCF: Cycle:  7   F: -8864.914666791055424   dF: -1.084e-06   |Residual|: 5.311e-04   |deigs|: 4.131e-05  t[s]:   2360.22
	FillingsUpdate:  mu: +0.372950649  nElectrons: 930.000000
SCF: Cycle:  8   F: -8864.914667018027103   dF: -2.270e-07   |Residual|: 1.917e-04   |deigs|: 9.290e-06  t[s]:   2506.61
	FillingsUpdate:  mu: +0.372952365  nElectrons: 930.000000
SCF: Cycle:  9   F: -8864.914667067054324   dF: -4.903e-08   |Residual|: 9.738e-05   |deigs|: 3.779e-06  t[s]:   2656.30
	FillingsUpdate:  mu: +0.372951594  nElectrons: 930.000000
SCF: Cycle: 10   F: -8864.914667081326115   dF: -1.427e-08   |Residual|: 4.953e-05   |deigs|: 1.962e-06  t[s]:   2802.41
	FillingsUpdate:  mu: +0.372951045  nElectrons: 930.000000
SCF: Cycle: 11   F: -8864.914667085791734   dF: -4.466e-09   |Residual|: 1.687e-05   |deigs|: 1.060e-06  t[s]:   2948.79
	FillingsUpdate:  mu: +0.372950828  nElectrons: 930.000000
SCF: Cycle: 12   F: -8864.914667086766713   dF: -9.750e-10   |Residual|: 1.101e-05   |deigs|: 5.580e-07  t[s]:   3100.69
SCF: Converged (|Delta E|<1.000000e-08 for 2 iters).

Setting wave functions to eigenvectors of Hamiltonian

# Ionic positions in lattice coordinates:
ion Zn   0.209720000000000   0.095970000000000   0.253470000000000 1
ion Zn   0.095650000000000   0.224400000000000   0.001010000000000 1
ion Zn   0.233880000000000   0.125320000000000   0.757230000000000 1
ion Zn   0.101290000000000   0.242020000000000   0.496030000000000 1
ion Zn   0.236320000000000   0.451270000000000   0.253300000000000 1
ion Zn   0.108880000000000   0.555520000000000  -0.004250000000000 1
ion Zn   0.227750000000000   0.445670000000000   0.747390000000000 1
ion Zn   0.133460000000000   0.556450000000000   0.475460000000000 1
ion Zn   0.235780000000000   0.794460000000000   0.244470000000000 1
ion Zn   0.113680000000000   0.904150000000000  -0.000240000000000 1
ion Zn   0.211790000000000   0.771550000000000   0.747820000000000 1
ion Zn   0.122180000000000   0.884370000000000   0.522080000000000 1
ion Zn   0.562490000000000   0.118130000000000   0.269350000000000 1
ion Zn   0.440720000000000   0.221170000000000  -0.000610000000000 1
ion Zn   0.564750000000000   0.106440000000000   0.742360000000000 1
ion Zn   0.444410000000000   0.226900000000000   0.509950000000000 1
ion Zn   0.559220000000000   0.427190000000000   0.243040000000000 1
ion Zn   0.445300000000000   0.547990000000000  -0.003480000000000 1
ion Zn   0.566060000000000   0.464230000000000   0.740960000000000 1
ion Zn   0.445720000000000   0.561680000000000   0.513350000000000 1
ion Zn   0.544940000000000   0.772280000000000   0.238160000000000 1
ion Zn   0.430830000000000   0.915630000000000  -0.015280000000000 1
ion Zn   0.532690000000000   0.762690000000000   0.746460000000000 1
ion Zn   0.446300000000000   0.896130000000000   0.499090000000000 1
ion Zn   0.885690000000000   0.113180000000000   0.255550000000000 1
ion Zn   0.785310000000000   0.221630000000000   0.013320000000000 1
ion Zn   0.875850000000000   0.116310000000000   0.743040000000000 1
ion Zn   0.794800000000000   0.232170000000000   0.492840000000000 1
ion Zn   0.878630000000000   0.446050000000000   0.251680000000000 1
ion Zn   0.785190000000000   0.549490000000000  -0.001050000000000 1
ion Zn   0.896760000000000   0.450900000000000   0.750110000000000 1
ion Zn   0.770310000000000   0.562090000000000   0.512150000000000 1
ion Zn   0.878060000000000   0.779350000000000   0.236310000000000 1
ion Zn   0.764340000000000   0.889390000000000   0.002090000000000 1
ion Zn   0.883210000000000   0.770730000000000   0.753490000000000 1
ion Zn   0.784870000000000   0.888380000000000   0.493620000000000 1
ion O   0.228270000000000   0.101870000000000   0.455490000000000 1
ion O   0.107120000000000   0.229290000000000   0.187400000000000 1
ion O   0.219740000000000   0.098270000000000   0.938210000000000 1
ion O   0.120470000000000   0.220530000000000   0.686680000000000 1
ion O   0.209210000000000   0.443700000000000   0.445760000000000 1
ion O   0.095890000000000   0.566100000000000   0.183790000000000 1
ion O   0.216910000000000   0.438430000000000   0.941830000000000 1
ion O   0.099500000000000   0.534610000000000   0.696010000000000 1
ion O   0.221950000000000   0.780020000000000   0.454670000000000 1
ion O   0.115360000000000   0.897760000000000   0.194290000000000 1
ion O   0.217200000000000   0.780340000000000   0.952210000000000 1
ion O   0.115930000000000   0.881870000000000   0.695970000000000 1
ion O   0.567580000000000   0.105050000000000   0.447430000000000 1
ion O   0.447980000000000   0.217060000000000   0.196090000000000 1
ion O   0.561560000000000   0.112580000000000   0.917720000000000 1
ion O   0.453830000000000   0.222470000000000   0.671290000000000 1
ion O   0.557200000000000   0.434600000000000   0.435840000000000 1
ion O   0.450150000000000   0.555310000000000   0.195320000000000 1
ion O   0.566860000000000   0.446400000000000   0.939520000000000 1
ion O   0.437470000000000   0.547640000000000   0.677200000000000 1
ion O   0.563770000000000   0.792150000000000   0.443940000000000 1
ion O   0.443460000000000   0.883500000000000   0.199480000000000 1
ion O   0.551650000000000   0.779590000000000   0.936520000000000 1
ion O   0.451800000000000   0.884660000000000   0.675460000000000 1
ion O   0.904890000000000   0.113490000000000   0.441840000000000 1
ion O   0.762470000000000   0.211670000000000   0.194150000000000 1
ion O   0.878980000000000   0.112010000000000   0.931670000000000 1
ion O   0.777570000000000   0.224880000000000   0.686840000000000 1
ion O   0.883620000000000   0.436120000000000   0.423990000000000 1
ion O   0.786170000000000   0.563890000000000   0.185690000000000 1
ion O   0.890060000000000   0.465970000000000   0.929180000000000 1
ion O   0.772480000000000   0.568730000000000   0.692850000000000 1
ion O   0.891580000000000   0.765030000000000   0.431920000000000 1
ion O   0.773330000000000   0.886480000000000   0.183880000000000 1
ion O   0.779570000000000   0.890630000000000   0.695030000000000 1

# Forces in Lattice coordinates:
force Zn   0.005519836268256   0.792720527748227   0.640001883071875 1
force Zn   0.181162206816019  -0.275086189704190  -0.028971485257602 1
force Zn   0.154274252821338  -0.211128715919640  -0.471171018450153 1
force Zn   1.041436470114722  -1.092251606474705   0.729600473046498 1
force Zn  -0.379203521227542   0.116563219578149  -0.229698367443026 1
force Zn   0.041990227709384  -0.007322316641873   0.208064129480873 1
force Zn  -0.239054255334647  -0.199192657922514   0.215605287163440 1
force Zn  -2.365258003253803   2.467559260806045   0.699508891307310 1
force Zn  -0.524681279417635  -0.145422119922886   0.275319440348600 1
force Zn  -0.236242157029068  -0.844522199221080   0.416909917090887 1
force Zn   0.615390430824540  -0.602110774915349   0.193487404274610 1
force Zn  -0.540960117099218   0.442408011697566  -0.804410917483672 1
force Zn  -0.328358749132256  -0.192998638770018  -0.136287777481485 1
force Zn   0.193260167695112  -0.045666472585287   0.058205683055431 1
force Zn  -0.351039548898406   0.137255299661707  -0.576429589687525 1
force Zn   0.030475855818572  -0.143151547087644  -1.754647540276409 1
force Zn  -0.098222770810530   0.598040634325045   0.330231160118535 1
force Zn  -0.085451844579646   0.217035868610193   0.131948881739299 1
force Zn  -0.271184447736254  -0.553666058567902   0.447497776979594 1
force Zn   0.251926808191996   0.041899796657741  -1.940944240600150 1
force Zn   0.343749590062025  -0.098512275000473   0.455457934501490 1
force Zn   0.511589051671351  -0.676326484602619   0.448065367230166 1
force Zn   0.460024112230524   0.068142435350869   0.228997317361119 1
force Zn   0.022206151359617  -0.250054354869146  -0.347009093356566 1
force Zn   0.084817967384325  -0.117847576806270  -0.133740898350660 1
force Zn  -0.325469702115456   0.256468273046334  -0.367267446401765 1
force Zn   0.653862980902396  -0.572079777526065   0.040916238941978 1
force Zn  -0.198680641553590  -0.112014917092850   0.250747306216880 1
force Zn   0.229716758215122  -0.084237123442829  -0.490493454724675 1
force Zn  -0.776539293073910   0.937182444414226   0.422851841593426 1
force Zn  -0.546241772137648  -0.029469696516363  -0.188713369584304 1
force Zn   0.209599045520477  -0.262768981212627  -0.668708751580787 1
force Zn   0.456520190661116  -0.224390883681204   0.454277101287293 1
force Zn   0.185425303361662  -0.085617066469432  -0.372982037761432 1
force Zn   0.008462639740453   0.752974118192165   0.381658518811884 1
force Zn   0.151542638353295  -0.204873653795119   0.216366126484031 1
force O  -0.423584975069225   0.317060359082193  -0.557046507052595 1
force O   0.135572087435813  -0.142833455048334   0.199330495132354 1
force O  -0.088839874124201   1.029429005642491  -0.104358159674362 1
force O  -0.349860896075615   0.254791111333588   0.060674993325488 1
force O   2.240093545698759  -1.600874661462069  -0.904921434315947 1
force O   0.492077167160655  -0.334568413784541   0.181482847512101 1
force O   0.159212271558441   0.115426157470384  -0.154586615861090 1
force O   0.468774984533937   0.365192699734059  -0.401481644370271 1
force O   0.275212600675162  -0.396582622381007  -0.528654948877014 1
force O  -0.134215854983160  -0.556539512754555  -0.468453661404696 1
force O  -0.149585563016348  -0.006973800139541  -0.430613966034302 1
force O  -0.588065069068032   0.560012495805604   0.650592782805273 1
force O  -0.101337021348908   0.499451853296355   0.062006532832316 1
force O  -0.244049442247258  -0.255709689658498  -0.469238340151233 1
force O  -0.034792909041897   0.488373175991220   0.853584489666804 1
force O   0.022437886605918   0.072821857875788   2.357608332422579 1
force O  -0.236365540799280   0.461743876869566  -0.035334315732768 1
force O   0.140442693423377  -0.319040667127351  -0.297047619929380 1
force O  -0.318433852078569   0.037988066976248  -0.174243944415684 1
force O   0.045419881734460  -0.028415925231373   1.443524243441451 1
force O   0.095844903614141  -0.503597799612036  -0.261453578458752 1
force O   0.006724982563862   0.567148978563852  -0.508623511581321 1
force O  -0.229737301182836  -0.073025426768884  -0.001723543157204 1
force O  -0.472305996898940   0.211288202911157   0.802642365942690 1
force O  -0.709098996398291  -0.116736604688950  -0.335513005295659 1
force O   0.423027713230351   0.054089547179540  -0.225850938149059 1
force O   0.165278986445896  -0.108230737299421   0.175630728985619 1
force O  -0.054496632391374   0.435216691255411  -0.351776418083159 1
force O   0.099344582281302   0.296068662228279   0.922556207933523 1
force O  -0.349437060329391  -0.045446617246332  -0.230438599007714 1
force O   0.867509318070517  -1.080930015625771   0.048040915966673 1
force O   0.691874043739593  -0.694308792673910  -0.143126915655600 1
force O  -0.112326661198489   0.383437338430007   0.084554264311711 1
force O  -0.249718065613085   0.426382025270991   0.157914818764790 1
force O  -0.048970890188026  -0.109784056855911  -0.151238800102034 1

# Energy components:
   Eewald =    -4518.7242398236085137
       EH =     3842.3228431365341748
     Eloc =    -8640.7098551547369425
      Enl =      344.2056734025212563
      Exc =     -879.1196644939286671
 Exc_core =        2.2012858031992937
       KE =      984.9295552818348369
-------------------------------------
     Etot =    -8864.8944018481852254
       TS =        0.0202652385816776
-------------------------------------
        F =    -8864.9146670867667126

IonicMinimize: Iter:   0  F: -8864.914667086766713  |grad|_K:  2.827e-02  t[s]:   3140.29

#--- Lowdin population analysis ---
# oxidation-state Zn +0.590 +0.594 +0.607 +0.610 +0.605 +0.592 +0.581 +0.615 +0.599 +0.498 +0.596 +0.590 +0.591 +0.584 +0.605 +0.581 +0.594 +0.586 +0.612 +0.616 +0.594 +0.595 +0.587 +0.588 +0.603 +0.602 +0.598 +0.592 +0.582 +0.517 +0.607 +0.590 +0.591 +0.512 +0.499 +0.583
# oxidation-state O -0.585 -0.579 -0.582 -0.585 -0.588 -0.581 -0.579 -0.588 -0.585 -0.584 -0.580 -0.586 -0.590 -0.577 -0.578 -0.587 -0.581 -0.581 -0.577 -0.584 -0.581 -0.587 -0.578 -0.584 -0.583 -0.579 -0.578 -0.587 -0.588 -0.584 -0.586 -0.587 -0.579 -0.583 -0.579


-------- Electronic minimization -----------
Will mix electronic density at each iteration.
	FillingsUpdate:  mu: +0.372950828  nElectrons: 930.000000
	FillingsUpdate:  mu: +0.368059435  nElectrons: 930.000000
SCF: Cycle:  0   F: -8864.576746403767174   dF: -9.199e-01   |Residual|: 5.388e-01   |deigs|: 1.916e-03  t[s]:   3482.34
	FillingsUpdate:  mu: +0.369465854  nElectrons: 930.000000
SCF: Cycle:  1   F: -8864.913006533499356   dF: -3.363e-01   |Residual|: 2.738e-01   |deigs|: 4.489e-03  t[s]:   3729.68
	FillingsUpdate:  mu: +0.371440990  nElectrons: 930.000000
SCF: Cycle:  2   F: -8864.975746002557571   dF: -6.274e-02   |Residual|: 1.113e-01   |deigs|: 1.797e-03  t[s]:   3977.39
	FillingsUpdate:  mu: +0.372123958  nElectrons: 930.000000
SCF: Cycle:  3   F: -8865.003859677106448   dF: -2.811e-02   |Residual|: 3.041e-02   |deigs|: 1.492e-03  t[s]:   4225.00
	FillingsUpdate:  mu: +0.372062620  nElectrons: 930.000000
SCF: Cycle:  4   F: -8865.005729080512538   dF: -1.869e-03   |Residual|: 1.577e-02   |deigs|: 4.786e-04  t[s]:   4373.44
	FillingsUpdate:  mu: +0.372171863  nElectrons: 930.000000
SCF: Cycle:  5   F: -8865.006667906271105   dF: -9.388e-04   |Residual|: 7.462e-03   |deigs|: 4.099e-04  t[s]:   4518.98
	FillingsUpdate:  mu: +0.372286680  nElectrons: 930.000000
SCF: Cycle:  6   F: -8865.007048366820527   dF: -3.805e-04   |Residual|: 4.643e-03   |deigs|: 2.980e-04  t[s]:   4669.69
	FillingsUpdate:  mu: +0.372272067  nElectrons: 930.000000
SCF: Cycle:  7   F: -8865.007112941160813   dF: -6.457e-05   |Residual|: 1.908e-03   |deigs|: 1.419e-04  t[s]:   4815.24
	FillingsUpdate:  mu: +0.372280307  nElectrons: 930.000000
SCF: Cycle:  8   F: -8865.007133217966839   dF: -2.028e-05   |Residual|: 9.356e-04   |deigs|: 8.321e-05  t[s]:   4962.60
	FillingsUpdate:  mu: +0.372284406  nElectrons: 930.000000
SCF: Cycle:  9   F: -8865.007136553074815   dF: -3.335e-06   |Residual|: 5.815e-04   |deigs|: 4.188e-05  t[s]:   5113.77
	FillingsUpdate:  mu: +0.372286063  nElectrons: 930.000000
SCF: Cycle: 10   F: -8865.007137551094274   dF: -9.980e-07   |Residual|: 2.148e-04   |deigs|: 1.882e-05  t[s]:   5259.92
	FillingsUpdate:  mu: +0.372286055  nElectrons: 930.000000
SCF: Cycle: 11   F: -8865.007137658611100   dF: -1.075e-07   |Residual|: 1.160e-04   |deigs|: 6.937e-06  t[s]:   5408.19
	FillingsUpdate:  mu: +0.372286178  nElectrons: 930.000000
SCF: Cycle: 12   F: -8865.007137687742215   dF: -2.913e-08   |Residual|: 6.568e-05   |deigs|: 3.384e-06  t[s]:   5554.53
	FillingsUpdate:  mu: +0.372285695  nElectrons: 930.000000
SCF: Cycle: 13   F: -8865.007137697873986   dF: -1.013e-08   |Residual|: 2.570e-05   |deigs|: 2.090e-06  t[s]:   5700.17
	FillingsUpdate:  mu: +0.372285410  nElectrons: 930.000000
SCF: Cycle: 14   F: -8865.007137699456507   dF: -1.583e-09   |Residual|: 1.269e-05   |deigs|: 8.761e-07  t[s]:   5848.63
	FillingsUpdate:  mu: +0.372285387  nElectrons: 930.000000
SCF: Cycle: 15   F: -8865.007137699731175   dF: -2.747e-10   |Residual|: 6.557e-06   |deigs|: 3.287e-07  t[s]:   5995.94
SCF: Converged (|Delta E|<1.000000e-08 for 2 iters).

Setting wave functions to eigenvectors of Hamiltonian

# Ionic positions in lattice coordinates:
ion Zn   0.210739058855478   0.097987120899559   0.254520609031485 1
ion Zn   0.095760608514888   0.223932152019049   0.000962473604745 1
ion Zn   0.234003517360555   0.124980240088813   0.756456592731042 1
ion Zn   0.102545971289109   0.240570757227763   0.497227687212015 1
ion Zn   0.235506234793894   0.451084799581646   0.252922975734034 1
ion Zn   0.108977194636811   0.555554675561887  -0.003908426891050 1
ion Zn   0.226891279618831   0.444861820812420   0.747743952095621 1
ion Zn   0.130590892149304   0.559708226950614   0.476608291176958 1
ion Zn   0.234265182989608   0.793426032552225   0.244921974274373 1
ion Zn   0.112010222314911   0.901709011077145   0.000444398352760 1
ion Zn   0.212587068110547   0.770803450130508   0.748137645073676 1
ion Zn   0.121369191167062   0.884805965928731   0.520759571644619 1
ion Zn   0.561412681573317   0.117224301448497   0.269126311401679 1
ion Zn   0.441152157812646   0.221299234735221  -0.000514423035003 1
ion Zn   0.564033885420655   0.106342976900038   0.741413808325091 1
ion Zn   0.444305784862273   0.226575652032841   0.507069736008889 1
ion Zn   0.559729169645980   0.428581936002223   0.243582113146378 1
ion Zn   0.445358492151111   0.548432006318493  -0.003263371850023 1
ion Zn   0.564670383531749   0.462482238878110   0.741694609040004 1
ion Zn   0.446411941827782   0.562105659414582   0.510163925619125 1
ion Zn   0.545686755745859   0.772466032204561   0.238907675824709 1
ion Zn   0.431269761682207   0.914563654169528  -0.014544459247327 1
ion Zn   0.533942890354542   0.763446041805378   0.746835935426337 1
ion Zn   0.446039277332155   0.895524091601451   0.498520407434366 1
ion Zn   0.885755663157268   0.112988714049195   0.255330492163326 1
ion Zn   0.784809868845103   0.221867686637165   0.012717152874141 1
ion Zn   0.876782698851761   0.115688378170302   0.743107195938206 1
ion Zn   0.794154185038638   0.231634067281852   0.493251638541624 1
ion Zn   0.879105699307307   0.446127652241153   0.250874874500081 1
ion Zn   0.784409133401875   0.550881893807758  -0.000355847839229 1
ion Zn   0.895337523141847   0.450132719739533   0.749800253566373 1
ion Zn   0.770508332883398   0.561689438963838   0.511052329923077 1
ion Zn   0.878933113876100   0.779359816705855   0.237055737459377 1
ion Zn   0.764701638999691   0.889407997694597   0.001477772238799 1
ion Zn   0.884186128068627   0.772650066195257   0.754116532358201 1
ion Zn   0.784994521298637   0.888052637868748   0.493975201031157 1
ion O   0.227597898303884   0.102136934703354   0.454575626108472 1
ion O   0.107282682784875   0.229099706012562   0.187727236643948 1
ion O   0.220819902430885   0.100767712369631   0.938038724615921 1
ion O   0.119905893196979   0.220732509186973   0.686779630395546 1
ion O   0.212860566910611   0.442480761789882   0.444274581280998 1
ion O   0.096713586649580   0.565875518623992   0.184087939313047 1
ion O   0.217460064901523   0.438924552562825   0.941576273430596 1
ion O   0.101151698489120   0.536130373016894   0.695350989468144 1
ion O   0.222145053429725   0.779363313876675   0.453802231515098 1
ion O   0.114314054404687   0.896178609705724   0.193521053336173 1
ion O   0.216811853925368   0.780132667875919   0.951503168080930 1
ion O   0.115148852303649   0.882544455462219   0.697037994241045 1
ion O   0.567956275932174   0.106187994013212   0.447531816148782 1
ion O   0.447036957496601   0.216102176238021   0.195319765267662 1
ion O   0.562090966954659   0.113774270256898   0.919121209874420 1
ion O   0.453979227026058   0.222683109109620   0.675160100180945 1
ion O   0.557186072938919   0.435471179779394   0.435782028869738 1
ion O   0.450101627069770   0.554679069094570   0.194832420361248 1
ion O   0.566100707312851   0.446092602466879   0.939234005466126 1
ion O   0.437549147520966   0.547625536398492   0.679569609774823 1
ion O   0.563374546813112   0.790994540078094   0.443510848812618 1
ion O   0.444196121454974   0.884946662547618   0.198645113587815 1
ion O   0.550974867287358   0.779113558196015   0.936517201738842 1
ion O   0.450870251064330   0.884596954650273   0.676777587187146 1
ion O   0.902943920518133   0.112294955004078   0.441289278531731 1
ion O   0.763611260736859   0.212343501332190   0.193779291379184 1
ion O   0.879261882593368   0.111945113030568   0.931958332923646 1
ion O   0.777983608806700   0.225914498712970   0.686262581759353 1
ion O   0.884247286741001   0.436996707498153   0.425504428562723 1
ion O   0.785226308293192   0.563331727710704   0.185311760626612 1
ion O   0.890889294915684   0.464328950203221   0.929258891262138 1
ion O   0.773354114896375   0.567846632335416   0.692615084796446 1
ion O   0.891781319031429   0.765859880343754   0.432058828777239 1
ion O   0.773237380769668   0.887244582879614   0.184139251842767 1
ion O   0.779306635483404   0.890289535237061   0.694781768948447 1

# Forces in Lattice coordinates:
force Zn   0.003516921260697   0.604862123819389   0.498283527862854 1
force Zn   0.202830827686178  -0.264038449249497  -0.031056402235046 1
force Zn   0.139905247383545  -0.205851678273874  -0.418060411407165 1
force Zn   0.863875321346430  -0.997185238855691   0.612991257500079 1
force Zn  -0.362517700655018   0.119907000852494  -0.213970244725809 1
force Zn   0.050851888898219  -0.018025832378205   0.183220636185323 1
force Zn  -0.214870129237145  -0.177924812468277   0.196628587835802 1
force Zn  -1.370663312689013   1.159827119521832   0.502898129706310 1
force Zn  -0.404229400065741  -0.156018025099893   0.229258151471211 1
force Zn  -0.225418119871414  -0.583419321651552   0.261380723278762 1
force Zn   0.506776158520685  -0.484039976234538   0.157706164378982 1
force Zn  -0.494284460453684   0.381278275588720  -0.643088528453703 1
force Zn  -0.261861483625509  -0.186471164642576  -0.192551638278545 1
force Zn   0.185583165184013  -0.051466557775342   0.043187700147596 1
force Zn  -0.311716999815630   0.136427754387400  -0.425926024876450 1
force Zn   0.091651552107244  -0.184399435357458  -0.992963064279742 1
force Zn  -0.113779418290843   0.492900774584555   0.270424839176408 1
force Zn  -0.081854613509235   0.199567366840395   0.118969642880582 1
force Zn  -0.166711811237391  -0.534723364419754   0.393216450444349 1
force Zn   0.213202333717369   0.000832321993002  -1.334378734250706 1
force Zn   0.286724652318640  -0.074565882636048   0.412081364409191 1
force Zn   0.497423114007370  -0.621573034364939   0.417334688211167 1
force Zn   0.436858988018880   0.048483474531426   0.194438214020939 1
force Zn   0.056566781977502  -0.231956870673940  -0.255809362948617 1
force Zn   0.082166302273023  -0.107317263736954  -0.138045737122853 1
force Zn  -0.318090630340770   0.258153106008777  -0.372822980578229 1
force Zn   0.558631711236245  -0.468136280011246   0.025639354280450 1
force Zn  -0.155392031877149  -0.106158849150486   0.232816399750718 1
force Zn   0.229376343588918  -0.108450863999515  -0.365431994333640 1
force Zn  -0.548872229458162   0.721298369518685   0.224318867107725 1
force Zn  -0.435539742415273  -0.016922330412481  -0.212036614794723 1
force Zn   0.215650522924768  -0.256894970702767  -0.572915188213678 1
force Zn   0.385242979010989  -0.169289272430656   0.406214559493151 1
force Zn   0.178495843422347  -0.092914892653937  -0.337108092513574 1
force Zn   0.005495686863353   0.603777062856571   0.340113668763857 1
force Zn   0.125855624571415  -0.184565949187370   0.211566849825983 1
force O  -0.397409018030379   0.299928527290833  -0.507369566521122 1
force O   0.135597240743394  -0.151204966286706   0.176814839333410 1
force O  -0.122041645318274   0.776149439952454   0.016733083604313 1
force O  -0.332804235128306   0.212066938334583   0.068704051767915 1
force O   1.254102795425001  -0.545357073885993  -0.627042476490307 1
force O   0.476492008436314  -0.327356539153962   0.191461948592206 1
force O   0.138530015039823   0.100500628110345  -0.122026625537042 1
force O   0.334551061996512   0.370903543857742  -0.380118738539724 1
force O   0.205489017282862  -0.195342281923508  -0.511189160609304 1
force O  -0.138947687005261  -0.357049817105597  -0.352724406352112 1
force O  -0.120370946510695  -0.003376889924473  -0.413924042150821 1
force O  -0.470989004138357   0.456067502316406   0.497703787978253 1
force O  -0.144351903002681   0.455666626757385   0.077635355899814 1
force O  -0.227131368590002  -0.163359716763276  -0.389016209690747 1
force O  -0.032266448955488   0.418577407419634   0.732053083041104 1
force O  -0.043330310434178   0.124671217791956   1.506617020560108 1
force O  -0.222230646399622   0.433718983461727  -0.025941922601281 1
force O   0.119185751962213  -0.266879536559902  -0.276434341887957 1
force O  -0.284391191747367   0.042692683721298  -0.144473554334961 1
force O   0.045924624563806   0.016928997853643   0.876006620349905 1
force O   0.088043467784201  -0.453583497817845  -0.248568522282457 1
force O  -0.034961035474149   0.498154266934166  -0.454682925801332 1
force O  -0.208627294435080  -0.052882553239996   0.024789105645548 1
force O  -0.453670709020485   0.199377547965162   0.670693298067192 1
force O  -0.559366737575648  -0.066384750410102  -0.249926464567471 1
force O   0.347486940450133   0.074665123681015  -0.165031336837245 1
force O   0.154830170880773  -0.107389455267213   0.154684351720564 1
force O   0.000462659706935   0.319396117564031  -0.290977122345056 1
force O   0.093941459442911   0.299760177262153   0.759441283969490 1
force O  -0.315988564372023  -0.038596385920536  -0.167155762338930 1
force O   0.614872958510892  -0.854521475669672   0.180006024505466 1
force O   0.589557332684918  -0.571591364169561  -0.102623140276971 1
force O  -0.093700994520338   0.355840973170217   0.082029097964799 1
force O  -0.188601771424384   0.347595205870505   0.141769679380194 1
force O  -0.058528485744861  -0.093466250863791  -0.155487713294059 1

# Energy components:
   Eewald =    -4525.4015047948141728
       EH =     3836.3500466044442874
     Eloc =    -8627.9282889528985834
      Enl =      344.1460893745817202
      Exc =     -879.0487086365881169
 Exc_core =        2.2012844174981216
       KE =      984.6931236736114670
-------------------------------------
     Etot =    -8864.9879583141646435
       TS =        0.0191793855672628
-------------------------------------
        F =    -8865.0071376997311745

IonicMinimize: Iter:   1  F: -8865.007137699731175  |grad|_K:  2.065e-02  alpha:  6.398e-01  linmin: -9.746e-01  t[s]:   6035.86

#--- Lowdin population analysis ---
# oxidation-state Zn +0.591 +0.594 +0.605 +0.608 +0.603 +0.592 +0.583 +0.611 +0.599 +0.495 +0.596 +0.591 +0.590 +0.585 +0.604 +0.581 +0.594 +0.587 +0.609 +0.612 +0.594 +0.594 +0.588 +0.590 +0.602 +0.600 +0.598 +0.592 +0.583 +0.513 +0.606 +0.590 +0.590 +0.511 +0.498 +0.585
# oxidation-state O -0.584 -0.579 -0.582 -0.585 -0.586 -0.581 -0.579 -0.586 -0.584 -0.584 -0.579 -0.585 -0.589 -0.577 -0.577 -0.587 -0.581 -0.581 -0.578 -0.584 -0.581 -0.586 -0.579 -0.584 -0.583 -0.579 -0.578 -0.587 -0.586 -0.584 -0.585 -0.585 -0.579 -0.583 -0.579


-------- Electronic minimization -----------
Will mix electronic density at each iteration.
	FillingsUpdate:  mu: +0.372285387  nElectrons: 930.000000
	FillingsUpdate:  mu: +0.365202473  nElectrons: 930.000000
SCF: Cycle:  0   F: -8864.120850286108180   dF: -2.172e+00   |Residual|: 8.200e-01   |deigs|: 4.359e-03  t[s]:   6381.37
	FillingsUpdate:  mu: +0.365942007  nElectrons: 930.000000
SCF: Cycle:  1   F: -8864.894295332582260   dF: -7.734e-01   |Residual|: 4.183e-01   |deigs|: 1.082e-02  t[s]:   6631.82
	FillingsUpdate:  mu: +0.369584462  nElectrons: 930.000000
SCF: Cycle:  2   F: -8865.034179693731858   dF: -1.399e-01   |Residual|: 1.759e-01   |deigs|: 3.456e-03  t[s]:   6886.23
	FillingsUpdate:  mu: +0.370743747  nElectrons: 930.000000
SCF: Cycle:  3   F: -8865.102061103585584   dF: -6.788e-02   |Residual|: 4.746e-02   |deigs|: 2.258e-03  t[s]:   7133.82
	FillingsUpdate:  mu: +0.370665955  nElectrons: 930.000000
SCF: Cycle:  4   F: -8865.105985396658070   dF: -3.924e-03   |Residual|: 2.489e-02   |deigs|: 8.799e-04  t[s]:   7277.85
	FillingsUpdate:  mu: +0.370815444  nElectrons: 930.000000
SCF: Cycle:  5   F: -8865.107929937659719   dF: -1.945e-03   |Residual|: 1.145e-02   |deigs|: 5.043e-04  t[s]:   7426.91
	FillingsUpdate:  mu: +0.371001046  nElectrons: 930.000000
SCF: Cycle:  6   F: -8865.108748152988483   dF: -8.182e-04   |Residual|: 6.840e-03   |deigs|: 3.916e-04  t[s]:   7572.87
	FillingsUpdate:  mu: +0.370960074  nElectrons: 930.000000
SCF: Cycle:  7   F: -8865.108877841861613   dF: -1.297e-04   |Residual|: 3.018e-03   |deigs|: 1.956e-04  t[s]:   7727.20
	FillingsUpdate:  mu: +0.370994432  nElectrons: 930.000000
SCF: Cycle:  8   F: -8865.108930545922703   dF: -5.270e-05   |Residual|: 1.313e-03   |deigs|: 1.207e-04  t[s]:   7874.52
	FillingsUpdate:  mu: +0.371004455  nElectrons: 930.000000
SCF: Cycle:  9   F: -8865.108937964190773   dF: -7.418e-06   |Residual|: 8.698e-04   |deigs|: 5.658e-05  t[s]:   8023.42
	FillingsUpdate:  mu: +0.371007357  nElectrons: 930.000000
SCF: Cycle: 10   F: -8865.108940171727227   dF: -2.208e-06   |Residual|: 2.887e-04   |deigs|: 2.828e-05  t[s]:   8170.31
	FillingsUpdate:  mu: +0.371007422  nElectrons: 930.000000
SCF: Cycle: 11   F: -8865.108940480804449   dF: -3.091e-07   |Residual|: 1.645e-04   |deigs|: 1.086e-05  t[s]:   8323.16
	FillingsUpdate:  mu: +0.371007686  nElectrons: 930.000000
SCF: Cycle: 12   F: -8865.108940549691397   dF: -6.889e-08   |Residual|: 9.946e-05   |deigs|: 5.311e-06  t[s]:   8467.74
	FillingsUpdate:  mu: +0.371006899  nElectrons: 930.000000
SCF: Cycle: 13   F: -8865.108940574571534   dF: -2.488e-08   |Residual|: 3.680e-05   |deigs|: 3.377e-06  t[s]:   8612.89
	FillingsUpdate:  mu: +0.371006480  nElectrons: 930.000000
SCF: Cycle: 14   F: -8865.108940578467809   dF: -3.896e-09   |Residual|: 1.927e-05   |deigs|: 1.326e-06  t[s]:   8757.67
	FillingsUpdate:  mu: +0.371006461  nElectrons: 930.000000
SCF: Cycle: 15   F: -8865.108940579184491   dF: -7.167e-10   |Residual|: 9.101e-06   |deigs|: 6.079e-07  t[s]:   8902.16
SCF: Converged (|Delta E|<1.000000e-08 for 2 iters).

Setting wave functions to eigenvectors of Hamiltonian

# Ionic positions in lattice coordinates:
ion Zn   0.212379585374194   0.101244574488455   0.256282597515059 1
ion Zn   0.096310026481018   0.222960213808825   0.000828427283040 1
ion Zn   0.234201348455829   0.124098652951315   0.754832048712750 1
ion Zn   0.104451429263591   0.236952586718197   0.499523691824354 1
ion Zn   0.233620994252267   0.450729954549315   0.252066055533234 1
ion Zn   0.109258680487380   0.555580847032789  -0.003199858664305 1
ion Zn   0.225054424588403   0.443138968661404   0.748521461236445 1
ion Zn   0.126669624475141   0.559979311459277   0.478267426825020 1
ion Zn   0.231555518918265   0.791290468592561   0.245775262367577 1
ion Zn   0.109165982374726   0.898142126233856   0.001188118695711 1
ion Zn   0.214121600936924   0.769537343269743   0.748715526681233 1
ion Zn   0.119469269460382   0.885539944525446   0.518437657410806 1
ion Zn   0.559365769817529   0.115317163083067   0.268198555263577 1
ion Zn   0.442145160661340   0.221532297190294  -0.000367741266674 1
ion Zn   0.562599569037756   0.106282632820540   0.739973092820466 1
ion Zn   0.444441589750558   0.225646770606940   0.504624636562956 1
ion Zn   0.560349433477430   0.431001686665372   0.244576437206439 1
ion Zn   0.445456305144319   0.549399781389565  -0.002796251739760 1
ion Zn   0.562266713543732   0.458746819646857   0.743213089443807 1
ion Zn   0.447583925300469   0.562589914106706   0.505950595548589 1
ion Zn   0.547138227744175   0.772893421230801   0.240529050191230 1
ion Zn   0.432516981746691   0.912326515301996  -0.012873059505352 1
ion Zn   0.536798738504118   0.765057527217754   0.747569656114930 1
ion Zn   0.445805856384776   0.894333838310612   0.497656937650299 1
ion Zn   0.885948223837824   0.112593902881434   0.254745513705097 1
ion Zn   0.783620994551997   0.222524413351995   0.011150702573543 1
ion Zn   0.878724065325231   0.114666092363532   0.743180150007369 1
ion Zn   0.792970557989336   0.230544711873634   0.494182325843757 1
ion Zn   0.880190805369138   0.446084110849970   0.249629746631304 1
ion Zn   0.783608449761738   0.553408857055501   0.000137729742442 1
ion Zn   0.892880343984699   0.448854800162850   0.748864537581633 1
ion Zn   0.771100757287445   0.560760171944871   0.508877193319232 1
ion Zn   0.880718555754132   0.779577002368720   0.238642233193462 1
ion Zn   0.765515548718149   0.889347478334268   0.000152348251547 1
ion Zn   0.885899005914183   0.776038077625805   0.755441976927587 1
ion Zn   0.785157350094832   0.887295080554517   0.494846514448897 1
ion O   0.226065023822858   0.102774929979573   0.452571151820357 1
ion O   0.107654726428226   0.228533973377100   0.188414279200473 1
ion O   0.221983826596485   0.104445524127418   0.938377855944364 1
ion O   0.118430850340523   0.220909144139572   0.687083939567506 1
ion O   0.217605969606473   0.444939569300567   0.442278796334559 1
ion O   0.098686762482530   0.565299779110379   0.184908313040256 1
ion O   0.218579003004973   0.439930997777647   0.941140065176324 1
ion O   0.104048853415185   0.539385020904897   0.693813996925350 1
ion O   0.222945495097792   0.779338745460832   0.451710192309888 1
ion O   0.112596179595288   0.894109400493792   0.192308141922333 1
ion O   0.216132430988533   0.779785981448590   0.949814861646767 1
ion O   0.113808062616565   0.883808870490847   0.698772720792874 1
ion O   0.568270849851689   0.108433174838837   0.447890259321442 1
ion O   0.445265188281772   0.214665373815036   0.193876594852172 1
ion O   0.563119670187228   0.116130368662397   0.921902586722831 1
ion O   0.453964727961305   0.223411633329631   0.679547884737640 1
ion O   0.557151917676881   0.437476610392133   0.435694830033881 1
ion O   0.450026422568874   0.553487039275274   0.193725978283531 1
ion O   0.564531917568936   0.445526580942812   0.938698020662530 1
ion O   0.437979020139008   0.548039142076290   0.681959127453264 1
ion O   0.562540218786654   0.788515724645047   0.442503379152549 1
ion O   0.445313159723688   0.887733311195390   0.196869751318495 1
ion O   0.549568314744788   0.778206853465567   0.936679557869058 1
ion O   0.448634405559124   0.884411304535673   0.679280009747788 1
ion O   0.899729160391249   0.110496779204430   0.440437847536043 1
ion O   0.765865074740981   0.213884090746046   0.193226667864072 1
ion O   0.879878687048916   0.111737108541104   0.932556612866407 1
ion O   0.779004814844757   0.227669253240025   0.685184896721969 1
ion O   0.885805132636295   0.439232908332737   0.428307487408117 1
ion O   0.783193970463450   0.562146873128605   0.184755759869497 1
ion O   0.891618357106943   0.461150022130290   0.930302825723615 1
ion O   0.775169437341595   0.566310062056566   0.692277429928613 1
ion O   0.892340236270618   0.767786837702286   0.432395210373713 1
ion O   0.773216695943349   0.888710008430104   0.184694374506920 1
ion O   0.778624021396751   0.889538943473719   0.694124206427502 1

# Forces in Lattice coordinates:
force Zn   0.003740728779238   0.378339945398704   0.287909159009497 1
force Zn   0.229495264857462  -0.236935378302690  -0.027295044581437 1
force Zn   0.098811323303163  -0.196493564926481  -0.286639508703534 1
force Zn   0.652035477173820  -0.680907543460052   0.332561578142906 1
force Zn  -0.314439613887838   0.121582856600097  -0.203411690203291 1
force Zn   0.057062655115946  -0.023760573622870   0.140024969675531 1
force Zn  -0.164904236447516  -0.110175242018282   0.153851938940370 1
force Zn  -0.956810081900592   0.639890461489259   0.459708516302605 1
force Zn  -0.241220588872199  -0.148340623819976   0.183953142352730 1
force Zn  -0.200002288199684  -0.311540536537783   0.084975024167274 1
force Zn   0.332639837803516  -0.297103647993751   0.103360836322387 1
force Zn  -0.389280103030188   0.251663883289382  -0.422613042063780 1
force Zn  -0.163491091950259  -0.158556590663258  -0.239451111839266 1
force Zn   0.157512189475444  -0.054844523610230   0.029351422010741 1
force Zn  -0.223624306564584   0.120712528509451  -0.204825532075446 1
force Zn   0.118548497354897  -0.170629065954252  -0.501123300159055 1
force Zn  -0.131969558901247   0.332002886971573   0.183590879973186 1
force Zn  -0.070030209371258   0.161894649578578   0.098424410131011 1
force Zn  -0.039312932019438  -0.445325077820261   0.294123219441945 1
force Zn   0.169172543701919  -0.045309096261072  -0.774881293446494 1
force Zn   0.184458814994631  -0.032232241371144   0.328739449885468 1
force Zn   0.448637645446890  -0.519994413819269   0.361266304885709 1
force Zn   0.370500088541448   0.026636105119367   0.126161782452622 1
force Zn   0.092266506118230  -0.198252530255370  -0.129177029451146 1
force Zn   0.069918179743919  -0.082706453275462  -0.139698385243005 1
force Zn  -0.284812522506861   0.248878609448752  -0.346674965666871 1
force Zn   0.402453275687549  -0.311109744291901   0.018927302648926 1
force Zn  -0.096310109791834  -0.067569795797793   0.170128227710716 1
force Zn   0.205446328776478  -0.120334437816433  -0.192938196493763 1
force Zn  -0.319921932497586   0.491020266775276   0.001598761169037 1
force Zn  -0.265960970055822   0.016191416488780  -0.178681916697858 1
force Zn   0.227281188911974  -0.239788399764972  -0.414018662904063 1
force Zn   0.266942017828011  -0.097928315576207   0.316972439969614 1
force Zn   0.167140806143905  -0.107904736952843  -0.258521757330090 1
force Zn   0.004294605061766   0.369665177996143   0.284972799127203 1
force Zn   0.073113024064938  -0.143479674551282   0.187797029827067 1
force O  -0.335378806209371   0.293270060961899  -0.390667007498108 1
force O   0.128396046872105  -0.147876419806027   0.139094862658635 1
force O  -0.155565147187172   0.504123315267075   0.085575131442001 1
force O  -0.276941518144015   0.133065263018620   0.083965199334281 1
force O   0.818279553644416  -0.410600514180166  -0.397638735857110 1
force O   0.440450401015331  -0.316048558214210   0.186784232558029 1
force O   0.098677219126332   0.070554221444260  -0.072528427805306 1
force O   0.160296223199583   0.331277826712914  -0.320184975565378 1
force O   0.107288327447121  -0.043470594201630  -0.455076265050709 1
force O  -0.126362260613540  -0.138577883693358  -0.210001939370387 1
force O  -0.069400452618668   0.007744370975876  -0.364372330943076 1
force O  -0.291320673197919   0.309669759686499   0.275829942375652 1
force O  -0.200710885918355   0.371406477238218   0.068559270115001 1
force O  -0.190403630782757  -0.042103347069380  -0.256248238113715 1
force O  -0.039450036334523   0.290925073321573   0.520987736534135 1
force O  -0.088774831650459   0.145797163147475   0.853700338169204 1
force O  -0.200568410505302   0.340181014732112   0.002455016771232 1
force O   0.059233443822326  -0.162135942435627  -0.226198916600029 1
force O  -0.220117492418267   0.050874953570209  -0.098952107728477 1
force O   0.041599638359091   0.043068317124696   0.426905501211440 1
force O   0.077331273221250  -0.343246782937630  -0.221279645484479 1
force O  -0.061888669997209   0.350014745071743  -0.371631563414249 1
force O  -0.165990603384150  -0.014262697149236   0.060735685922703 1
force O  -0.381606384254408   0.162320617089520   0.473802692733440 1
force O  -0.353702936304882   0.000403038370872  -0.131992190012113 1
force O   0.233168685775494   0.096421315568863  -0.087574485868338 1
force O   0.131090127752535  -0.097630654944854   0.113302504743088 1
force O   0.052795636375325   0.137059742157244  -0.177038778669819 1
force O   0.061153889673227   0.270130946925341   0.519414490294960 1
force O  -0.235483846997284  -0.028367473368216  -0.074131040419992 1
force O   0.346334573723122  -0.603476656909118   0.246135560515190 1
force O   0.404795629942504  -0.373115540490038  -0.056146899952163 1
force O  -0.069760258175199   0.299030497661489   0.085126634106446 1
force O  -0.094594249786850   0.216274294004007   0.095440307043940 1
force O  -0.072204053997500  -0.060505666623813  -0.153638522999226 1

# Energy components:
   Eewald =    -4534.2491796630547469
       EH =     3828.3704236485305046
     Eloc =    -8610.9372635559193441
      Enl =      344.0830315567989146
      Exc =     -878.9619039162653280
 Exc_core =        2.2012822968874746
       KE =      984.4024171811912538
-------------------------------------
     Etot =    -8865.0911924518313754
       TS =        0.0177481273523727
-------------------------------------
        F =    -8865.1089405791844911

IonicMinimize: Iter:   2  F: -8865.108940579184491  |grad|_K:  1.415e-02  alpha:  4.273e-01  linmin: -9.833e-01  t[s]:   8942.40

#--- Lowdin population analysis ---
# oxidation-state Zn +0.593 +0.594 +0.604 +0.605 +0.600 +0.592 +0.584 +0.607 +0.597 +0.492 +0.595 +0.591 +0.587 +0.586 +0.603 +0.584 +0.594 +0.589 +0.604 +0.608 +0.593 +0.593 +0.589 +0.591 +0.599 +0.598 +0.599 +0.593 +0.585 +0.508 +0.603 +0.590 +0.589 +0.507 +0.494 +0.587
# oxidation-state O -0.583 -0.579 -0.581 -0.585 -0.584 -0.581 -0.580 -0.585 -0.584 -0.583 -0.579 -0.583 -0.587 -0.578 -0.577 -0.586 -0.580 -0.581 -0.579 -0.583 -0.581 -0.583 -0.579 -0.584 -0.582 -0.579 -0.579 -0.586 -0.584 -0.584 -0.583 -0.583 -0.579 -0.583 -0.578


-------- Electronic minimization -----------
Will mix electronic density at each iteration.
	FillingsUpdate:  mu: +0.371006461  nElectrons: 930.000000
	FillingsUpdate:  mu: +0.363938532  nElectrons: 930.000000
SCF: Cycle:  0   F: -8864.298820212865394   dF: -2.049e+00   |Residual|: 7.859e-01   |deigs|: 3.983e-03  t[s]:   9285.04
	FillingsUpdate:  mu: +0.363767375  nElectrons: 930.000000
SCF: Cycle:  1   F: -8864.986869228083378   dF: -6.880e-01   |Residual|: 3.980e-01   |deigs|: 1.150e-02  t[s]:   9533.38
	FillingsUpdate:  mu: +0.367540410  nElectrons: 930.000000
SCF: Cycle:  2   F: -8865.111211422525230   dF: -1.243e-01   |Residual|: 1.690e-01   |deigs|: 3.207e-03  t[s]:   9781.63
	FillingsUpdate:  mu: +0.368986814  nElectrons: 930.000000
SCF: Cycle:  3   F: -8865.171309963547174   dF: -6.010e-02   |Residual|: 4.585e-02   |deigs|: 2.426e-03  t[s]:  10028.05
	FillingsUpdate:  mu: +0.369008444  nElectrons: 930.000000
SCF: Cycle:  4   F: -8865.174269235512838   dF: -2.959e-03   |Residual|: 2.393e-02   |deigs|: 9.286e-04  t[s]:  10173.43
	FillingsUpdate:  mu: +0.369179948  nElectrons: 930.000000
SCF: Cycle:  5   F: -8865.175821610970161   dF: -1.552e-03   |Residual|: 1.046e-02   |deigs|: 4.679e-04  t[s]:  10318.58
	FillingsUpdate:  mu: +0.369371810  nElectrons: 930.000000
SCF: Cycle:  6   F: -8865.176422581318548   dF: -6.010e-04   |Residual|: 5.758e-03   |deigs|: 4.066e-04  t[s]:  10466.21
	FillingsUpdate:  mu: +0.369352474  nElectrons: 930.000000
SCF: Cycle:  7   F: -8865.176518609450795   dF: -9.603e-05   |Residual|: 2.731e-03   |deigs|: 1.733e-04  t[s]:  10613.49
	FillingsUpdate:  mu: +0.369394062  nElectrons: 930.000000
SCF: Cycle:  8   F: -8865.176549795442043   dF: -3.119e-05   |Residual|: 1.111e-03   |deigs|: 9.520e-05  t[s]:  10760.45
	FillingsUpdate:  mu: +0.369407542  nElectrons: 930.000000
SCF: Cycle:  9   F: -8865.176555337860918   dF: -5.542e-06   |Residual|: 6.999e-04   |deigs|: 4.881e-05  t[s]:  10911.15
	FillingsUpdate:  mu: +0.369411178  nElectrons: 930.000000
SCF: Cycle: 10   F: -8865.176556996879299   dF: -1.659e-06   |Residual|: 2.475e-04   |deigs|: 2.433e-05  t[s]:  11056.92
	FillingsUpdate:  mu: +0.369411972  nElectrons: 930.000000
SCF: Cycle: 11   F: -8865.176557292326834   dF: -2.954e-07   |Residual|: 1.443e-04   |deigs|: 1.011e-05  t[s]:  11200.67
	FillingsUpdate:  mu: +0.369412379  nElectrons: 930.000000
SCF: Cycle: 12   F: -8865.176557365273766   dF: -7.295e-08   |Residual|: 8.619e-05   |deigs|: 5.872e-06  t[s]:  11347.00
	FillingsUpdate:  mu: +0.369411863  nElectrons: 930.000000
SCF: Cycle: 13   F: -8865.176557389184381   dF: -2.391e-08   |Residual|: 3.351e-05   |deigs|: 3.056e-06  t[s]:  11495.76
	FillingsUpdate:  mu: +0.369411624  nElectrons: 930.000000
SCF: Cycle: 14   F: -8865.176557392789618   dF: -3.605e-09   |Residual|: 2.081e-05   |deigs|: 1.340e-06  t[s]:  11643.04
	FillingsUpdate:  mu: +0.369411636  nElectrons: 930.000000
SCF: Cycle: 15   F: -8865.176557393675466   dF: -8.858e-10   |Residual|: 9.455e-06   |deigs|: 6.450e-07  t[s]:  11792.86
SCF: Converged (|Delta E|<1.000000e-08 for 2 iters).

Setting wave functions to eigenvectors of Hamiltonian

# Ionic positions in lattice coordinates:
ion Zn   0.213643822977070   0.103720578342122   0.257385900010212 1
ion Zn   0.097636830994323   0.221958819348385   0.000661032739325 1
ion Zn   0.234026827819143   0.122582495015996   0.753417662539345 1
ion Zn   0.107104206217889   0.234362879565176   0.500740061352830 1
ion Zn   0.231343306786180   0.450508154119875   0.250802281238660 1
ion Zn   0.109728784325365   0.555606631419226  -0.002447822089481 1
ion Zn   0.223292853636885   0.441686750192767   0.749369898507633 1
ion Zn   0.121563908701949   0.558891953281166   0.480899255118498 1
ion Zn   0.229341904159022   0.789089326734611   0.246782047648463 1
ion Zn   0.106568557049613   0.895737480254644   0.001067128496788 1
ion Zn   0.215516204303056   0.768781187798893   0.749187995597707 1
ion Zn   0.117051832820176   0.885704993637960   0.516515738308281 1
ion Zn   0.557560096111113   0.113331688936842   0.266462690913655 1
ion Zn   0.443290828632655   0.221677648916710  -0.000234198377176 1
ion Zn   0.561393075046650   0.106527129418937   0.739444566847343 1
ion Zn   0.444987377689070   0.224642114221643   0.503602258598050 1
ion Zn   0.560141369137130   0.432713813646499   0.245447484297472 1
ion Zn   0.445525636996807   0.550496464716595  -0.002234865814933 1
ion Zn   0.560605910502782   0.454912850636711   0.744766779491286 1
ion Zn   0.448649133572845   0.562581483854079   0.503196591756105 1
ion Zn   0.548381556502537   0.773444178760718   0.242362271903865 1
ion Zn   0.434424311836537   0.909803167778425  -0.010738917847583 1
ion Zn   0.540222546926146   0.766871921871753   0.748150345128089 1
ion Zn   0.446040410111207   0.893105464958975   0.497282947868102 1
ion Zn   0.886236976170784   0.112215584600596   0.253836218716967 1
ion Zn   0.782165312311977   0.223625246215254   0.008986521145993 1
ion Zn   0.880767170160569   0.114013227946254   0.743266695038828 1
ion Zn   0.792097723948640   0.229739325463506   0.495079626973240 1
ion Zn   0.881484100547563   0.445763985756559   0.249011877644371 1
ion Zn   0.783565271115962   0.556025676032095  -0.000698039754303 1
ion Zn   0.891327492594029   0.448324430896989   0.747784595187047 1
ion Zn   0.772273248103575   0.559620866848974   0.506765641084137 1
ion Zn   0.882451188195609   0.780016243429032   0.240377846326169 1
ion Zn   0.766541342112042   0.888996530597982  -0.001250374021478 1
ion Zn   0.887132133516273   0.778455392725740   0.757076020432191 1
ion Zn   0.785003402540108   0.886308415387151   0.495982912062457 1
ion O   0.224475296114837   0.104125936783255   0.450440880619716 1
ion O   0.108165422601221   0.227686703189697   0.189178452841453 1
ion O   0.221935336603037   0.106973555849991   0.939252808891073 1
ion O   0.116402688289721   0.220574098265326   0.687676776485624 1
ion O   0.221334348971951   0.445465039179022   0.440665156223075 1
ion O   0.101343227787599   0.564315697776650   0.186108357440662 1
ion O   0.219623773726681   0.440862467430124   0.940848601951157 1
ion O   0.106220767203532   0.542818676535220   0.691945430980362 1
ion O   0.223748134841985   0.780163717291001   0.448957680522677 1
ion O   0.111342165142963   0.893415315668842   0.191485264055525 1
ion O   0.215780803967149   0.779709312554874   0.947627013678006 1
ion O   0.113026520145600   0.885117187210620   0.699753576633862 1
ion O   0.567580672695989   0.110527107157480   0.448322038186634 1
ion O   0.443694052128217   0.214080147466969   0.192690173306968 1
ion O   0.563807919859883   0.118137289958159   0.924526413297595 1
ion O   0.453588016408213   0.224444353704966   0.682286041904665 1
ion O   0.556737712675836   0.439463765764042   0.435801685569522 1
ion O   0.449783417041362   0.552566581728015   0.192434253397017 1
ion O   0.562956236269706   0.445151347821259   0.938222031220645 1
ion O   0.438683418891974   0.548854529254848   0.682828504190426 1
ion O   0.561826615759529   0.786024318607367   0.441169491063550 1
ion O   0.445868609974745   0.890047750919357   0.194770096534654 1
ion O   0.548170313900752   0.777554113222853   0.937201368969974 1
ion O   0.445902339820147   0.884119241585214   0.681629630991969 1
ion O   0.897552526591899   0.109694291859399   0.440014924862386 1
ion O   0.768101653177992   0.215819193675045   0.192947958624051 1
ion O   0.880597711307737   0.111401494002098   0.933145785014343 1
ion O   0.780035398778650   0.228461722836781   0.684434441456686 1
ion O   0.887541160087605   0.442023035887854   0.430794705432288 1
ion O   0.781148300956460   0.560954656617720   0.184610846964069 1
ion O   0.891203803239620   0.457546907368342   0.932215639595326 1
ion O   0.776896270123254   0.565196694698746   0.692091130246873 1
ion O   0.893121914889067   0.770187317732269   0.432949632620442 1
ion O   0.773512083542646   0.889940312934005   0.185159320802045 1
ion O   0.777614712309163   0.888712014133750   0.693135210356527 1

# Forces in Lattice coordinates:
force Zn   0.002800380594717   0.267711317812539   0.147573457391280 1
force Zn   0.221516610322467  -0.202323531326321  -0.013728369249215 1
force Zn   0.042820800179790  -0.162809016009007  -0.169822759991774 1
force Zn   0.484044944693409  -0.512920610590911   0.156957845318176 1
force Zn  -0.252468832461903   0.109733293556734  -0.169148840019385 1
force Zn   0.048285330752851  -0.010865990024178   0.103339104040837 1
force Zn  -0.111807912646572  -0.050443468197030   0.095833834149738 1
force Zn  -0.556432565818181   0.300151377149536   0.392132370489314 1
force Zn  -0.162858888282827  -0.102817932495655   0.147138137316309 1
force Zn  -0.165162538946760  -0.201436043430130   0.008626003842245 1
force Zn   0.209609673868417  -0.157390009261229   0.080927094537341 1
force Zn  -0.289691607629223   0.176840438581095  -0.302428544519088 1
force Zn  -0.102104942779025  -0.111421978462662  -0.217651927284948 1
force Zn   0.107974833595547  -0.043549262110727   0.024706463752154 1
force Zn  -0.150559805932488   0.098776210067506  -0.080027450274940 1
force Zn   0.088021988477433  -0.120372199437913  -0.339451639960263 1
force Zn  -0.136099944508121   0.236204500882577   0.126781946758923 1
force Zn  -0.053615224727971   0.122441305367442   0.082024108541581 1
force Zn  -0.009861109148527  -0.310667329376546   0.202894566536429 1
force Zn   0.123103380446999  -0.073095611799060  -0.508191974058143 1
force Zn   0.116568957069951  -0.013803162300617   0.240783813367245 1
force Zn   0.373323895899819  -0.424169931871283   0.300018723217077 1
force Zn   0.283033820763215   0.019647857619859   0.068852802092421 1
force Zn   0.098802890967237  -0.162942422934776  -0.051488699655128 1
force Zn   0.060120926500669  -0.058353903612264  -0.115271290739283 1
force Zn  -0.214855968077398   0.206121651658016  -0.275832927906416 1
force Zn   0.299449046998248  -0.219456656159377   0.028494199357107 1
force Zn  -0.060125152864759  -0.043951976984189   0.100046094446498 1
force Zn   0.156476097337528  -0.090082046106899  -0.124106114950418 1
force Zn  -0.227002284825396   0.387134626361831  -0.063670255832878 1
force Zn  -0.158399066971302   0.029266458696502  -0.090710117467188 1
force Zn   0.199428741241817  -0.194815513272180  -0.292874415616726 1
force Zn   0.177491457522123  -0.066327335059906   0.232700276530862 1
force Zn   0.156415623269368  -0.115341418881818  -0.182647924950892 1
force Zn   0.000305165839694   0.223670364310000   0.255024349796212 1
force Zn   0.025298157855282  -0.078653351803442   0.148765501701067 1
force O  -0.246743304647097   0.243669361031528  -0.254652606343071 1
force O   0.108392489278221  -0.128321388343303   0.088612910375682 1
force O  -0.141704900295720   0.358574004164468   0.065146929679475 1
force O  -0.205108564090684   0.071807815428874   0.096149911712860 1
force O   0.431671638758845  -0.159483048181205  -0.247629967660608 1
force O   0.380653293325876  -0.289906313669485   0.160910382401125 1
force O   0.057271118876696   0.052040234593227  -0.042346001213878 1
force O   0.081284648359355   0.244851187109695  -0.275257439813975 1
force O   0.059180605964853  -0.019315520419690  -0.380140206839044 1
force O  -0.081280460476971  -0.079488957523117  -0.147928442002771 1
force O  -0.031515116103849   0.014641980600413  -0.288455067462659 1
force O  -0.182767550365988   0.215351107021656   0.136450758780732 1
force O  -0.204460069600646   0.284148009459575   0.018402790045395 1
force O  -0.144225159058248   0.004241903135648  -0.161486030766039 1
force O  -0.057821001859057   0.179086366563981   0.362191728735473 1
force O  -0.087760304235533   0.114712811194302   0.559811739749495 1
force O  -0.143297459682120   0.232753253158900   0.028868868794820 1
force O   0.001479558417346  -0.066557942052345  -0.172872556198091 1
force O  -0.160769749436108   0.052592582337961  -0.058766614513624 1
force O   0.041088128417058   0.032321050414153   0.294898783261744 1
force O   0.058835015986723  -0.225202287443478  -0.186294420523671 1
force O  -0.050473219236808   0.210929932396320  -0.303967412318177 1
force O  -0.119862098771225   0.016551752451340   0.069275831963127 1
force O  -0.275454586311330   0.116405683782671   0.333794210438441 1
force O  -0.227692516937998   0.023562247535965  -0.058486394566617 1
force O   0.155456517593783   0.094622859406275  -0.060899628887048 1
force O   0.100173747807413  -0.076019034249997   0.090044882984488 1
force O   0.047418406033659   0.044468062914827  -0.085828960113529 1
force O   0.018875073271901   0.210565383449059   0.365740823982794 1
force O  -0.141342937055984  -0.029596864809837  -0.037044627455606 1
force O   0.229452574024223  -0.459560928984213   0.188260452411868 1
force O   0.265852531533740  -0.234652188429997  -0.049392609715854 1
force O  -0.052164560344278   0.222192662702259   0.092154507525590 1
force O  -0.041914592215410   0.119380171127745   0.044450495223818 1
force O  -0.063870132004778  -0.042198228329316  -0.129015014634343 1

# Energy components:
   Eewald =    -4541.0450132480109460
       EH =     3822.1919200532820469
     Eloc =    -8597.8459903297189157
      Enl =      344.0434510247124535
      Exc =     -878.9003715296973951
 Exc_core =        2.2012835256573684
       KE =      984.1947404012857987
-------------------------------------
     Etot =    -8865.1599801024876797
       TS =        0.0165772911878244
-------------------------------------
        F =    -8865.1765573936754663

IonicMinimize: Iter:   3  F: -8865.176557393675466  |grad|_K:  9.891e-03  alpha:  3.418e-01  linmin: -9.842e-01  t[s]:  11831.80

#--- Lowdin population analysis ---
# oxidation-state Zn +0.594 +0.593 +0.603 +0.601 +0.597 +0.592 +0.587 +0.603 +0.596 +0.489 +0.594 +0.591 +0.586 +0.587 +0.604 +0.587 +0.594 +0.590 +0.600 +0.605 +0.593 +0.593 +0.590 +0.592 +0.597 +0.595 +0.599 +0.594 +0.588 +0.502 +0.601 +0.590 +0.589 +0.503 +0.489 +0.588
# oxidation-state O -0.582 -0.580 -0.580 -0.584 -0.583 -0.581 -0.580 -0.583 -0.583 -0.583 -0.579 -0.581 -0.585 -0.578 -0.578 -0.585 -0.581 -0.581 -0.579 -0.582 -0.581 -0.581 -0.579 -0.583 -0.582 -0.580 -0.579 -0.585 -0.582 -0.583 -0.582 -0.582 -0.579 -0.582 -0.578


-------- Electronic minimization -----------
Will mix electronic density at each iteration.
	FillingsUpdate:  mu: +0.369411636  nElectrons: 930.000000
	FillingsUpdate:  mu: +0.363354692  nElectrons: 930.000000
SCF: Cycle:  0   F: -8864.244735534510255   dF: -2.162e+00   |Residual|: 8.166e-01   |deigs|: 4.318e-03  t[s]:  12177.18
	FillingsUpdate:  mu: +0.360593895  nElectrons: 930.000000
SCF: Cycle:  1   F: -8865.008122777908284   dF: -7.634e-01   |Residual|: 4.113e-01   |deigs|: 1.394e-02  t[s]:  12426.83
	FillingsUpdate:  mu: +0.364611426  nElectrons: 930.000000
SCF: Cycle:  2   F: -8865.146030008041635   dF: -1.379e-01   |Residual|: 1.771e-01   |deigs|: 3.389e-03  t[s]:  12685.55
	FillingsUpdate:  mu: +0.366420397  nElectrons: 930.000000
SCF: Cycle:  3   F: -8865.216024810153613   dF: -6.999e-02   |Residual|: 4.849e-02   |deigs|: 3.047e-03  t[s]:  12927.12
	FillingsUpdate:  mu: +0.366620426  nElectrons: 930.000000
SCF: Cycle:  4   F: -8865.220136369069223   dF: -4.112e-03   |Residual|: 2.612e-02   |deigs|: 1.170e-03  t[s]:  13073.37
	FillingsUpdate:  mu: +0.366909241  nElectrons: 930.000000
SCF: Cycle:  5   F: -8865.222441031472044   dF: -2.305e-03   |Residual|: 1.148e-02   |deigs|: 6.314e-04  t[s]:  13217.42
	FillingsUpdate:  mu: +0.367199925  nElectrons: 930.000000
SCF: Cycle:  6   F: -8865.223342017319737   dF: -9.010e-04   |Residual|: 6.346e-03   |deigs|: 5.740e-04  t[s]:  13363.73
	FillingsUpdate:  mu: +0.367197140  nElectrons: 930.000000
SCF: Cycle:  7   F: -8865.223486610035252   dF: -1.446e-04   |Residual|: 3.160e-03   |deigs|: 2.235e-04  t[s]:  13511.98
	FillingsUpdate:  mu: +0.367247209  nElectrons: 930.000000
SCF: Cycle:  8   F: -8865.223527300495334   dF: -4.069e-05   |Residual|: 1.292e-03   |deigs|: 1.127e-04  t[s]:  13658.62
	FillingsUpdate:  mu: +0.367260661  nElectrons: 930.000000
SCF: Cycle:  9   F: -8865.223534456594280   dF: -7.156e-06   |Residual|: 7.956e-04   |deigs|: 5.217e-05  t[s]:  13802.00
	FillingsUpdate:  mu: +0.367262890  nElectrons: 930.000000
SCF: Cycle: 10   F: -8865.223536631085153   dF: -2.174e-06   |Residual|: 2.841e-04   |deigs|: 2.686e-05  t[s]:  13950.59
	FillingsUpdate:  mu: +0.367263679  nElectrons: 930.000000
SCF: Cycle: 11   F: -8865.223537002621015   dF: -3.715e-07   |Residual|: 1.715e-04   |deigs|: 1.051e-05  t[s]:  14102.34
	FillingsUpdate:  mu: +0.367264043  nElectrons: 930.000000
SCF: Cycle: 12   F: -8865.223537096191649   dF: -9.357e-08   |Residual|: 9.764e-05   |deigs|: 6.396e-06  t[s]:  14251.27
	FillingsUpdate:  mu: +0.367263667  nElectrons: 930.000000
SCF: Cycle: 13   F: -8865.223537124064023   dF: -2.787e-08   |Residual|: 3.767e-05   |deigs|: 3.267e-06  t[s]:  14398.23
	FillingsUpdate:  mu: +0.367263407  nElectrons: 930.000000
SCF: Cycle: 14   F: -8865.223537128249518   dF: -4.185e-09   |Residual|: 2.367e-05   |deigs|: 1.386e-06  t[s]:  14543.48
	FillingsUpdate:  mu: +0.367263442  nElectrons: 930.000000
SCF: Cycle: 15   F: -8865.223537129357283   dF: -1.108e-09   |Residual|: 1.042e-05   |deigs|: 6.983e-07  t[s]:  14689.30
SCF: Converged (|Delta E|<1.000000e-08 for 2 iters).

Setting wave functions to eigenvectors of Hamiltonian

# Ionic positions in lattice coordinates:
ion Zn   0.214987677276664   0.106352951418592   0.257753894224516 1
ion Zn   0.099726010718042   0.220885010421949   0.000594590763313 1
ion Zn   0.233011491105299   0.120373010405833   0.752535648341456 1
ion Zn   0.109844478969548   0.231408016567245   0.500893395562203 1
ion Zn   0.228823209774187   0.450476495956461   0.249275340795539 1
ion Zn   0.110394367800931   0.555869012670714  -0.001668777630748 1
ion Zn   0.222037498959126   0.440965137860864   0.749971028941030 1
ion Zn   0.117481114635599   0.557023203010694   0.484434183546990 1
ion Zn   0.227290823432455   0.787127189366669   0.247997565432977 1
ion Zn   0.103612879186630   0.893195325483199   0.000402402894504 1
ion Zn   0.216905368990863   0.768871179700479   0.749784419024440 1
ion Zn   0.114492231809520   0.885768343233068   0.514501343274297 1
ion Zn   0.556091240185033   0.111619169239213   0.264255598576592 1
ion Zn   0.444217390301965   0.221683638923430  -0.000036602096700 1
ion Zn   0.560533139906512   0.107098342965202   0.739709311283415 1
ion Zn   0.445498620625452   0.223790495764989   0.502053494609213 1
ion Zn   0.559143915084371   0.434057153633719   0.246272934440405 1
ion Zn   0.445596794284383   0.551658463189956  -0.001525933657380 1
ion Zn   0.559307846131630   0.451581859681016   0.746173609322836 1
ion Zn   0.449332466807401   0.561792073051220   0.500559567089631 1
ion Zn   0.549396078667805   0.773996786362349   0.244203148567200 1
ion Zn   0.436756003448143   0.906769116575907  -0.008110008694870 1
ion Zn   0.543881806668286   0.768838696933895   0.748426925180615 1
ion Zn   0.446668294863236   0.891784724084624   0.497407944230631 1
ion Zn   0.886740619474525   0.111978161994167   0.252780579869538 1
ion Zn   0.780868448384674   0.225138760856677   0.006582878747542 1
ion Zn   0.883059109512479   0.113481894868468   0.743586114444086 1
ion Zn   0.791426919901380   0.229112040869462   0.495624638394529 1
ion Zn   0.882880754717002   0.445541238675451   0.248455227425505 1
ion Zn   0.783732861062913   0.559498341947992  -0.002143279522094 1
ion Zn   0.890539925574759   0.448428643229314   0.747354840540972 1
ion Zn   0.773897845649099   0.558436818065136   0.504717963431079 1
ion Zn   0.883892414235733   0.780312362558308   0.242141858159779 1
ion Zn   0.767919460108680   0.888251305461432  -0.002571140064037 1
ion Zn   0.887924088756493   0.780083954196561   0.759400393359874 1
ion Zn   0.784563309465141   0.885628359507133   0.497254062247825 1
ion O   0.223183758240802   0.106048108227779   0.448760610840989 1
ion O   0.108763828591667   0.226593665477625   0.189752619109744 1
ion O   0.221514027405565   0.109477100369438   0.939972454530771 1
ion O   0.114109139544172   0.219734180806693   0.688743633310546 1
ion O   0.223633992572430   0.446647878046139   0.439386795280385 1
ion O   0.104589966138254   0.562705416535987   0.187607587375606 1
ion O   0.220371226423756   0.441671152541145   0.940670450147717 1
ion O   0.107858898857444   0.545938831072219   0.689494636115526 1
ion O   0.224191537285187   0.780686450100527   0.445579654729616 1
ion O   0.110408273134242   0.892894875524799   0.190592128380222 1
ion O   0.215895814987816   0.780004791356138   0.945170767021382 1
ion O   0.112658561679661   0.886572782975059   0.699988293868147 1
ion O   0.565923386640877   0.112343299421925   0.448249115432470 1
ion O   0.442306055266436   0.213998179264885   0.191792521012579 1
ion O   0.563518091329200   0.119157104783250   0.926984525629790 1
ion O   0.452883818297896   0.225325205606123   0.685088590444074 1
[...]
ion O   0.778818367836111   0.223375434232624   0.689004681447978 1
ion O   0.888578575501267   0.446464056206562   0.438353647176803 1
ion O   0.779382346473094   0.559895898753422   0.182618436779588 1
ion O   0.886846487707150   0.449049549230861   0.939941297813466 1
ion O   0.780930287413864   0.562009933450438   0.694115770499366 1
ion O   0.889353674321276   0.778798773192019   0.439150331347434 1
ion O   0.778478571203887   0.888362583277922   0.182902372959860 1
ion O   0.780827850891735   0.886510213877134   0.694397824326913 1

# Forces in Lattice coordinates:
force Zn   0.005670618042652   0.000954419090397   0.003705750158351 1
force Zn   0.000888464623097  -0.002697408638593  -0.001187385902987 1
force Zn  -0.001535834666193   0.000463920737909   0.000631875100208 1
force Zn   0.002300554439207  -0.002331707879514   0.003672925928938 1
force Zn   0.006289747191489  -0.005702111383884  -0.004615484465629 1
force Zn   0.001827715128643   0.004152896678569  -0.003660803757744 1
force Zn   0.002858408607199  -0.003548054131955   0.001509282570570 1
force Zn  -0.011620044652109   0.013539185887943   0.003060661225325 1
force Zn   0.001374275314351   0.005614304964598  -0.006050936181120 1
force Zn   0.005263021855064  -0.005436262476423   0.002958556954653 1
force Zn   0.001900898128442   0.000530869729984   0.008009119339040 1
force Zn  -0.006401353269642   0.006121968329100  -0.004084059200960 1
force Zn  -0.003952501540092  -0.000833550462248  -0.003138773840218 1
force Zn   0.006054455536463  -0.005991731231044   0.004545627649593 1
force Zn  -0.003142643086466   0.000057841003002   0.000430885615295 1
force Zn  -0.006827401410442   0.006618846124204  -0.007775749207598 1
force Zn  -0.000536035974604  -0.004117241336377   0.002387588783911 1
force Zn   0.000695761798534   0.003114781866151  -0.000215139284804 1
force Zn  -0.004461240378376   0.003890008988225   0.000043481044985 1
force Zn   0.001974224807566   0.002306184090394  -0.005441508802732 1
force Zn   0.000925337043295   0.003686781267286  -0.003544729008414 1
force Zn  -0.000282854819693   0.001704412574952   0.000986512403895 1
force Zn   0.001295882042440   0.000692676490287   0.002029414937058 1
force Zn   0.007251494201521  -0.002889825249308   0.002064338466750 1
force Zn  -0.002671236951414   0.001047313585555   0.000173095696716 1
force Zn  -0.003330777137662  -0.004165545188357   0.001035296957880 1
force Zn   0.003262094441208  -0.005521961976600   0.001207888367162 1
force Zn  -0.001095334546996  -0.007979240762236  -0.001224483084687 1
force Zn  -0.001680425145841  -0.003448807289582  -0.006983668425487 1
force Zn  -0.000418402877818  -0.002363777897590   0.007722972881353 1
force Zn  -0.005584613232342   0.000469930235425   0.002927300248137 1
force Zn  -0.010962734141742   0.007157915943605  -0.004836246309720 1
force Zn   0.002858136801999  -0.001910972924782  -0.003467696198356 1
force Zn  -0.002028806823951   0.001177546388369   0.002028761438516 1
force Zn  -0.002747977842174   0.007861596245446   0.002641206150771 1
force Zn  -0.001761575972664   0.002396924116335  -0.001270807312667 1
force O  -0.002112172783660  -0.004108013081320   0.003808088116127 1
force O  -0.004072168101958   0.005526825132791  -0.001824832043561 1
force O  -0.001381039083945   0.004346525177136  -0.002525598262801 1
force O  -0.001667217504220   0.003943683931777   0.001357463535271 1
force O   0.003078371517957  -0.004852137643520  -0.006750395813595 1
force O  -0.000976902880354  -0.000526750685875   0.003899449638803 1
force O   0.002855579760212  -0.002182488663216   0.003241450852898 1
force O  -0.002050129561918  -0.002346872738887  -0.002867024079265 1
force O  -0.000418340665547  -0.005450942420883   0.001053840336325 1
force O  -0.002639858253286  -0.004204001111908  -0.000780289098731 1
force O  -0.003296564028549  -0.002885191630723   0.000041190857258 1
force O  -0.004471278411075   0.000405772689428   0.000014407333918 1
force O   0.001674875265585  -0.003465230471181   0.007501783731256 1
force O  -0.000312826681407   0.000135574358154  -0.000515938110635 1
force O   0.002206136342445   0.003895629462708  -0.003872559220104 1
force O  -0.001532725851337   0.004556290029165   0.010289156331893 1
force O  -0.001740661380932   0.003914113701010   0.002809909420907 1
force O  -0.002475307000922   0.000290262993902  -0.003842843108280 1
force O   0.003271814599121   0.001487943886756   0.000437741675049 1
force O  -0.000408881356800  -0.003512872977807   0.007896477369602 1
force O  -0.004461142446840   0.004963116599677  -0.000885202983557 1
force O  -0.000901614508158  -0.004383720285054   0.007829087479924 1
force O   0.006886208606260  -0.008322000089001   0.000234330474526 1
force O  -0.001619323479892   0.001332423784849  -0.001081272644646 1
force O  -0.006253200596080   0.005012139492963  -0.001141996781399 1
force O   0.005898283001733   0.002758443887452   0.002184498144615 1
force O   0.005263688328802  -0.003092681722630   0.000586910370937 1
force O   0.001175126468321   0.004825588075181  -0.005254979194419 1
force O   0.004037056660897  -0.000516065652792   0.002451248611280 1
force O   0.002338819604318  -0.001349683997519  -0.003816747865708 1
force O   0.003838627904923  -0.001141615170966  -0.001203868185177 1
force O   0.002746340241148   0.000223681781844  -0.001442816398977 1
force O   0.004457262858476  -0.004047513294494   0.000319060859169 1
force O   0.007885488019913  -0.004254668036353  -0.001046251798785 1
force O   0.003651057175942  -0.001318924961775  -0.000417593136970 1

# Energy components:
   Eewald =    -4555.3818263333232608
       EH =     3808.4183261548846531
     Eloc =    -8569.4276899777069048
      Enl =      343.9544366824579242
      Exc =     -878.7431008933626799
 Exc_core =        2.2012944425432481
       KE =      983.7156582452131488
-------------------------------------
     Etot =    -8865.2629016792961920
       TS =        0.0128407917062912
-------------------------------------
        F =    -8865.2757424710016494

IonicMinimize: Iter:  14  F: -8865.275742471001649  |grad|_K:  2.092e-04  alpha:  1.000e+00  linmin:  1.228e-01  t[s]:  38428.32

#--- Lowdin population analysis ---
# oxidation-state Zn +0.598 +0.593 +0.594 +0.597 +0.598 +0.593 +0.597 +0.597 +0.598 +0.467 +0.594 +0.595 +0.595 +0.599 +0.597 +0.597 +0.598 +0.593 +0.594 +0.597 +0.598 +0.599 +0.594 +0.597 +0.599 +0.599 +0.594 +0.597 +0.599 +0.466 +0.594 +0.596 +0.584 +0.470 +0.451 +0.596
# oxidation-state O -0.580 -0.582 -0.578 -0.581 -0.581 -0.582 -0.579 -0.581 -0.580 -0.578 -0.578 -0.577 -0.581 -0.582 -0.583 -0.580 -0.580 -0.582 -0.578 -0.581 -0.580 -0.582 -0.578 -0.580 -0.580 -0.582 -0.578 -0.580 -0.580 -0.578 -0.578 -0.577 -0.581 -0.578 -0.577


-------- Electronic minimization -----------
Will mix electronic density at each iteration.
	FillingsUpdate:  mu: +0.358937473  nElectrons: 930.000000
	FillingsUpdate:  mu: +0.358964455  nElectrons: 930.000000
SCF: Cycle:  0   F: -8865.275747550263986   dF: +3.735e-06   |Residual|: 2.554e-03   |deigs|: 2.580e-07  t[s]:  38668.36
	FillingsUpdate:  mu: +0.358965459  nElectrons: 930.000000
SCF: Cycle:  1   F: -8865.275766090000616   dF: -1.854e-05   |Residual|: 1.358e-03   |deigs|: 5.356e-05  t[s]:  38813.98
	FillingsUpdate:  mu: +0.358962284  nElectrons: 930.000000
SCF: Cycle:  2   F: -8865.275768160063308   dF: -2.070e-06   |Residual|: 4.920e-04   |deigs|: 1.038e-05  t[s]:  38959.22
	FillingsUpdate:  mu: +0.358959179  nElectrons: 930.000000
SCF: Cycle:  3   F: -8865.275770906089747   dF: -2.746e-06   |Residual|: 2.824e-04   |deigs|: 2.028e-05  t[s]:  39103.62
	FillingsUpdate:  mu: +0.358959407  nElectrons: 930.000000
SCF: Cycle:  4   F: -8865.275771208367587   dF: -3.023e-07   |Residual|: 1.945e-04   |deigs|: 8.315e-06  t[s]:  39251.93
	FillingsUpdate:  mu: +0.358959387  nElectrons: 930.000000
SCF: Cycle:  5   F: -8865.275771364582397   dF: -1.562e-07   |Residual|: 5.945e-05   |deigs|: 8.079e-06  t[s]:  39399.84
	FillingsUpdate:  mu: +0.358959316  nElectrons: 930.000000
SCF: Cycle:  6   F: -8865.275771376713237   dF: -1.213e-08   |Residual|: 3.947e-05   |deigs|: 2.002e-06  t[s]:  39546.12
	FillingsUpdate:  mu: +0.358959456  nElectrons: 930.000000
SCF: Cycle:  7   F: -8865.275771380136575   dF: -3.423e-09   |Residual|: 1.734e-05   |deigs|: 1.247e-06  t[s]:  39692.71
	FillingsUpdate:  mu: +0.358959568  nElectrons: 930.000000
SCF: Cycle:  8   F: -8865.275771380986043   dF: -8.495e-10   |Residual|: 6.925e-06   |deigs|: 5.521e-07  t[s]:  39838.73
SCF: Converged (|Delta E|<1.000000e-08 for 2 iters).

Setting wave functions to eigenvectors of Hamiltonian

# Ionic positions in lattice coordinates:
ion Zn   0.221088038788826   0.109522397158636   0.247637724808890 1
ion Zn   0.110345031370570   0.222411311188125  -0.000111751660276 1
ion Zn   0.221939401565004   0.111613610065005   0.750117414832318 1
ion Zn   0.111201048393823   0.221887365338960   0.498197626709355 1
ion Zn   0.221953700101739   0.445282113420436   0.249639223324352 1
ion Zn   0.110375414690644   0.556956275202619  -0.000274612497431 1
ion Zn   0.222544457234189   0.445157535548794   0.748558934280235 1
ion Zn   0.111646147927914   0.556732272937315   0.498348172062490 1
ion Zn   0.220856212328312   0.779987460604973   0.247863344095172 1
ion Zn   0.088490922017626   0.878649050499919  -0.007822319867951 1
ion Zn   0.222093323594571   0.778548096655819   0.749956535054876 1
ion Zn   0.109738763128705   0.888871920545955   0.503875468386292 1
ion Zn   0.555688492388913   0.112267385710206   0.248905097723946 1
ion Zn   0.443858266938419   0.223301363125794  -0.001088335632487 1
ion Zn   0.555906992292571   0.111787299726206   0.748943272940572 1
ion Zn   0.444937230164371   0.223160197188864   0.498319403240785 1
ion Zn   0.558193151723262   0.446720919846773   0.247741360014124 1
ion Zn   0.444745977677758   0.556764487505047  -0.000053666218741 1
ion Zn   0.555957391062124   0.445239879723308   0.750076474279791 1
ion Zn   0.445970167158969   0.556302443755358   0.498455436668920 1
ion Zn   0.557450429386604   0.779841930719028   0.248206890407035 1
ion Zn   0.443891519891844   0.889487829699603  -0.000941816704571 1
ion Zn   0.555800769242762   0.778077463442261   0.750121039174596 1
ion Zn   0.444604460640526   0.889181974127486   0.498299488900759 1
ion Zn   0.887401965870963   0.109569884917700   0.247944240738106 1
ion Zn   0.777756737195429   0.223595228059819  -0.000998518727101 1
ion Zn   0.889428968907359   0.111640081400071   0.750183076466548 1
ion Zn   0.779214861714333   0.223618071756139   0.498526240670421 1
ion Zn   0.887590484696381   0.446942216063992   0.247877055189423 1
ion Zn   0.788641062211950   0.579129967904497  -0.008027271373877 1
ion Zn   0.889814893835241   0.445890169964999   0.750090513148741 1
ion Zn   0.779694282296294   0.558477154302936   0.503968868908215 1
ion Zn   0.888706458765861   0.779121997520930   0.251135581017780 1
ion Zn   0.788107254284287   0.878865038474456  -0.007595171717399 1
ion Zn   0.889013379283765   0.778297817471758   0.774152639591054 1
ion Zn   0.778954261010948   0.888542243425398   0.504221768432138 1
ion O   0.222022833059639   0.109869679470416   0.438192847737479 1
ion O   0.110864455753586   0.222818415938914   0.189391692828349 1
ion O   0.218330817842205   0.106965342890803   0.940045861019499 1
ion O   0.111187807813713   0.222677907154030   0.688267248519785 1
ion O   0.222850544934490   0.445152113172600   0.439320013630640 1
ion O   0.110991680327502   0.556629333846162   0.189202265050246 1
ion O   0.221798063080996   0.445352439437560   0.938780736126743 1
ion O   0.111559323597395   0.556675850165757   0.688321442321898 1
ion O   0.221676386207998   0.779824082159303   0.438356865662079 1
ion O   0.107980887418603   0.888330735333179   0.182695094067576 1
ion O   0.218530345130847   0.780378057083513   0.939872213881576 1
ion O   0.105304831324209   0.886700198197535   0.694006389590518 1
ion O   0.556457689311035   0.112009924101455   0.438695074724470 1
ion O   0.444285986890797   0.223521083015101   0.188626263516841 1
ion O   0.555196764984502   0.112023636668957   0.938401595820074 1
ion O   0.444207302393726   0.222999487918646   0.688622111892853 1
ion O   0.558622450793587   0.446135160435683   0.438330289948991 1
ion O   0.444455841637734   0.556496444302786   0.189441376567117 1
ion O   0.560138935061542   0.448776680628284   0.939982293632349 1
ion O   0.445030239397670   0.556256052017781   0.688365809453477 1
ion O   0.557966039252760   0.779421635272215   0.438677151929994 1
ion O   0.444096154557802   0.889561358048688   0.188721465589978 1
ion O   0.559948577478554   0.780179610569644   0.940035540092307 1
ion O   0.444368471109111   0.888932986151165   0.688702682503050 1
ion O   0.888112814155469   0.109562700649507   0.438540975578891 1
ion O   0.778331688031917   0.223686369997310   0.188744793055934 1
ion O   0.886878507064410   0.107107125929591   0.940108101184833 1
ion O   0.778882362725562   0.223452239826064   0.688932831911092 1
ion O   0.888567564448213   0.446471109099166   0.438420645746327 1
ion O   0.779370693420134   0.559856390855754   0.182638012709780 1
ion O   0.886943549143826   0.448955159309425   0.940003777536903 1
ion O   0.780971979442710   0.562060336906920   0.694091817548994 1
ion O   0.889358932707444   0.778786021783013   0.439183361266011 1
ion O   0.778647881102626   0.888353627910408   0.182915715813641 1
ion O   0.780869678614829   0.886558248753482   0.694346214872609 1

# Forces in Lattice coordinates:
force Zn   0.000403558756437   0.000632417176679   0.000679985217466 1
force Zn  -0.000242198379580  -0.000565909656746   0.000137664119940 1
force Zn  -0.001347775675093   0.000282122818546   0.000854193182206 1
force Zn  -0.002161743075783   0.002656026519993   0.002027998674189 1
force Zn   0.002476784218819  -0.002030352578681  -0.002428886482173 1
force Zn   0.000867028459465   0.000029116264090  -0.000073082417986 1
force Zn  -0.000356530669900  -0.000099305419117   0.002090330697400 1
force Zn  -0.006994977063733   0.007440951606765   0.000020737846426 1
force Zn  -0.000592472203541   0.001685031273309  -0.002648195990356 1
force Zn   0.001590881907554  -0.001860563923357   0.001877581714302 1
force Zn  -0.001250810118263  -0.000118621712763   0.003365793721249 1
force Zn  -0.002423934282454   0.000899650294141  -0.001488252370569 1
force Zn  -0.000092396317741  -0.000483260171501   0.000445626257599 1
force Zn   0.001832169978610  -0.000975318269366   0.001324116135702 1
force Zn  -0.000502682488035   0.001079930465631  -0.001431462285998 1
force Zn  -0.004094926951949   0.004208723660442  -0.002848863937023 1
force Zn   0.000566812652180  -0.000594288526523   0.000196121978010 1
force Zn   0.000990759546527  -0.000445957287690  -0.000713571701409 1
force Zn  -0.000539988318423   0.003745829847745   0.001028958143666 1
force Zn  -0.002371869045148   0.003182011163818  -0.002509230959960 1
force Zn   0.002807228269724  -0.000731419813407  -0.003764654277285 1
force Zn  -0.000795203469699   0.000749435215392  -0.000314894504506 1
force Zn   0.000610980968942  -0.000439989724169   0.000706620638631 1
force Zn   0.001384786769195  -0.001361766826998   0.000458234920838 1
force Zn  -0.000485702161207   0.000875970613116  -0.000048412433503 1
force Zn   0.001956129484093  -0.002170851356999   0.001484582796944 1
force Zn   0.000117222439421  -0.000992007120669   0.001030655425170 1
force Zn  -0.000170581063396  -0.001566099528820  -0.001230028368589 1
force Zn   0.000297367903383  -0.001381487791991  -0.002629328666704 1
force Zn   0.001731812891190  -0.003099834198530   0.005587757144816 1
force Zn  -0.003481717134809   0.000907295474580   0.002324821196241 1
force Zn  -0.004289059465814   0.002631751777763  -0.001212661275117 1
force Zn   0.001611166532678  -0.003055839253031  -0.002506725022307 1
force Zn   0.001447150661822  -0.000202572860817   0.001971515309057 1
force Zn  -0.001139140337189   0.002469007766965   0.002924558100106 1
force Zn   0.000558376411306   0.001226454341734  -0.002282766606254 1
force O  -0.000126090644788  -0.003066693483229   0.002219701575924 1
force O  -0.001380235464840   0.000324652378476  -0.002343504823350 1
force O   0.002507854440689  -0.000319617130612  -0.000810384484163 1
force O   0.000060261318009   0.001114795763708   0.002583940008241 1
force O   0.001591522672658  -0.003488623567554  -0.001863053370261 1
force O  -0.000979957332002   0.001422333010454   0.000388084966433 1
force O   0.002414702240613  -0.001972164992033   0.002399677136190 1
force O  -0.000365881306998  -0.001699761646467   0.002499742990806 1
force O   0.000201700440511  -0.000375576192889   0.001353822022080 1
force O  -0.000567336631114  -0.000689461674624  -0.001174664911083 1
force O   0.000144214995745  -0.000089130686038   0.001835864284718 1
force O  -0.001940652908903  -0.000141237164016   0.001068938999756 1
force O  -0.001505667003830  -0.001385845980131   0.002505301708168 1
force O   0.001671387982066  -0.001914524085228  -0.000809174234417 1
force O   0.001349816186278   0.000038592642165  -0.002288207552859 1
force O  -0.000454596311225   0.001975800101164   0.005819461939906 1
force O  -0.001475206029676   0.001285835768455   0.000522975088163 1
force O   0.000855578737308   0.000682834190837  -0.002849919516326 1
force O   0.003423628933919  -0.001128543374320   0.001067066569337 1
force O  -0.000937260638354  -0.000463941686296   0.004384880456896 1
force O  -0.001777627984971   0.003490355412774  -0.001193574128715 1
force O   0.000642782699794  -0.001466215104995   0.002284369304869 1
force O   0.003264518474407  -0.002125102729382   0.000183916295321 1
force O   0.000278907455726   0.000560897506102   0.001404478164946 1
force O  -0.002304620146055   0.001549337684407  -0.000985624688859 1
force O   0.000244002249537  -0.000438445013846  -0.001169621087798 1
force O   0.001329191967455  -0.001338720350033   0.000418409679928 1
force O  -0.000603188861118   0.000997922854267  -0.000490765459935 1
force O  -0.000562298858811  -0.000853914497775  -0.000276914191195 1
force O   0.000161887340986  -0.000795974048014  -0.002221197680357 1
force O   0.001210963905140  -0.000288101298270  -0.000805297211421 1
force O  -0.000774995093775   0.002652303673562   0.000519589726305 1
force O   0.000677218320479  -0.001180599327604  -0.002120987503375 1
force O   0.004235196456583  -0.002314024345031  -0.001753754839074 1
force O   0.001616648580433  -0.000739628617970   0.000278383385659 1

# Energy components:
   Eewald =    -4555.3799643511956674
       EH =     3808.4243224221877426
     Eloc =    -8569.4368656934020692
      Enl =      343.9548648195698206
      Exc =     -878.7437835412187042
 Exc_core =        2.2012944448968819
       KE =      983.7171999931131268
-------------------------------------
     Etot =    -8865.2629319060488342
       TS =        0.0128394749374509
-------------------------------------
        F =    -8865.2757713809860434

IonicMinimize: Iter:  15  F: -8865.275771380986043  |grad|_K:  9.615e-05  alpha:  1.000e+00  linmin: -6.113e-01  t[s]:  39878.91
IonicMinimize: Converged (|grad|_K<1.000000e-04).

#--- Lowdin population analysis ---
# oxidation-state Zn +0.598 +0.593 +0.594 +0.597 +0.598 +0.593 +0.597 +0.597 +0.598 +0.468 +0.594 +0.596 +0.595 +0.599 +0.597 +0.597 +0.598 +0.593 +0.594 +0.597 +0.598 +0.599 +0.594 +0.597 +0.599 +0.599 +0.594 +0.597 +0.599 +0.467 +0.594 +0.596 +0.584 +0.470 +0.451 +0.596
# oxidation-state O -0.580 -0.582 -0.578 -0.581 -0.581 -0.582 -0.579 -0.581 -0.580 -0.578 -0.578 -0.577 -0.581 -0.582 -0.583 -0.580 -0.580 -0.582 -0.578 -0.581 -0.580 -0.582 -0.578 -0.580 -0.580 -0.582 -0.578 -0.580 -0.580 -0.578 -0.578 -0.577 -0.581 -0.578 -0.577


Dumping '/data/rc652/ZnO/vac/ZnO_vac.Ecomponents' ... done
End date and time: Mon Jul 15 13:59:51 2024  (Duration: 0-11:05:03.77)
Done!
