--------------------------------------------------------------------------
Initialization of PSM library failed.

  Error: PSM is in the finalized state
--------------------------------------------------------------------------

*************** JDFTx 1.7.0 (git hash 3664913) ***************

Start date and time: Mon Jun 24 13:05:58 2024
Executable jdftx with command-line: -i RhO2_vac.in
Running on hosts (process indices):  node3002.physics.cornell.edu (0-15)
Divided in process groups (process indices):  0 (0)  1 (1)  2 (2)  3 (3)  4 (4)  5 (5)  6 (6)  7 (7)  8 (8)  9 (9)  10 (10)  11 (11)  12 (12)  13 (13)  14 (14)  15 (15)
Resource initialization completed at t[s]:      0.00
Run totals: 16 processes, 32 threads, 0 GPUs


Input parsed successfully to the following command list (including defaults):

basis kpoint-dependent
coords-type Lattice
core-overlap-check vector
coulomb-interaction Periodic
davidson-band-ratio 1.1
dump End Ecomponents
dump-name /data/rc652/RhO2/vac/RhO2_vac.$VAR
elec-cutoff 20 100
elec-eigen-algo Davidson
elec-ex-corr gga-PBEsol
elec-smearing Fermi 0.01
electronic-minimize  \
	dirUpdateScheme      FletcherReeves \
	linminMethod         DirUpdateRecommended \
	nIterations          100 \
	history              15 \
	knormThreshold       0 \
	maxThreshold         no \
	energyDiffThreshold  1e-08 \
	nEnergyDiff          2 \
	alphaTstart          1 \
	alphaTmin            1e-10 \
	updateTestStepSize   yes \
	alphaTreduceFactor   0.1 \
	alphaTincreaseFactor 3 \
	nAlphaAdjustMax      3 \
	wolfeEnergy          0.0001 \
	wolfeGradient        0.9 \
	fdTest               no
electronic-scf  \
	nIterations	50 \
	energyDiffThreshold	1e-08 \
	residualThreshold	1e-07 \
	mixFraction	0.5 \
	qMetric	0.8 \
	history	10 \
	nEigSteps	2 \
	eigDiffThreshold	1e-08 \
	mixedVariable	Density \
	qKerker	0.8 \
	qKappa	-1 \
	verbose	no \
	mixFractionMag	1.5
exchange-regularization WignerSeitzTruncated
fluid None
fluid-ex-corr lda-TF lda-PZ
fluid-gummel-loop 10 1.000000e-05
fluid-minimize  \
	dirUpdateScheme      PolakRibiere \
	linminMethod         DirUpdateRecommended \
	nIterations          100 \
	history              15 \
	knormThreshold       0 \
	maxThreshold         no \
	energyDiffThreshold  0 \
	nEnergyDiff          2 \
	alphaTstart          1 \
	alphaTmin            1e-10 \
	updateTestStepSize   yes \
	alphaTreduceFactor   0.1 \
	alphaTincreaseFactor 3 \
	nAlphaAdjustMax      3 \
	wolfeEnergy          0.0001 \
	wolfeGradient        0.9 \
	fdTest               no
fluid-solvent H2O 55.338 ScalarEOS \
	epsBulk 78.4 \
	pMol 0.92466 \
	epsInf 1.77 \
	Pvap 1.06736e-10 \
	sigmaBulk 4.62e-05 \
	Rvdw 2.61727 \
	Res 1.42 \
	tauNuc 343133 \
	poleEl 15 7 1
forces-output-coords Positions
ion Rh   0.014060000000000   0.002500000000000   0.016480000000000 1
ion Rh   0.253310000000000   0.255940000000000   0.257190000000000 1
ion Rh  -0.033190000000000   0.000900000000000   0.488270000000000 1
ion Rh   0.249820000000000   0.263700000000000   0.742680000000000 1
ion Rh  -0.001760000000000   0.507530000000000  -0.000800000000000 1
ion Rh   0.258750000000000   0.747710000000000   0.262460000000000 1
ion Rh   0.001020000000000   0.503120000000000   0.507540000000000 1
ion Rh   0.250410000000000   0.744140000000000   0.740810000000000 1
ion Rh   0.507480000000000   0.002470000000000   0.001500000000000 1
ion Rh   0.764130000000000   0.243370000000000   0.231630000000000 1
ion Rh   0.523570000000000   0.002080000000000   0.491880000000000 1
ion Rh   0.753420000000000   0.246200000000000   0.763970000000000 1
ion Rh   0.501620000000000   0.491230000000000  -0.011360000000000 1
ion Rh   0.743540000000000   0.743250000000000   0.223200000000000 1
ion Rh   0.492410000000000   0.493770000000000   0.496750000000000 1
ion Rh   0.759010000000000   0.746090000000000   0.762230000000000 1
ion O   0.147310000000000   0.141140000000000  -0.010420000000000 1
ion O   0.094290000000000   0.405220000000000   0.247750000000000 1
ion O   0.410460000000000   0.100800000000000   0.245250000000000 1
ion O   0.335660000000000   0.350690000000000  -0.000250000000000 1
ion O   0.148970000000000   0.168410000000000   0.476790000000000 1
ion O   0.122770000000000   0.408060000000000   0.749510000000000 1
ion O   0.380320000000000   0.089790000000000   0.765580000000000 1
ion O   0.340910000000000   0.343750000000000   0.525910000000000 1
ion O   0.152580000000000   0.659090000000000  -0.007720000000000 1
ion O   0.114610000000000   0.907730000000000   0.242700000000000 1
ion O   0.396940000000000   0.587760000000000   0.246730000000000 1
ion O   0.350290000000000   0.857050000000000  -0.002120000000000 1
ion O   0.163200000000000   0.637610000000000   0.501880000000000 1
ion O   0.088950000000000   0.888000000000000   0.738730000000000 1
ion O   0.407130000000000   0.598940000000000   0.745570000000000 1
ion O   0.355440000000000   0.839630000000000   0.497420000000000 1
ion O   0.648350000000000   0.151750000000000  -0.018460000000000 1
ion O   0.597990000000000   0.400410000000000   0.257670000000000 1
ion O   0.914360000000000   0.115940000000000   0.251840000000000 1
ion O   0.825950000000000   0.349410000000000   0.004440000000000 1
ion O   0.642750000000000   0.169080000000000   0.506570000000000 1
ion O   0.602390000000000   0.395470000000000   0.750630000000000 1
ion O   0.904360000000000   0.098520000000000   0.737020000000000 1
ion O   0.829760000000000   0.345620000000000   0.513450000000000 1
ion O   0.666230000000000   0.645200000000000  -0.007770000000000 1
ion O   0.593020000000000   0.894700000000000   0.267460000000000 1
ion O   0.908270000000000   0.593320000000000   0.245050000000000 1
ion O   0.837350000000000   0.840060000000000  -0.002860000000000 1
ion O   0.663380000000000   0.662120000000000   0.502730000000000 1
ion O   0.587710000000000   0.885820000000000   0.743250000000000 1
ion O   0.911300000000000   0.603390000000000   0.743010000000000 1
ion-species GBRV/$ID_pbesol.uspp
ion-width 0
ionic-minimize  \
	dirUpdateScheme      L-BFGS \
	linminMethod         DirUpdateRecommended \
	nIterations          30 \
	history              15 \
	knormThreshold       0.0001 \
	maxThreshold         no \
	energyDiffThreshold  1e-06 \
	nEnergyDiff          2 \
	alphaTstart          1 \
	alphaTmin            1e-10 \
	updateTestStepSize   yes \
	alphaTreduceFactor   0.1 \
	alphaTincreaseFactor 3 \
	nAlphaAdjustMax      3 \
	wolfeEnergy          0.0001 \
	wolfeGradient        0.9 \
	fdTest               no
kpoint   0.000000000000   0.000000000000   0.000000000000  1.00000000000000
kpoint-folding 4 4 4 
latt-move-scale 1 1 1
latt-scale 1 1 1 
lattice  \
	  16.940150528457778    0.000000171384084    0.000000000000000  \
	   0.000000171384084   16.940150528457778    0.000000000000000  \
	   0.000000000000000    0.000000000000000   11.666977246625491 
lattice-minimize  \
	dirUpdateScheme      L-BFGS \
	linminMethod         DirUpdateRecommended \
	nIterations          0 \
	history              15 \
	knormThreshold       0 \
	maxThreshold         no \
	energyDiffThreshold  1e-06 \
	nEnergyDiff          2 \
	alphaTstart          1 \
	alphaTmin            1e-10 \
	updateTestStepSize   yes \
	alphaTreduceFactor   0.1 \
	alphaTincreaseFactor 3 \
	nAlphaAdjustMax      3 \
	wolfeEnergy          0.0001 \
	wolfeGradient        0.9 \
	fdTest               no
lcao-params -1 1e-06 0.01
pcm-variant GLSSA13
perturb-minimize  \
	nIterations            0 \
	algorithm              MINRES \
	residualTol            0.0001 \
	residualDiffThreshold  0.0001 \
	CGBypass               no \
	recomputeResidual      no
spintype no-spin
subspace-rotation-factor 1 yes
symmetries automatic
symmetry-threshold 0.0001



---------- Setting up symmetries ----------

Found 16 point-group symmetries of the bravais lattice
Found 1 space-group symmetries with basis
Applied RMS atom displacement 0 bohrs to make symmetries exact.

---------- Initializing the Grid ----------
R = 
[      16.9402  1.71384e-07            0  ]
[  1.71384e-07      16.9402            0  ]
[            0            0       11.667  ]
unit cell volume = 3348.06
G =
[   0.370905 -3.75246e-09          0  ]
[ -3.75246e-09   0.370905          0  ]
[          0          0   0.538544  ]
Minimum fftbox size, Smin = [  80  80  56  ]
Chosen fftbox size, S = [  80  80  56  ]

---------- Initializing tighter grid for wavefunction operations ----------
R = 
[      16.9402  1.71384e-07            0  ]
[  1.71384e-07      16.9402            0  ]
[            0            0       11.667  ]
unit cell volume = 3348.06
G =
[   0.370905 -3.75246e-09          0  ]
[ -3.75246e-09   0.370905          0  ]
[          0          0   0.538544  ]
Minimum fftbox size, Smin = [  72  72  48  ]
Chosen fftbox size, S = [  72  72  48  ]

---------- Exchange Correlation functional ----------
Initalized PBEsol GGA exchange.
Initalized PBEsol GGA correlation.

---------- Setting up pseudopotentials ----------
Width of ionic core gaussian charges (only for fluid interactions / plotting) set to 0

Reading pseudopotential file '/home/rc652/build/pseudopotentials/GBRV/rh_pbesol.uspp':
  Title: Rh.  Created by USPP 7.3.6 on 22-9-15
  Reference state energy: -85.126402.  15 valence electrons in orbitals:
    |410>  occupation: 6  eigenvalue: -2.052761
    |420>  occupation: 7.5  eigenvalue: -0.406047
    |500>  occupation: 1  eigenvalue: -0.295592
    |510>  occupation: 0  eigenvalue: -0.135033
  lMax: 2  lLocal: 3  QijEcut: 6.5
  7 projectors sampled on a log grid with 711 points:
    l: 0  eig: -0.295592  rCut: 2.5
    l: 0  eig: 1.000000  rCut: 2.5
    l: 1  eig: -2.052761  rCut: 1.55
    l: 1  eig: -0.135033  rCut: 1.55
    l: 2  eig: -0.406047  rCut: 1.6
    l: 2  eig: 1.500000  rCut: 1.6
    l: 2  eig: -1.500000  rCut: 1.6
  Partial core density with radius 1
  Transforming core density to a uniform radial grid of dG=0.02 with 1297 points.
  Transforming local potential to a uniform radial grid of dG=0.02 with 1297 points.
  Transforming nonlocal projectors to a uniform radial grid of dG=0.02 with 432 points.
  Transforming density augmentations to a uniform radial grid of dG=0.02 with 1297 points.
  Transforming atomic orbitals to a uniform radial grid of dG=0.02 with 432 points.
  Core radius for overlap checks: 2.50 bohrs.

Reading pseudopotential file '/home/rc652/build/pseudopotentials/GBRV/o_pbesol.uspp':
  Title: O.  Created by USPP 7.3.6 on 3-2-2014
  Reference state energy: -15.849885.  6 valence electrons in orbitals:
    |200>  occupation: 2  eigenvalue: -0.873214
    |210>  occupation: 4  eigenvalue: -0.330058
  lMax: 2  lLocal: 2  QijEcut: 6
  5 projectors sampled on a log grid with 511 points:
    l: 0  eig: -0.873214  rCut: 1.25
    l: 0  eig: 0.000000  rCut: 1.25
    l: 1  eig: -0.330058  rCut: 1.25
    l: 1  eig: 0.000000  rCut: 1.25
    l: 2  eig: 1.000000  rCut: 1.25
  Partial core density with radius 0.7
  Transforming core density to a uniform radial grid of dG=0.02 with 1297 points.
  Transforming local potential to a uniform radial grid of dG=0.02 with 1297 points.
  Transforming nonlocal projectors to a uniform radial grid of dG=0.02 with 432 points.
  Transforming density augmentations to a uniform radial grid of dG=0.02 with 1297 points.
  Transforming atomic orbitals to a uniform radial grid of dG=0.02 with 432 points.
  Core radius for overlap checks: 1.25 bohrs.

Initialized 2 species with 47 total atoms.

Folded 1 k-points by 4x4x4 to 64 k-points.

---------- Setting up k-points, bands, fillings ----------
Adding inversion symmetry to k-mesh for non-inversion-symmetric unit cell.
Reduced to 36 k-points under symmetry. 
Computing the number of bands and number of electrons
Calculating initial fillings.
nElectrons: 426.000000   nBands: 316   nStates: 36

----- Setting up reduced wavefunction bases (one per k-point) -----
average nbasis = 14303.453 , ideal nbasis = 14303.156

---------- Setting up ewald sum ----------
Optimum gaussian width for ewald sums = 3.141652 bohr.
Real space sum over 441 unit cells with max indices [  3  3  4  ]
Reciprocal space sum over 6615 terms with max indices [  10  10  7  ]

---------- Allocating electronic variables ----------
Initializing wave functions:  linear combination of atomic orbitals
Rh pseudo-atom occupations:   s ( 0 )  p ( 6 0 )  d ( 9 )
O pseudo-atom occupations:   s ( 2 )  p ( 4 )
	FillingsUpdate:  mu: +0.723748743  nElectrons: 426.000000
LCAOMinimize: Iter:   0  F: -1777.0644363396904737  |grad|_K:  6.342e-03  alpha:  1.000e+00
	FillingsUpdate:  mu: +0.570623246  nElectrons: 426.000000
LCAOMinimize: Iter:   1  F: -1798.2511773465521401  |grad|_K:  4.859e-03  alpha:  3.418e-01  linmin:  7.360e-02  cgtest: -3.518e-01  t[s]:     99.84
	FillingsUpdate:  mu: +0.545103125  nElectrons: 426.000000
LCAOMinimize: Iter:   2  F: -1798.5340870630514019  |grad|_K:  3.417e-03  alpha:  3.551e-02  linmin:  7.617e-02  cgtest:  7.187e-01  t[s]:    134.46
LCAOMinimize: Encountered beta<0, resetting CG.
	FillingsUpdate:  mu: +0.498690653  nElectrons: 426.000000
LCAOMinimize: Iter:   3  F: -1800.2495028045630079  |grad|_K:  1.884e-03  alpha:  7.997e-02  linmin: -2.431e-02  cgtest:  5.892e-02  t[s]:    168.87
	FillingsUpdate:  mu: +0.463435209  nElectrons: 426.000000
LCAOMinimize: Iter:   4  F: -1800.8476101493758961  |grad|_K:  8.229e-04  alpha:  8.968e-02  linmin: -2.372e-02  cgtest: -1.976e-02  t[s]:    204.14
	FillingsUpdate:  mu: +0.457822412  nElectrons: 426.000000
LCAOMinimize: Iter:   5  F: -1800.9724097973714834  |grad|_K:  5.193e-04  alpha:  9.850e-02  linmin: -1.536e-03  cgtest: -8.048e-02  t[s]:    238.43
	FillingsUpdate:  mu: +0.453317519  nElectrons: 426.000000
LCAOMinimize: Iter:   6  F: -1801.0056307784227556  |grad|_K:  2.354e-04  alpha:  6.740e-02  linmin:  4.523e-04  cgtest:  1.759e-02  t[s]:    272.88
	FillingsUpdate:  mu: +0.454873276  nElectrons: 426.000000
LCAOMinimize: Iter:   7  F: -1801.0168046106789461  |grad|_K:  2.153e-04  alpha:  1.122e-01  linmin:  3.554e-03  cgtest: -2.442e-03  t[s]:    307.06
	FillingsUpdate:  mu: +0.458763317  nElectrons: 426.000000
LCAOMinimize: Iter:   8  F: -1801.0285853605719240  |grad|_K:  2.085e-04  alpha:  1.431e-01  linmin:  2.380e-03  cgtest:  3.396e-02  t[s]:    341.65
	FillingsUpdate:  mu: +0.460414109  nElectrons: 426.000000
LCAOMinimize: Iter:   9  F: -1801.0357358500389182  |grad|_K:  1.416e-04  alpha:  9.169e-02  linmin: -1.492e-04  cgtest:  2.181e-02  t[s]:    376.24
	FillingsUpdate:  mu: +0.461383492  nElectrons: 426.000000
LCAOMinimize: Iter:  10  F: -1801.0383411694820097  |grad|_K:  6.432e-05  alpha:  7.162e-02  linmin:  5.352e-04  cgtest: -5.620e-03  t[s]:    411.83
	FillingsUpdate:  mu: +0.461473738  nElectrons: 426.000000
LCAOMinimize: Iter:  11  F: -1801.0389604638833134  |grad|_K:  2.829e-05  alpha:  8.294e-02  linmin:  1.383e-03  cgtest:  7.681e-03  t[s]:    446.47
	FillingsUpdate:  mu: +0.461388292  nElectrons: 426.000000
LCAOMinimize: Iter:  12  F: -1801.0390541232629857  |grad|_K:  1.590e-05  alpha:  6.486e-02  linmin:  1.311e-04  cgtest:  8.380e-03  t[s]:    480.65
	FillingsUpdate:  mu: +0.461419920  nElectrons: 426.000000
LCAOMinimize: Iter:  13  F: -1801.0390929428365325  |grad|_K:  9.402e-06  alpha:  8.488e-02  linmin:  7.486e-05  cgtest: -1.070e-03  t[s]:    514.81
	FillingsUpdate:  mu: +0.461405720  nElectrons: 426.000000
LCAOMinimize: Iter:  14  F: -1801.0391100423896660  |grad|_K:  7.606e-06  alpha:  1.070e-01  linmin:  1.297e-04  cgtest: -5.316e-05  t[s]:    549.60
	FillingsUpdate:  mu: +0.461361177  nElectrons: 426.000000
LCAOMinimize: Iter:  15  F: -1801.0391229485960594  |grad|_K:  6.569e-06  alpha:  1.234e-01  linmin:  5.011e-05  cgtest:  1.135e-03  t[s]:    583.73
	FillingsUpdate:  mu: +0.461359227  nElectrons: 426.000000
LCAOMinimize: Iter:  16  F: -1801.0391302251887282  |grad|_K:  4.708e-06  alpha:  9.325e-02  linmin: -1.747e-05  cgtest: -4.309e-04  t[s]:    618.18
	FillingsUpdate:  mu: +0.461342252  nElectrons: 426.000000
LCAOMinimize: Iter:  17  F: -1801.0391332852695996  |grad|_K:  2.222e-06  alpha:  7.632e-02  linmin:  8.415e-06  cgtest: -4.042e-04  t[s]:    652.49
	FillingsUpdate:  mu: +0.461337565  nElectrons: 426.000000
LCAOMinimize: Iter:  18  F: -1801.0391342114505733  |grad|_K:  1.452e-06  alpha:  1.037e-01  linmin: -1.761e-05  cgtest:  1.967e-04  t[s]:    687.03
	FillingsUpdate:  mu: +0.461340564  nElectrons: 426.000000
LCAOMinimize: Iter:  19  F: -1801.0391345196844668  |grad|_K:  1.105e-06  alpha:  8.075e-02  linmin:  2.981e-05  cgtest: -1.989e-04  t[s]:    721.70
LCAOMinimize: Converged (|Delta F|<1.000000e-06 for 2 iters).


---- Citations for features of the code used in this run ----

   Software package:
      R. Sundararaman, K. Letchworth-Weaver, K.A. Schwarz, D. Gunceler, Y. Ozhabes and T.A. Arias, 'JDFTx: software for joint density-functional theory', SoftwareX 6, 278 (2017)

   gga-PBEsol exchange-correlation functional:
      J.P. Perdew et al., Phys. Rev. Lett. 100, 136406 (2008)

   Pseudopotentials:
      KF Garrity, JW Bennett, KM Rabe and D Vanderbilt, Comput. Mater. Sci. 81, 446 (2014)

This list may not be complete. Please suggest additional citations or
report any other bugs at https://github.com/shankar1729/jdftx/issues

Initialization completed successfully at t[s]:    737.25


-------- Electronic minimization -----------
Will mix electronic density at each iteration.
	FillingsUpdate:  mu: +0.461340564  nElectrons: 426.000000
	FillingsUpdate:  mu: +0.455849109  nElectrons: 426.000000
SCF: Cycle:  0   F: -1802.046773572242046   dF: -1.008e+00   |Residual|: 4.373e-01   |deigs|: 3.875e-02  t[s]:    882.23
	FillingsUpdate:  mu: +0.450326288  nElectrons: 426.000000
SCF: Cycle:  1   F: -1802.035168515611986   dF: +1.161e-02   |Residual|: 2.264e-01   |deigs|: 8.893e-03  t[s]:   1000.68
	FillingsUpdate:  mu: +0.448174879  nElectrons: 426.000000
SCF: Cycle:  2   F: -1801.591097120172662   dF: +4.441e-01   |Residual|: 3.325e-01   |deigs|: 7.175e-03  t[s]:   1122.42
	FillingsUpdate:  mu: +0.446900490  nElectrons: 426.000000
SCF: Cycle:  3   F: -1801.951438716407665   dF: -3.603e-01   |Residual|: 1.994e-01   |deigs|: 5.302e-03  t[s]:   1242.86
	FillingsUpdate:  mu: +0.447479060  nElectrons: 426.000000
SCF: Cycle:  4   F: -1802.114225962277487   dF: -1.628e-01   |Residual|: 6.872e-02   |deigs|: 2.264e-03  t[s]:   1364.05
	FillingsUpdate:  mu: +0.447723409  nElectrons: 426.000000
SCF: Cycle:  5   F: -1802.124872293304406   dF: -1.065e-02   |Residual|: 3.986e-02   |deigs|: 1.178e-03  t[s]:   1467.88
	FillingsUpdate:  mu: +0.447998757  nElectrons: 426.000000
SCF: Cycle:  6   F: -1802.132619305964681   dF: -7.747e-03   |Residual|: 2.013e-02   |deigs|: 6.019e-04  t[s]:   1540.30
	FillingsUpdate:  mu: +0.448107326  nElectrons: 426.000000
SCF: Cycle:  7   F: -1802.133524532833462   dF: -9.052e-04   |Residual|: 1.325e-02   |deigs|: 2.883e-04  t[s]:   1611.92
	FillingsUpdate:  mu: +0.448142732  nElectrons: 426.000000
SCF: Cycle:  8   F: -1802.134147011269761   dF: -6.225e-04   |Residual|: 7.581e-03   |deigs|: 2.247e-04  t[s]:   1683.62
	FillingsUpdate:  mu: +0.448184583  nElectrons: 426.000000
SCF: Cycle:  9   F: -1802.134336043352960   dF: -1.890e-04   |Residual|: 2.901e-03   |deigs|: 1.111e-04  t[s]:   1754.30
	FillingsUpdate:  mu: +0.448197845  nElectrons: 426.000000
SCF: Cycle: 10   F: -1802.134351254853755   dF: -1.521e-05   |Residual|: 1.872e-03   |deigs|: 5.233e-05  t[s]:   1827.51
	FillingsUpdate:  mu: +0.448219221  nElectrons: 426.000000
SCF: Cycle: 11   F: -1802.134363442863105   dF: -1.219e-05   |Residual|: 8.961e-04   |deigs|: 3.726e-05  t[s]:   1898.89
	FillingsUpdate:  mu: +0.448225782  nElectrons: 426.000000
SCF: Cycle: 12   F: -1802.134364773935886   dF: -1.331e-06   |Residual|: 4.375e-04   |deigs|: 1.576e-05  t[s]:   1971.44
	FillingsUpdate:  mu: +0.448230293  nElectrons: 426.000000
SCF: Cycle: 13   F: -1802.134364452396767   dF: +3.215e-07   |Residual|: 4.685e-04   |deigs|: 1.316e-05  t[s]:   2044.06
	FillingsUpdate:  mu: +0.448233289  nElectrons: 426.000000
SCF: Cycle: 14   F: -1802.134365398886303   dF: -9.465e-07   |Residual|: 1.392e-04   |deigs|: 9.231e-06  t[s]:   2116.10
	FillingsUpdate:  mu: +0.448234203  nElectrons: 426.000000
SCF: Cycle: 15   F: -1802.134365404372602   dF: -5.486e-09   |Residual|: 1.065e-04   |deigs|: 5.123e-06  t[s]:   2189.56
	FillingsUpdate:  mu: +0.448235503  nElectrons: 426.000000
SCF: Cycle: 16   F: -1802.134365409601514   dF: -5.229e-09   |Residual|: 8.820e-05   |deigs|: 4.489e-06  t[s]:   2262.70
SCF: Converged (|Delta E|<1.000000e-08 for 2 iters).

Setting wave functions to eigenvectors of Hamiltonian

# Ionic positions in lattice coordinates:
ion Rh   0.014060000000000   0.002500000000000   0.016480000000000 1
ion Rh   0.253310000000000   0.255940000000000   0.257190000000000 1
ion Rh  -0.033190000000000   0.000900000000000   0.488270000000000 1
ion Rh   0.249820000000000   0.263700000000000   0.742680000000000 1
ion Rh  -0.001760000000000   0.507530000000000  -0.000800000000000 1
ion Rh   0.258750000000000   0.747710000000000   0.262460000000000 1
ion Rh   0.001020000000000   0.503120000000000   0.507540000000000 1
ion Rh   0.250410000000000   0.744140000000000   0.740810000000000 1
ion Rh   0.507480000000000   0.002470000000000   0.001500000000000 1
ion Rh   0.764130000000000   0.243370000000000   0.231630000000000 1
ion Rh   0.523570000000000   0.002080000000000   0.491880000000000 1
ion Rh   0.753420000000000   0.246200000000000   0.763970000000000 1
ion Rh   0.501620000000000   0.491230000000000  -0.011360000000000 1
ion Rh   0.743540000000000   0.743250000000000   0.223200000000000 1
ion Rh   0.492410000000000   0.493770000000000   0.496750000000000 1
ion Rh   0.759010000000000   0.746090000000000   0.762230000000000 1
ion O   0.147310000000000   0.141140000000000  -0.010420000000000 1
ion O   0.094290000000000   0.405220000000000   0.247750000000000 1
ion O   0.410460000000000   0.100800000000000   0.245250000000000 1
ion O   0.335660000000000   0.350690000000000  -0.000250000000000 1
ion O   0.148970000000000   0.168410000000000   0.476790000000000 1
ion O   0.122770000000000   0.408060000000000   0.749510000000000 1
ion O   0.380320000000000   0.089790000000000   0.765580000000000 1
ion O   0.340910000000000   0.343750000000000   0.525910000000000 1
ion O   0.152580000000000   0.659090000000000  -0.007720000000000 1
ion O   0.114610000000000   0.907730000000000   0.242700000000000 1
ion O   0.396940000000000   0.587760000000000   0.246730000000000 1
ion O   0.350290000000000   0.857050000000000  -0.002120000000000 1
ion O   0.163200000000000   0.637610000000000   0.501880000000000 1
ion O   0.088950000000000   0.888000000000000   0.738730000000000 1
ion O   0.407130000000000   0.598940000000000   0.745570000000000 1
ion O   0.355440000000000   0.839630000000000   0.497420000000000 1
ion O   0.648350000000000   0.151750000000000  -0.018460000000000 1
ion O   0.597990000000000   0.400410000000000   0.257670000000000 1
ion O   0.914360000000000   0.115940000000000   0.251840000000000 1
ion O   0.825950000000000   0.349410000000000   0.004440000000000 1
ion O   0.642750000000000   0.169080000000000   0.506570000000000 1
ion O   0.602390000000000   0.395470000000000   0.750630000000000 1
ion O   0.904360000000000   0.098520000000000   0.737020000000000 1
ion O   0.829760000000000   0.345620000000000   0.513450000000000 1
ion O   0.666230000000000   0.645200000000000  -0.007770000000000 1
ion O   0.593020000000000   0.894700000000000   0.267460000000000 1
ion O   0.908270000000000   0.593320000000000   0.245050000000000 1
ion O   0.837350000000000   0.840060000000000  -0.002860000000000 1
ion O   0.663380000000000   0.662120000000000   0.502730000000000 1
ion O   0.587710000000000   0.885820000000000   0.743250000000000 1
ion O   0.911300000000000   0.603390000000000   0.743010000000000 1

# Forces in Lattice coordinates:
force Rh  -1.217868820094186  -1.229984015933743  -0.927837853787896 1
force Rh  -0.194353850014302  -0.377198964560231  -0.597019651047599 1
force Rh   1.372850689568316  -1.036150067819467   0.271716441480682 1
force Rh  -0.121668748566083  -2.644476201045380   0.888788902547619 1
force Rh   0.597902791490020  -0.599966952052387  -0.117136758536946 1
force Rh  -0.243997547531474   0.112029369882285  -0.850223219410999 1
force Rh  -0.064598602480201  -0.853691190972882  -0.412685146776780 1
force Rh   0.170451533679451   0.598844302614494   0.384688480775966 1
force Rh  -0.894104562132577  -0.434319924005829  -0.261003514948157 1
force Rh  -1.993141619103997   0.479549837947194   1.230418524641445 1
force Rh  -1.653254886238273   0.162919723955950   0.809351546236775 1
force Rh  -0.310946217856298  -0.093242774437865  -1.125603063843970 1
force Rh  -0.059826637528415   0.279543472303469   0.455129579349976 1
force Rh   0.440160228185488   0.119209322710678   1.664543665680247 1
force Rh   0.814971846326433   0.283649231338849   0.189493400915270 1
force Rh  -0.537047089256521   0.287037070507762  -1.341201623803567 1
force O   1.211281544386352   1.493013285344724   0.110198862740073 1
force O  -0.088266950622263   0.041220083550262   0.106764208074154 1
force O   0.097285651232847   0.055042321490316   0.154632889161056 1
force O   0.526574537384212   0.257194721062394   0.024020141752256 1
force O  -0.116015488368743  -0.245312689938130   0.565755616692429 1
force O  -1.850885062784137   1.484369623446913   0.059005696572434 1
force O   0.642432778961684  -0.160976745802245  -0.326938856616485 1
force O   1.049373919716921   0.780411044701336  -1.120096376127901 1
force O   0.040345595501524  -0.095266235877671   0.233978275014358 1
force O  -0.424485099311571  -0.016024216291749   0.507527593928012 1
force O   0.223928144277919  -0.088083407221250  -0.014757189359571 1
force O  -0.242592502443822  -0.503191302854407   0.133226320834605 1
force O   0.151228724676296   0.291353506888814  -0.081637346863192 1
force O  -0.335848880910263   0.328712586495476   0.030258782765261 1
force O   0.116785186575817  -0.194979640400361  -0.004736364734470 1
force O   0.125555778254273   0.148711345057571   0.122808185460225 1
force O   0.346284188873788   0.033059814057331   0.575247676161097 1
force O  -0.078889580123812  -0.097865707341602  -0.350703081063978 1
force O   0.413676104783062  -0.600782126449797  -0.249552864972544 1
force O   1.208286943931312   1.072869761384680  -0.335286874906996 1
force O   0.441195868663552  -0.119629793209558  -0.139049084665248 1
force O  -0.458819752227222   0.402426690337520  -0.045390474034744 1
force O  -0.168024666668501  -0.008181497772661   0.500790488372131 1
force O   0.859358225524486   0.598798523751920  -0.274929823679102 1
force O  -0.837073915807065  -0.877607794800308  -0.199881506099845 1
force O   0.491431249478296  -0.230982202361985  -0.839504127270031 1
force O  -0.478090515197301   0.482073626789880   0.111283991281911 1
force O   0.918619704405167   0.956306480744479   0.170436136957264 1
force O  -0.255865217617904  -0.438126546844518  -0.192234348234599 1
force O   0.315224492949160   0.242234904405319   0.218635043680321 1
force O   0.050153907731962  -0.044536525333715   0.286777598076086 1

# Energy components:
   Eewald =    -1386.2679862027398485
       EH =      420.4632848683075395
     Eloc =    -1159.3609234806331187
      Enl =     -104.8180176935358077
      Exc =     -348.4261658111246902
 Exc_core =       65.5740005533185695
       KE =      710.9467256199091025
-------------------------------------
     Etot =    -1801.8890821464983674
       TS =        0.2452832631030442
-------------------------------------
        F =    -1802.1343654096015143

IonicMinimize: Iter:   0  F: -1802.134365409601514  |grad|_K:  4.430e-02  t[s]:   2279.84

#--- Lowdin population analysis ---
# oxidation-state Rh +0.462 +0.469 +0.296 +0.538 +0.440 +0.475 +0.444 +0.483 +0.460 +0.467 +0.466 +0.493 +0.442 +0.418 +0.449 +0.425
# oxidation-state O -0.195 -0.236 -0.231 -0.222 -0.212 -0.198 -0.269 -0.139 -0.226 -0.210 -0.213 -0.239 -0.194 -0.250 -0.208 -0.208 -0.198 -0.243 -0.135 -0.184 -0.229 -0.218 -0.210 -0.251 -0.141 -0.183 -0.206 -0.207 -0.265 -0.238 -0.188


-------- Electronic minimization -----------
Will mix electronic density at each iteration.
	FillingsUpdate:  mu: +0.448235503  nElectrons: 426.000000
	FillingsUpdate:  mu: +0.455311460  nElectrons: 426.000000
SCF: Cycle:  0   F: -1792.720823229636835   dF: +6.485e+00   |Residual|: 1.590e+00   |deigs|: 1.137e-02  t[s]:   2446.99
	FillingsUpdate:  mu: +0.462941071  nElectrons: 426.000000
SCF: Cycle:  1   F: -1789.137620984568002   dF: +3.583e+00   |Residual|: 1.922e+00   |deigs|: 2.340e-02  t[s]:   2567.33
	FillingsUpdate:  mu: +0.452174226  nElectrons: 426.000000
SCF: Cycle:  2   F: -1798.353901274403597   dF: -9.216e+00   |Residual|: 8.968e-01   |deigs|: 2.142e-02  t[s]:   2687.00
	FillingsUpdate:  mu: +0.448161438  nElectrons: 426.000000
SCF: Cycle:  3   F: -1801.298306084556543   dF: -2.944e+00   |Residual|: 4.571e-01   |deigs|: 9.361e-03  t[s]:   2808.40
	FillingsUpdate:  mu: +0.446549469  nElectrons: 426.000000
SCF: Cycle:  4   F: -1801.307735661200240   dF: -9.430e-03   |Residual|: 4.222e-01   |deigs|: 3.077e-03  t[s]:   2929.16
	FillingsUpdate:  mu: +0.446195926  nElectrons: 426.000000
SCF: Cycle:  5   F: -1802.178666439315521   dF: -8.709e-01   |Residual|: 1.419e-01   |deigs|: 3.378e-03  t[s]:   3048.78
	FillingsUpdate:  mu: +0.446344097  nElectrons: 426.000000
SCF: Cycle:  6   F: -1802.242843029423511   dF: -6.418e-02   |Residual|: 8.680e-02   |deigs|: 1.293e-03  t[s]:   3169.57
	FillingsUpdate:  mu: +0.446370286  nElectrons: 426.000000
SCF: Cycle:  7   F: -1802.253979065090334   dF: -1.114e-02   |Residual|: 5.953e-02   |deigs|: 1.037e-03  t[s]:   3288.68
	FillingsUpdate:  mu: +0.446243656  nElectrons: 426.000000
SCF: Cycle:  8   F: -1802.267115408060818   dF: -1.314e-02   |Residual|: 2.538e-02   |deigs|: 6.910e-04  t[s]:   3361.27
	FillingsUpdate:  mu: +0.446196841  nElectrons: 426.000000
SCF: Cycle:  9   F: -1802.267581751137413   dF: -4.663e-04   |Residual|: 1.478e-02   |deigs|: 3.025e-04  t[s]:   3434.03
	FillingsUpdate:  mu: +0.446162364  nElectrons: 426.000000
SCF: Cycle: 10   F: -1802.268229923089166   dF: -6.482e-04   |Residual|: 7.485e-03   |deigs|: 2.507e-04  t[s]:   3504.87
	FillingsUpdate:  mu: +0.446186699  nElectrons: 426.000000
SCF: Cycle: 11   F: -1802.268378458834604   dF: -1.485e-04   |Residual|: 4.317e-03   |deigs|: 1.295e-04  t[s]:   3576.31
	FillingsUpdate:  mu: +0.446183665  nElectrons: 426.000000
SCF: Cycle: 12   F: -1802.268418622431454   dF: -4.016e-05   |Residual|: 2.999e-03   |deigs|: 7.820e-05  t[s]:   3648.24
	FillingsUpdate:  mu: +0.446187547  nElectrons: 426.000000
SCF: Cycle: 13   F: -1802.268433497619981   dF: -1.488e-05   |Residual|: 2.286e-03   |deigs|: 6.150e-05  t[s]:   3720.82
	FillingsUpdate:  mu: +0.446184189  nElectrons: 426.000000
SCF: Cycle: 14   F: -1802.268449677381568   dF: -1.618e-05   |Residual|: 9.468e-04   |deigs|: 3.135e-05  t[s]:   3794.26
	FillingsUpdate:  mu: +0.446182279  nElectrons: 426.000000
SCF: Cycle: 15   F: -1802.268451220195630   dF: -1.543e-06   |Residual|: 7.473e-04   |deigs|: 1.992e-05  t[s]:   3866.01
	FillingsUpdate:  mu: +0.446180885  nElectrons: 426.000000
SCF: Cycle: 16   F: -1802.268453947469652   dF: -2.727e-06   |Residual|: 2.953e-04   |deigs|: 1.201e-05  t[s]:   3937.83
	FillingsUpdate:  mu: +0.446180574  nElectrons: 426.000000
SCF: Cycle: 17   F: -1802.268454128244457   dF: -1.808e-07   |Residual|: 2.094e-04   |deigs|: 5.158e-06  t[s]:   4010.92
	FillingsUpdate:  mu: +0.446180263  nElectrons: 426.000000
SCF: Cycle: 18   F: -1802.268454213189671   dF: -8.495e-08   |Residual|: 1.408e-04   |deigs|: 4.318e-06  t[s]:   4081.99
	FillingsUpdate:  mu: +0.446180142  nElectrons: 426.000000
SCF: Cycle: 19   F: -1802.268454314315250   dF: -1.011e-07   |Residual|: 5.497e-05   |deigs|: 2.234e-06  t[s]:   4153.75
	FillingsUpdate:  mu: +0.446180031  nElectrons: 426.000000
SCF: Cycle: 20   F: -1802.268454315269082   dF: -9.538e-10   |Residual|: 4.260e-05   |deigs|: 9.037e-07  t[s]:   4226.10
	FillingsUpdate:  mu: +0.446179960  nElectrons: 426.000000
SCF: Cycle: 21   F: -1802.268454319353623   dF: -4.085e-09   |Residual|: 2.931e-05   |deigs|: 8.447e-07  t[s]:   4299.36
SCF: Converged (|Delta E|<1.000000e-08 for 2 iters).

Setting wave functions to eigenvectors of Hamiltonian

# Ionic positions in lattice coordinates:
ion Rh   0.011618924070542   0.000034627192740   0.012559388634711 1
ion Rh   0.252920451383273   0.255183944460130   0.254667334448183 1
ion Rh  -0.030438253087951  -0.001176853294134   0.489418371814029 1
ion Rh   0.249576141062309   0.258399427385549   0.746435948593093 1
ion Rh  -0.000561554085235   0.506327429592548  -0.001294813774058 1
ion Rh   0.258260945829994   0.747934550839707   0.258867366515894 1
ion Rh   0.000890532052667   0.501408866256848   0.505796280849527 1
ion Rh   0.250751665095293   0.745340319792359   0.742435760265039 1
ion Rh   0.505687875200403   0.001599451575526   0.000397245283887 1
ion Rh   0.760134971792111   0.244331206761294   0.236829580461013 1
ion Rh   0.520256238760344   0.002406555221321   0.495300268395425 1
ion Rh   0.752796754319824   0.246013104571458   0.759213687802175 1
ion Rh   0.501500096905008   0.491790315107528  -0.009436575223056 1
ion Rh   0.744422267625469   0.743488942266907   0.230234072693940 1
ion Rh   0.494043537807499   0.494338544631155   0.497550920088649 1
ion Rh   0.757933559056174   0.746665335250765   0.756562628187591 1
ion O   0.149737898571282   0.144132586766085  -0.009954156599257 1
ion O   0.094113091319462   0.405302621119023   0.248201329504376 1
ion O   0.410655011855678   0.100910326323404   0.245903609251281 1
ion O   0.336715475949700   0.351205519379052  -0.000148323931095 1
ion O   0.148737472326281   0.167918296525103   0.479180899675492 1
ion O   0.119060109950756   0.411035261585536   0.749759515303529 1
ion O   0.381607701540253   0.089467338961541   0.764198620848830 1
ion O   0.343013371915710   0.345314251059764   0.521176957534539 1
ion O   0.152660881551124   0.658899048743078  -0.006731099192653 1
ion O   0.113759177654798   0.907697880996914   0.244844844228797 1
ion O   0.397388853324881   0.587583445954873   0.246667813841143 1
ion O   0.349803762119002   0.856041406165023  -0.001556848959074 1
ion O   0.163503135023188   0.638193987062382   0.501535196876864 1
ion O   0.088276839552297   0.888658869400152   0.738858038832543 1
ion O   0.407364096619032   0.598549183782208   0.745550159061920 1
ion O   0.355691676327136   0.839928075958620   0.497939126895307 1
ion O   0.649044103051467   0.151816264705532  -0.016028989518375 1
ion O   0.597831887271020   0.400213838382699   0.256188199838736 1
ion O   0.915189183034495   0.114735795669282   0.250785632549347 1
ion O   0.828371896228896   0.351560453573826   0.003023344442867 1
ion O   0.643634343466799   0.168840214556725   0.505982590823631 1
ion O   0.601470357462767   0.396276621518529   0.750438366090959 1
ion O   0.904023225427549   0.098503600885088   0.739136375092489 1
ion O   0.831482505590437   0.346820228005537   0.512288396572340 1
ion O   0.664552187108283   0.643440927989041  -0.008614470088264 1
ion O   0.594005034971252   0.894237020444935   0.263912662421193 1
ion O   0.907311731256314   0.594286265367264   0.245520428852479 1
ion O   0.839191288933406   0.841976814835857  -0.002139610614153 1
ion O   0.662867158364637   0.661241821577356   0.501917844676263 1
ion O   0.588341847172331   0.886305534019671   0.744174064574544 1
ion O   0.911400541272041   0.603300731074200   0.744222016077356 1

# Forces in Lattice coordinates:
force Rh  -0.802961761265918  -0.732086663332743  -0.805450253236535 1
force Rh  -0.196670390124004  -0.341026826677639  -0.406277041551856 1
force Rh   1.293936065931597  -0.830400672651195   0.229240971363091 1
force Rh  -0.230287386484422  -1.473597474347813   0.419697748245899 1
force Rh   0.406128001712781  -0.472015488290695  -0.061707025596526 1
force Rh  -0.209816085821929   0.086674759594557  -0.623686384826764 1
force Rh  -0.043172376058681  -0.583633481372994  -0.311562047141300 1
force Rh   0.146563005514311   0.462921241313663   0.269515982775303 1
force Rh  -0.647533384447975  -0.331437736557149  -0.143057453406279 1
force Rh  -1.393743233249201   0.486020380367675   0.821844568286858 1
force Rh  -1.438158229975519  -0.015096690940630   0.527347416864696 1
force Rh  -0.267057165906993   0.043089582497692  -0.686555811271188 1
force Rh  -0.026756305723377   0.282999262108493   0.354097841891884 1
force Rh   0.434686105847417   0.101302404564370   1.131970865574228 1
force Rh   0.708369692225342   0.267806790391200   0.145765765016706 1
force Rh  -0.365699844798474   0.298336952834493  -0.891140833488698 1
force O   0.750308833415807   0.984027655331376   0.167901661499593 1
force O  -0.034940020362295  -0.009310920949820   0.063806327205703 1
force O   0.074246025667035   0.045293463706899   0.134728183664248 1
force O   0.413449546944646   0.156441302584326   0.011085982844458 1
force O  -0.085696211556106  -0.228293206407364   0.497124779865482 1
force O  -1.197406683674907   0.792167366635885   0.036146879244903 1
force O   0.666947356919822  -0.216617845546313  -0.332220224110846 1
force O   0.528453102597920   0.372011041397645  -0.697198017104776 1
force O   0.056231958886279  -0.072868663239492   0.209244273146456 1
force O  -0.460344886290955   0.028454795377708   0.391089432924203 1
force O   0.217434641671761  -0.059645313021344  -0.014529890451700 1
force O  -0.255295304250543  -0.475760615573454   0.099735291922955 1
force O   0.105803908196186   0.284560156252170  -0.092232276741826 1
force O  -0.294723525475677   0.295013013642499   0.033663765324603 1
force O   0.093671279901519  -0.149557444364629   0.030005510385999 1
force O   0.077418455560104   0.122934763010327   0.071670784146261 1
force O   0.329194391310022   0.037885579978641   0.457860828098751 1
force O  -0.088396502927168  -0.073155277862913  -0.279688956650277 1
force O   0.149373578335641  -0.450870153095410  -0.200994306436771 1
force O   0.921540005058653   0.622642855206928  -0.204259516862661 1
force O   0.354834127445740  -0.205849615711821  -0.158728514602678 1
force O  -0.393699917493311   0.336870255461808  -0.049513850419264 1
force O  -0.126228920958009  -0.083531509609329   0.384742482683611 1
force O   0.748506258292663   0.497882013537783  -0.280843188845927 1
force O  -0.558278741867299  -0.537202057755847  -0.063802937215410 1
force O   0.325933605657372  -0.000588582197484  -0.596745200192980 1
force O  -0.352282087381757   0.363586503502323   0.102231560576154 1
force O   0.636645314860755   0.629755029874807   0.117122217682052 1
force O  -0.291576180637058  -0.467427043155677  -0.170313568758542 1
force O   0.269762329862879   0.265997649825652   0.174625563132066 1
force O   0.053058735851728  -0.053545217203098   0.185381217405478 1

# Energy components:
   Eewald =    -1389.9932831347332467
       EH =      417.0202150329259325
     Eloc =    -1151.8702425805063285
      Enl =     -104.8849711849024402
      Exc =     -348.2651637305549457
 Exc_core =       65.5739811653574947
       KE =      710.3921351921062524
-------------------------------------
     Etot =    -1802.0273292403071537
       TS =        0.2411250790464174
-------------------------------------
        F =    -1802.2684543193536229

IonicMinimize: Iter:   1  F: -1802.268454319353623  |grad|_K:  3.120e-02  alpha:  5.752e-01  linmin: -9.829e-01  t[s]:   4316.34

#--- Lowdin population analysis ---
# oxidation-state Rh +0.457 +0.476 +0.309 +0.516 +0.451 +0.476 +0.454 +0.483 +0.466 +0.464 +0.460 +0.495 +0.453 +0.410 +0.458 +0.414
# oxidation-state O -0.205 -0.227 -0.228 -0.216 -0.210 -0.212 -0.252 -0.164 -0.222 -0.209 -0.215 -0.231 -0.199 -0.240 -0.207 -0.212 -0.205 -0.236 -0.151 -0.203 -0.222 -0.218 -0.207 -0.241 -0.158 -0.193 -0.210 -0.219 -0.245 -0.231 -0.191


-------- Electronic minimization -----------
Will mix electronic density at each iteration.
	FillingsUpdate:  mu: +0.446179960  nElectrons: 426.000000
	FillingsUpdate:  mu: +0.453749427  nElectrons: 426.000000
SCF: Cycle:  0   F: -1789.717249151236274   dF: +9.141e+00   |Residual|: 1.748e+00   |deigs|: 1.246e-02  t[s]:   4483.03
	FillingsUpdate:  mu: +0.466049111  nElectrons: 426.000000
SCF: Cycle:  1   F: -1780.843640443961931   dF: +8.874e+00   |Residual|: 2.300e+00   |deigs|: 3.158e-02  t[s]:   4602.64
	FillingsUpdate:  mu: +0.451729040  nElectrons: 426.000000
SCF: Cycle:  2   F: -1797.050795229526102   dF: -1.621e+01   |Residual|: 1.065e+00   |deigs|: 2.852e-02  t[s]:   4721.95
	FillingsUpdate:  mu: +0.446692776  nElectrons: 426.000000
SCF: Cycle:  3   F: -1801.547654886047212   dF: -4.497e+00   |Residual|: 4.651e-01   |deigs|: 1.274e-02  t[s]:   4843.54
	FillingsUpdate:  mu: +0.446109781  nElectrons: 426.000000
SCF: Cycle:  4   F: -1801.337899189997188   dF: +2.098e-01   |Residual|: 4.550e-01   |deigs|: 3.864e-03  t[s]:   4963.87
	FillingsUpdate:  mu: +0.444820386  nElectrons: 426.000000
SCF: Cycle:  5   F: -1802.194642632448449   dF: -8.567e-01   |Residual|: 1.817e-01   |deigs|: 5.675e-03  t[s]:   5084.19
	FillingsUpdate:  mu: +0.444858113  nElectrons: 426.000000
SCF: Cycle:  6   F: -1802.270419394267037   dF: -7.578e-02   |Residual|: 1.459e-01   |deigs|: 1.197e-03  t[s]:   5204.99
	FillingsUpdate:  mu: +0.444856707  nElectrons: 426.000000
SCF: Cycle:  7   F: -1802.353096443332333   dF: -8.268e-02   |Residual|: 7.045e-02   |deigs|: 8.937e-04  t[s]:   5326.45
	FillingsUpdate:  mu: +0.444821705  nElectrons: 426.000000
SCF: Cycle:  8   F: -1802.367642360386526   dF: -1.455e-02   |Residual|: 2.883e-02   |deigs|: 5.256e-04  t[s]:   5404.86
	FillingsUpdate:  mu: +0.444792548  nElectrons: 426.000000
SCF: Cycle:  9   F: -1802.367383524213892   dF: +2.588e-04   |Residual|: 2.201e-02   |deigs|: 3.372e-04  t[s]:   5477.84
	FillingsUpdate:  mu: +0.444727090  nElectrons: 426.000000
SCF: Cycle: 10   F: -1802.369252210527748   dF: -1.869e-03   |Residual|: 6.245e-03   |deigs|: 2.696e-04  t[s]:   5550.09
	FillingsUpdate:  mu: +0.444744716  nElectrons: 426.000000
SCF: Cycle: 11   F: -1802.369200514605382   dF: +5.170e-05   |Residual|: 5.700e-03   |deigs|: 1.142e-04  t[s]:   5623.32
	FillingsUpdate:  mu: +0.444741659  nElectrons: 426.000000
SCF: Cycle: 12   F: -1802.369288541240849   dF: -8.803e-05   |Residual|: 3.780e-03   |deigs|: 1.045e-04  t[s]:   5696.56
	FillingsUpdate:  mu: +0.444752664  nElectrons: 426.000000
SCF: Cycle: 13   F: -1802.369326448037100   dF: -3.791e-05   |Residual|: 2.524e-03   |deigs|: 6.346e-05  t[s]:   5768.42
	FillingsUpdate:  mu: +0.444743048  nElectrons: 426.000000
SCF: Cycle: 14   F: -1802.369342176752070   dF: -1.573e-05   |Residual|: 1.124e-03   |deigs|: 3.454e-05  t[s]:   5840.72
	FillingsUpdate:  mu: +0.444741052  nElectrons: 426.000000
SCF: Cycle: 15   F: -1802.369347146581731   dF: -4.970e-06   |Residual|: 5.542e-04   |deigs|: 1.868e-05  t[s]:   5913.98
	FillingsUpdate:  mu: +0.444738034  nElectrons: 426.000000
SCF: Cycle: 16   F: -1802.369347731520975   dF: -5.849e-07   |Residual|: 3.297e-04   |deigs|: 8.538e-06  t[s]:   5986.50
	FillingsUpdate:  mu: +0.444739630  nElectrons: 426.000000
SCF: Cycle: 17   F: -1802.369347789375752   dF: -5.785e-08   |Residual|: 2.549e-04   |deigs|: 6.344e-06  t[s]:   6059.10
	FillingsUpdate:  mu: +0.444739207  nElectrons: 426.000000
SCF: Cycle: 18   F: -1802.369347924600106   dF: -1.352e-07   |Residual|: 1.547e-04   |deigs|: 4.741e-06  t[s]:   6131.78
	FillingsUpdate:  mu: +0.444738866  nElectrons: 426.000000
SCF: Cycle: 19   F: -1802.369348034624636   dF: -1.100e-07   |Residual|: 4.989e-05   |deigs|: 2.357e-06  t[s]:   6204.39
	FillingsUpdate:  mu: +0.444738750  nElectrons: 426.000000
SCF: Cycle: 20   F: -1802.369348033045071   dF: +1.580e-09   |Residual|: 4.313e-05   |deigs|: 8.802e-07  t[s]:   6276.19
	FillingsUpdate:  mu: +0.444738788  nElectrons: 426.000000
SCF: Cycle: 21   F: -1802.369348039216902   dF: -6.172e-09   |Residual|: 2.722e-05   |deigs|: 7.865e-07  t[s]:   6349.04
	FillingsUpdate:  mu: +0.444738829  nElectrons: 426.000000
SCF: Cycle: 22   F: -1802.369348041001103   dF: -1.784e-09   |Residual|: 1.741e-05   |deigs|: 5.523e-07  t[s]:   6422.26
SCF: Converged (|Delta E|<1.000000e-08 for 2 iters).

Setting wave functions to eigenvectors of Hamiltonian

# Ionic positions in lattice coordinates:
ion Rh   0.009426747730991  -0.001658525290793   0.006342902143101 1
ion Rh   0.252117893835180   0.253895234093870   0.252226525304581 1
ion Rh  -0.025400507792225  -0.004014145728761   0.491147319274228 1
ion Rh   0.248366002337150   0.255422222961594   0.747494052868101 1
ion Rh   0.000592991146119   0.504742677701272  -0.001522557854515 1
ion Rh   0.257498359781275   0.748220614081143   0.254763270981626 1
ion Rh   0.000770163518330   0.499735026720115   0.503681560077806 1
ion Rh   0.251283874056009   0.746867565409904   0.744117154967941 1
ion Rh   0.503695206961526   0.000519922973172  -0.000188409575334 1
ion Rh   0.756021668987890   0.246315608069687   0.241646551404436 1
ion Rh   0.514981722729837   0.001890674358526   0.498284569072300 1
ion Rh   0.751827171803053   0.246535567001791   0.755716964195026 1
ion Rh   0.501475936550394   0.492944925295764  -0.006956989797547 1
ion Rh   0.746168195704047   0.743853255751645   0.237030978699534 1
ion Rh   0.496639448138096   0.495382355449268   0.498560511625886 1
ion Rh   0.756890024047788   0.747902083197991   0.751378687249101 1
ion O   0.151598702099438   0.146817282965500  -0.008209530040563 1
ion O   0.094107520539965   0.405135718814032   0.248515390278389 1
ion O   0.410896555812431   0.101068675747416   0.246947228632323 1
ion O   0.338100510606989   0.351581547375625  -0.000122691718506 1
ion O   0.148467621751234   0.167037169114229   0.483055918192267 1
ion O   0.115879932053750   0.412475191710258   0.749945657721048 1
ion O   0.384370704059969   0.088447940340669   0.761334701743900 1
ion O   0.343822730909401   0.345777569543122   0.517502443353643 1
ion O   0.152928883751573   0.658661014849720  -0.005077346828903 1
ion O   0.111803267162845   0.907926523554195   0.247557278506790 1
ion O   0.398252462942260   0.587414382548405   0.246545623841990 1
ion O   0.348737292334079   0.854184796476061  -0.000885102191188 1
ion O   0.163815302687923   0.639328745268526   0.500691410894555 1
ion O   0.087188170307179   0.889767245847050   0.739164377986513 1
ion O   0.407684109495071   0.598059410693173   0.745993974633051 1
ion O   0.355881976190365   0.840359889086548   0.498276289756961 1
ion O   0.650333201901265   0.151981835572811  -0.012751645715295 1
ion O   0.597449401088529   0.399980550092287   0.254183478925413 1
ion O   0.915118844865928   0.113292746493594   0.249331822948783 1
ion O   0.831370973269157   0.352931843892759   0.001985642098815 1
ion O   0.644850370399727   0.167786333013836   0.504522229282248 1
ion O   0.600042176552718   0.397473139719249   0.749994101078375 1
ion O   0.903618552569506   0.097972778976708   0.741796726907023 1
ion O   0.834230088274966   0.348578433797496   0.509859672700584 1
ion O   0.663003225401244   0.642134745756280  -0.008425922810007 1
ion O   0.594901951427851   0.894822814565390   0.260125893358036 1
ion O   0.906206239494252   0.595455800229121   0.246345054345370 1
ion O   0.841048930527319   0.843692825636895  -0.001426153582387 1
ion O   0.661595022300911   0.659274086623801   0.500582543655663 1
ion O   0.589317835549538   0.887443156057199   0.745428510325207 1
ion O   0.911622544137158   0.603060743591860   0.745259331083633 1

# Forces in Lattice coordinates:
force Rh  -0.574774640928802  -0.366224536388501  -0.518159821984571 1
force Rh  -0.154989036941764  -0.265225458204686  -0.237992430585364 1
force Rh   1.090267548751190  -0.510522981830797   0.143997609993302 1
force Rh  -0.127573364156277  -0.919480481976968   0.261127600306924 1
force Rh   0.213192054299540  -0.295097599305942  -0.016505434539944 1
force Rh  -0.174450424108198   0.047305628716771  -0.368554358246868 1
force Rh  -0.009429323431047  -0.299961698109800  -0.198753511704264 1
force Rh   0.098994020233651   0.292839074651280   0.155408533683616 1
force Rh  -0.378817206911441  -0.224888712338014  -0.055946772664193 1
force Rh  -0.820366185902924   0.369556565454515   0.493883776505208 1
force Rh  -1.096518293501227  -0.053874649873444   0.312571973808761 1
force Rh  -0.166700874917704   0.128911391629191  -0.392217375800076 1
force Rh  -0.014077715506615   0.254830382457170   0.235943532613088 1
force Rh   0.336614648023531   0.134004095822488   0.722885255527763 1
force Rh   0.486301841573067   0.199893679901419   0.092439008190157 1
force Rh  -0.240901808509609   0.204835163764896  -0.544683288111810 1
force O   0.454222971819108   0.622077656226965   0.140962439367131 1
force O   0.013086337017503  -0.058495688404334   0.023863351920733 1
force O   0.019484089204021   0.035916025927637   0.102634945628722 1
force O   0.286425408936751   0.049222791040852  -0.014194595419841 1
force O  -0.085358846764646  -0.223921814966137   0.392550627729848 1
force O  -0.851356330587778   0.448395888992250   0.022790788729614 1
force O   0.568235430294480  -0.158932733576850  -0.303470157518967 1
force O   0.342067825914469   0.225422583742412  -0.527658275176431 1
force O   0.054660393740241  -0.059813332976302   0.157069562552508 1
force O  -0.459004437772710   0.031605071903306   0.242305021773985 1
force O   0.188118869481893  -0.008651785307553  -0.006307899851209 1
force O  -0.221005315135443  -0.381410185994550   0.059291295372672 1
force O   0.056111027823112   0.262396368192318  -0.087784522512465 1
force O  -0.196886508341318   0.214213450584803   0.024069524782814 1
force O   0.059599198045467  -0.090114622851621   0.059183968240797 1
force O   0.017800196568320   0.088594818159588   0.025203492061187 1
force O   0.230589202438289   0.003230635379627   0.343583262612108 1
force O  -0.103977337763423  -0.031292945542361  -0.191851950046129 1
force O  -0.013482913247147  -0.398919105569216  -0.129686930118578 1
force O   0.671635460597283   0.320970274234698  -0.127521459156501 1
force O   0.226393697271846  -0.302567711782691  -0.132584961511280 1
force O  -0.290148346441385   0.246448387168113  -0.035404748908923 1
force O  -0.088517829619743  -0.138521366735420   0.249279438625756 1
force O   0.551501016155497   0.331778640631971  -0.227442578176140 1
force O  -0.331171380928469  -0.272293518976618   0.005335730551241 1
force O   0.222604975582042   0.113386946604394  -0.390118089320759 1
force O  -0.196645453522959   0.222928439155065   0.085204588374711 1
force O   0.430880433144286   0.393204964420318   0.060701746264935 1
force O  -0.261998271543988  -0.418396051245268  -0.127900182675375 1
force O   0.205293473629306   0.278173882827072   0.124549803253436 1
force O   0.032474282630474  -0.037989686032631   0.094221032712087 1

# Energy components:
   Eewald =    -1392.6145071312378150
       EH =      414.5504378404498311
     Eloc =    -1146.5482709455993700
      Enl =     -104.9286902185785948
      Exc =     -348.1529871682575958
 Exc_core =       65.5739743964764443
       KE =      709.9866852368323862
-------------------------------------
     Etot =    -1802.1333579899151118
       TS =        0.2359900510860396
-------------------------------------
        F =    -1802.3693480410011034

IonicMinimize: Iter:   2  F: -1802.369348041001103  |grad|_K:  2.115e-02  alpha:  3.675e-01  linmin: -9.873e-01  t[s]:   6439.03

#--- Lowdin population analysis ---
# oxidation-state Rh +0.456 +0.478 +0.322 +0.505 +0.459 +0.476 +0.461 +0.480 +0.470 +0.466 +0.457 +0.494 +0.464 +0.402 +0.463 +0.400
# oxidation-state O -0.209 -0.219 -0.225 -0.216 -0.209 -0.213 -0.243 -0.182 -0.218 -0.212 -0.216 -0.223 -0.207 -0.227 -0.209 -0.214 -0.211 -0.227 -0.175 -0.215 -0.220 -0.217 -0.208 -0.233 -0.172 -0.203 -0.211 -0.226 -0.226 -0.224 -0.197


-------- Electronic minimization -----------
Will mix electronic density at each iteration.
	FillingsUpdate:  mu: +0.444738829  nElectrons: 426.000000
	FillingsUpdate:  mu: +0.450564868  nElectrons: 426.000000
SCF: Cycle:  0   F: -1793.061980328286154   dF: +7.102e+00   |Residual|: 1.401e+00   |deigs|: 7.964e-03  t[s]:   6605.81
	FillingsUpdate:  mu: +0.461010839  nElectrons: 426.000000
SCF: Cycle:  1   F: -1779.492876577684683   dF: +1.357e+01   |Residual|: 2.155e+00   |deigs|: 2.919e-02  t[s]:   6726.11
	FillingsUpdate:  mu: +0.448260595  nElectrons: 426.000000
SCF: Cycle:  2   F: -1798.993584143488988   dF: -1.950e+01   |Residual|: 8.471e-01   |deigs|: 2.881e-02  t[s]:   6846.26
	FillingsUpdate:  mu: +0.445391316  nElectrons: 426.000000
SCF: Cycle:  3   F: -1801.737299757982328   dF: -2.744e+00   |Residual|: 4.050e-01   |deigs|: 9.822e-03  t[s]:   6965.07
	FillingsUpdate:  mu: +0.445196918  nElectrons: 426.000000
SCF: Cycle:  4   F: -1801.849986953191546   dF: -1.127e-01   |Residual|: 3.448e-01   |deigs|: 3.019e-03  t[s]:   7085.02
	FillingsUpdate:  mu: +0.444258307  nElectrons: 426.000000
SCF: Cycle:  5   F: -1802.337569899096707   dF: -4.876e-01   |Residual|: 1.320e-01   |deigs|: 4.157e-03  t[s]:   7204.87
	FillingsUpdate:  mu: +0.444278020  nElectrons: 426.000000
SCF: Cycle:  6   F: -1802.334481946740652   dF: +3.088e-03   |Residual|: 1.342e-01   |deigs|: 1.548e-03  t[s]:   7324.47
	FillingsUpdate:  mu: +0.444111900  nElectrons: 426.000000
SCF: Cycle:  7   F: -1802.419717426591433   dF: -8.524e-02   |Residual|: 4.688e-02   |deigs|: 1.250e-03  t[s]:   7443.64
	FillingsUpdate:  mu: +0.444150507  nElectrons: 426.000000
SCF: Cycle:  8   F: -1802.425844823364969   dF: -6.127e-03   |Residual|: 2.017e-02   |deigs|: 3.501e-04  t[s]:   7515.84
	FillingsUpdate:  mu: +0.444148435  nElectrons: 426.000000
SCF: Cycle:  9   F: -1802.426170546931644   dF: -3.257e-04   |Residual|: 1.485e-02   |deigs|: 2.508e-04  t[s]:   7587.89
	FillingsUpdate:  mu: +0.444134893  nElectrons: 426.000000
SCF: Cycle: 10   F: -1802.427081563875845   dF: -9.110e-04   |Residual|: 4.462e-03   |deigs|: 1.674e-04  t[s]:   7661.23
	FillingsUpdate:  mu: +0.444133042  nElectrons: 426.000000
SCF: Cycle: 11   F: -1802.427071598189514   dF: +9.966e-06   |Residual|: 4.388e-03   |deigs|: 5.801e-05  t[s]:   7732.30
	FillingsUpdate:  mu: +0.444146525  nElectrons: 426.000000
SCF: Cycle: 12   F: -1802.427084271967942   dF: -1.267e-05   |Residual|: 3.848e-03   |deigs|: 8.572e-05  t[s]:   7805.21
	FillingsUpdate:  mu: +0.444137580  nElectrons: 426.000000
SCF: Cycle: 13   F: -1802.427130320149672   dF: -4.605e-05   |Residual|: 1.558e-03   |deigs|: 6.018e-05  t[s]:   7877.13
	FillingsUpdate:  mu: +0.444135832  nElectrons: 426.000000
SCF: Cycle: 14   F: -1802.427130054807321   dF: +2.653e-07   |Residual|: 1.205e-03   |deigs|: 3.131e-05  t[s]:   7948.79
	FillingsUpdate:  mu: +0.444134463  nElectrons: 426.000000
SCF: Cycle: 15   F: -1802.427138427113050   dF: -8.372e-06   |Residual|: 5.280e-04   |deigs|: 1.883e-05  t[s]:   8020.34
	FillingsUpdate:  mu: +0.444134223  nElectrons: 426.000000
SCF: Cycle: 16   F: -1802.427139019939204   dF: -5.928e-07   |Residual|: 2.706e-04   |deigs|: 7.043e-06  t[s]:   8092.56
	FillingsUpdate:  mu: +0.444133986  nElectrons: 426.000000
SCF: Cycle: 17   F: -1802.427138662522566   dF: +3.574e-07   |Residual|: 3.262e-04   |deigs|: 6.633e-06  t[s]:   8164.17
	FillingsUpdate:  mu: +0.444133799  nElectrons: 426.000000
SCF: Cycle: 18   F: -1802.427139242650355   dF: -5.801e-07   |Residual|: 8.090e-05   |deigs|: 4.838e-06  t[s]:   8235.65
	FillingsUpdate:  mu: +0.444133465  nElectrons: 426.000000
SCF: Cycle: 19   F: -1802.427139262566698   dF: -1.992e-08   |Residual|: 4.967e-05   |deigs|: 1.550e-06  t[s]:   8308.41
	FillingsUpdate:  mu: +0.444133378  nElectrons: 426.000000
SCF: Cycle: 20   F: -1802.427139269725785   dF: -7.159e-09   |Residual|: 2.915e-05   |deigs|: 9.534e-07  t[s]:   8381.34
	FillingsUpdate:  mu: +0.444133463  nElectrons: 426.000000
SCF: Cycle: 21   F: -1802.427139272307613   dF: -2.582e-09   |Residual|: 1.484e-05   |deigs|: 6.152e-07  t[s]:   8454.20
SCF: Converged (|Delta E|<1.000000e-08 for 2 iters).

Setting wave functions to eigenvectors of Hamiltonian

# Ionic positions in lattice coordinates:
ion Rh   0.007322914330086  -0.002121920845222   0.002020484242342 1
ion Rh   0.251339841137514   0.252630613286089   0.250833533367504 1
ion Rh  -0.019837441805866  -0.005823299091239   0.492296368910480 1
ion Rh   0.247744291648237   0.253243007773972   0.748385530276417 1
ion Rh   0.001051336248435   0.503689652940715  -0.001316725464004 1
ion Rh   0.256646003171615   0.748354557002551   0.252371320336903 1
ion Rh   0.000831108882772   0.499120609125412   0.502199660404621 1
ion Rh   0.251693424872392   0.747912287722254   0.745034511182979 1
ion Rh   0.502564332148300  -0.000345279564476  -0.000047988643060 1
ion Rh   0.753643703138617   0.248129900946203   0.244613859459811 1
ion Rh   0.509919107475639   0.001236382625602   0.500055261645816 1
ion Rh   0.751193784681716   0.247671740812289   0.753881807065559 1
ion Rh   0.501474743738064   0.494323778415460  -0.005056190276503 1
ion Rh   0.747825392167231   0.744668047043697   0.241940223813494 1
ion Rh   0.498694175317661   0.496323843754489   0.499256688824308 1
ion Rh   0.756077193326239   0.748846510114578   0.748027127980459 1
ion O   0.152786080884766   0.148723764543446  -0.006492614680724 1
ion O   0.094376714272660   0.404609934247285   0.248464406883353 1
ion O   0.410838769814316   0.101234592119144   0.247947469136741 1
ion O   0.339248921417594   0.351451196144205  -0.000462120799092 1
ion O   0.148027860608912   0.165802271370700   0.486995973897888 1
ion O   0.112838698450945   0.413182858460101   0.750080970895329 1
ion O   0.387381676475386   0.087610844097688   0.757843949391477 1
ion O   0.344561746909144   0.346112614077694   0.513347561143240 1
ion O   0.153257619846306   0.658385503308913  -0.003546096180782 1
ion O   0.109154340634064   0.908175886511781   0.249327838896139 1
ion O   0.399237135466587   0.587531580835644   0.246515028589283 1
ion O   0.347551986824340   0.852295261352826  -0.000487077025010 1
ion O   0.163946011116663   0.640750874869042   0.499635104873623 1
ion O   0.086373515532710   0.890732634107067   0.739413063385637 1
ion O   0.407904952128062   0.597759872568314   0.746958704151490 1
ion O   0.355767052578547   0.840739756132661   0.498182764947549 1
ion O   0.651371639615517   0.151920385036597  -0.009593082660593 1
ion O   0.596808201306159   0.399941470452924   0.252563508139869 1
ion O   0.914264272769365   0.111372179611854   0.248301204040674 1
ion O   0.834152045182414   0.353364359598156   0.001255518635283 1
ion O   0.645692886410681   0.165708563809404   0.503016950790373 1
ion O   0.598747044952775   0.398552253087618   0.749633609883864 1
ion O   0.903269892238110   0.096943830961353   0.743721498141686 1
ion O   0.836710568010113   0.349903324306631   0.507404549532070 1
ion O   0.662084787434555   0.641730210831817  -0.007593071149612 1
ion O   0.595673252759278   0.896074061475316   0.257270892358631 1
ion O   0.905656317642829   0.596201963469431   0.247248229581121 1
ion O   0.842581633022273   0.844871547104228  -0.001154046115055 1
ion O   0.660133080009635   0.656982093148373   0.499342570609283 1
ion O   0.590257432461297   0.889083213468989   0.746524583570363 1
ion O   0.911759952745346   0.602870666828426   0.745606684008769 1

# Forces in Lattice coordinates:
force Rh  -0.436630551910213  -0.160567037274064  -0.303379384138640 1
force Rh  -0.098989881503746  -0.178188138048391  -0.136993663313596 1
force Rh   0.838679878752316  -0.238321005246407   0.095501252458423 1
force Rh  -0.028579211306378  -0.542467593116905   0.133586775518512 1
force Rh   0.121725023808499  -0.170617840492027  -0.010857645831074 1
force Rh  -0.152300363993686   0.027675943345652  -0.222218864088906 1
force Rh   0.027001297383762  -0.141276464655639  -0.135113335109797 1
force Rh   0.048448231652121   0.171373474367596   0.102457071370827 1
force Rh  -0.228099916100390  -0.166587132031633  -0.027319158704557 1
force Rh  -0.487897975760096   0.228549068166068   0.301663701089723 1
force Rh  -0.743791026878308  -0.053597843679814   0.172597499337742 1
force Rh  -0.107615636238652   0.091024046136689  -0.256593335705899 1
force Rh  -0.014916137613283   0.200192484848477   0.148885295668227 1
force Rh   0.223083053645606   0.140208267177059   0.479983651458547 1
force Rh   0.292974532369322   0.139338487973426   0.043407942549524 1
force Rh  -0.185092429614721   0.107434571467163  -0.359766980938218 1
force O   0.275167086612120   0.387887356599863   0.102731772093583 1
force O   0.023784958372978  -0.069656794413391   0.007632034187128 1
force O  -0.033180494223621   0.021694171743615   0.072948399116812 1
force O   0.206233316436910  -0.011682022020797  -0.015426686497393 1
force O  -0.081406300700144  -0.216622822376226   0.297406400031997 1
force O  -0.593034868761976   0.212458677644202   0.019112958792070 1
force O   0.433929754670877  -0.082011157735654  -0.231397007679073 1
force O   0.206886546938705   0.121941120533978  -0.374885000671484 1
force O   0.034886587572982  -0.061161743716456   0.107023947376604 1
force O  -0.379030903314753  -0.020621767402760   0.140711998244947 1
force O   0.144592689747149   0.042516118990609   0.005529876803199 1
force O  -0.152905760099457  -0.262760427083971   0.030861589234043 1
force O   0.014529005373211   0.225730824520803  -0.068954733175159 1
force O  -0.093600244374940   0.131317954565402   0.017505403611116 1
force O   0.033009426936482  -0.046982343966558   0.057948118452074 1
force O  -0.033589200154385   0.055620886380706   0.009213626419835 1
force O   0.170176522901445   0.008044463303136   0.245344654229223 1
force O  -0.095441377497760  -0.005055575366886  -0.124833767454771 1
force O  -0.074277326927035  -0.363311177922236  -0.082780862404322 1
force O   0.500744257450603   0.177783385801679  -0.086373795926415 1
force O   0.168908336294264  -0.291264234810455  -0.079128814263543 1
force O  -0.197635393009135   0.169730307416559  -0.018685196568471 1
force O  -0.077846529101927  -0.138692575518326   0.150099790292091 1
force O   0.383818730304800   0.203205910852325  -0.161011955813925 1
force O  -0.193876532519225  -0.125693425035792   0.031058185440526 1
force O   0.163629209452520   0.136679820402366  -0.245407160332122 1
force O  -0.104188367093395   0.144490304701793   0.078229906981975 1
force O   0.298388495114272   0.255752104472985   0.031838564578601 1
force O  -0.176813270121065  -0.302491399287383  -0.080731317122001 1
force O   0.156491816934547   0.261592439101390   0.085345215989686 1
force O  -0.000637258376643  -0.007755945122942   0.049518350704536 1

# Energy components:
   Eewald =    -1393.8480904020423168
       EH =      413.3619125431623047
     Eloc =    -1144.0129214740036332
      Enl =     -104.9484482070272691
      Exc =     -348.1009981414132426
 Exc_core =       65.5739712654861648
       KE =      709.7794930848588137
-------------------------------------
     Etot =    -1802.1950813309792920
       TS =        0.2320579413283000
-------------------------------------
        F =    -1802.4271392723076133

IonicMinimize: Iter:   3  F: -1802.427139272307613  |grad|_K:  1.422e-02  alpha:  3.246e-01  linmin: -9.773e-01  t[s]:   8471.18

#--- Lowdin population analysis ---
# oxidation-state Rh +0.458 +0.479 +0.334 +0.496 +0.464 +0.475 +0.466 +0.476 +0.472 +0.469 +0.460 +0.489 +0.472 +0.394 +0.467 +0.389
# oxidation-state O -0.210 -0.216 -0.222 -0.217 -0.208 -0.213 -0.237 -0.195 -0.217 -0.214 -0.217 -0.219 -0.212 -0.219 -0.210 -0.214 -0.215 -0.221 -0.192 -0.218 -0.221 -0.215 -0.210 -0.228 -0.179 -0.210 -0.210 -0.227 -0.214 -0.220 -0.201


-------- Electronic minimization -----------
Will mix electronic density at each iteration.
	FillingsUpdate:  mu: +0.444133463  nElectrons: 426.000000
	FillingsUpdate:  mu: +0.448718358  nElectrons: 426.000000
SCF: Cycle:  0   F: -1794.427209496954220   dF: +6.220e+00   |Residual|: 1.234e+00   |deigs|: 6.309e-03  t[s]:   8637.28
	FillingsUpdate:  mu: +0.458151228  nElectrons: 426.000000
SCF: Cycle:  1   F: -1778.368308484823046   dF: +1.606e+01   |Residual|: 2.088e+00   |deigs|: 2.662e-02  t[s]:   8756.21
	FillingsUpdate:  mu: +0.446622587  nElectrons: 426.000000
SCF: Cycle:  2   F: -1800.262358229003212   dF: -2.189e+01   |Residual|: 6.879e-01   |deigs|: 2.873e-02  t[s]:   8876.85
	FillingsUpdate:  mu: +0.445057904  nElectrons: 426.000000
SCF: Cycle:  3   F: -1801.609468701243941   dF: -1.347e+00   |Residual|: 4.236e-01   |deigs|: 6.859e-03  t[s]:   8995.26
	FillingsUpdate:  mu: +0.444815904  nElectrons: 426.000000
SCF: Cycle:  4   F: -1802.096145900231477   dF: -4.867e-01   |Residual|: 2.781e-01   |deigs|: 2.931e-03  t[s]:   9114.44
	FillingsUpdate:  mu: +0.444167550  nElectrons: 426.000000
SCF: Cycle:  5   F: -1802.402374543091810   dF: -3.062e-01   |Residual|: 1.150e-01   |deigs|: 2.787e-03  t[s]:   9233.72
	FillingsUpdate:  mu: +0.444085168  nElectrons: 426.000000
SCF: Cycle:  6   F: -1802.387109023874928   dF: +1.527e-02   |Residual|: 1.223e-01   |deigs|: 1.293e-03  t[s]:   9350.44
	FillingsUpdate:  mu: +0.443899236  nElectrons: 426.000000
SCF: Cycle:  7   F: -1802.457241256253383   dF: -7.013e-02   |Residual|: 3.773e-02   |deigs|: 1.149e-03  t[s]:   9469.16
	FillingsUpdate:  mu: +0.443966779  nElectrons: 426.000000
SCF: Cycle:  8   F: -1802.460455853239637   dF: -3.215e-03   |Residual|: 2.069e-02   |deigs|: 4.200e-04  t[s]:   9540.58
	FillingsUpdate:  mu: +0.443970203  nElectrons: 426.000000
SCF: Cycle:  9   F: -1802.461878696769190   dF: -1.423e-03   |Residual|: 1.153e-02   |deigs|: 2.696e-04  t[s]:   9612.12
	FillingsUpdate:  mu: +0.443973775  nElectrons: 426.000000
SCF: Cycle: 10   F: -1802.462398418712837   dF: -5.197e-04   |Residual|: 4.245e-03   |deigs|: 1.194e-04  t[s]:   9684.16
	FillingsUpdate:  mu: +0.443964780  nElectrons: 426.000000
SCF: Cycle: 11   F: -1802.462309843019284   dF: +8.858e-05   |Residual|: 5.768e-03   |deigs|: 1.009e-04  t[s]:   9755.63
	FillingsUpdate:  mu: +0.443980073  nElectrons: 426.000000
SCF: Cycle: 12   F: -1802.462399366606178   dF: -8.952e-05   |Residual|: 3.444e-03   |deigs|: 1.117e-04  t[s]:   9829.08
	FillingsUpdate:  mu: +0.443975308  nElectrons: 426.000000
SCF: Cycle: 13   F: -1802.462446559949285   dF: -4.719e-05   |Residual|: 9.829e-04   |deigs|: 5.379e-05  t[s]:   9900.43
	FillingsUpdate:  mu: +0.443972788  nElectrons: 426.000000
SCF: Cycle: 14   F: -1802.462446251417987   dF: +3.085e-07   |Residual|: 1.014e-03   |deigs|: 1.894e-05  t[s]:   9971.13
	FillingsUpdate:  mu: +0.443971214  nElectrons: 426.000000
SCF: Cycle: 15   F: -1802.462450875204922   dF: -4.624e-06   |Residual|: 3.553e-04   |deigs|: 1.322e-05  t[s]:  10042.99
	FillingsUpdate:  mu: +0.443971686  nElectrons: 426.000000
SCF: Cycle: 16   F: -1802.462450687940873   dF: +1.873e-07   |Residual|: 3.807e-04   |deigs|: 6.435e-06  t[s]:  10114.17
	FillingsUpdate:  mu: +0.443971011  nElectrons: 426.000000
SCF: Cycle: 17   F: -1802.462450984193310   dF: -2.963e-07   |Residual|: 2.190e-04   |deigs|: 6.046e-06  t[s]:  10186.62
	FillingsUpdate:  mu: +0.443970821  nElectrons: 426.000000
SCF: Cycle: 18   F: -1802.462451213486929   dF: -2.293e-07   |Residual|: 5.400e-05   |deigs|: 3.103e-06  t[s]:  10258.11
	FillingsUpdate:  mu: +0.443970695  nElectrons: 426.000000
SCF: Cycle: 19   F: -1802.462451213488976   dF: -2.046e-12   |Residual|: 4.895e-05   |deigs|: 1.025e-06  t[s]:  10329.38
	FillingsUpdate:  mu: +0.443970721  nElectrons: 426.000000
SCF: Cycle: 20   F: -1802.462451218670822   dF: -5.182e-09   |Residual|: 2.923e-05   |deigs|: 1.319e-06  t[s]:  10439.88
SCF: Converged (|Delta E|<1.000000e-08 for 2 iters).

Setting wave functions to eigenvectors of Hamiltonian

# Ionic positions in lattice coordinates:
ion Rh   0.004832586394647  -0.001809664969556  -0.000740747993675 1
ion Rh   0.250748685043871   0.251559157039240   0.249997339020696 1
ion Rh  -0.013993672877031  -0.006293017608764   0.493298899357329 1
ion Rh   0.247875878532405   0.251782141394671   0.748513840662078 1
ion Rh   0.001309585136984   0.503039846211546  -0.001211774657902 1
ion Rh   0.255530286022242   0.748438916783799   0.250688059905866 1
ion Rh   0.001240725561668   0.499117987340941   0.500802781156226 1
ion Rh   0.251848427739526   0.748579497782591   0.745896763840333 1
ion Rh   0.501770128399676  -0.001296988994226   0.000173130669263 1
ion Rh   0.752035118434018   0.249428831972664   0.246818870974564 1
ion Rh   0.505518055226859   0.000568645439526   0.500944844616085 1
ion Rh   0.750676573241241   0.248577274050173   0.752055791691512 1
ion Rh   0.501398618465391   0.495786705816599  -0.003580244104627 1
ion Rh   0.749182686067951   0.745893480192485   0.246452520748133 1
ion Rh   0.500103703399893   0.497179141010324   0.499447027730122 1
ion Rh   0.755055778990211   0.749307151226235   0.744897446905219 1
ion O   0.153656619089313   0.150217708150673  -0.004910921951073 1
ion O   0.094733828091361   0.403869123344466   0.248280106339619 1
ion O   0.410295142239742   0.101348047571754   0.248897261762646 1
ion O   0.340423347201916   0.350905977635925  -0.000851055784026 1
ion O   0.147388564404545   0.164037337328852   0.491141038219479 1
ion O   0.109806130986091   0.413075878378949   0.750307011848315 1
ion O   0.390461759843381   0.087201260938172   0.754318777611662 1
ion O   0.345120613910333   0.346219676145073   0.509088123975723 1
ion O   0.153501944003556   0.657911048181856  -0.002203615153037 1
ion O   0.106202322654914   0.907890526179282   0.250433887683487 1
ion O   0.400260762916540   0.588147185358949   0.246717396010836 1
ion O   0.346525884310961   0.850635372838829  -0.000323883279688 1
ion O   0.163822355586737   0.642481604301897   0.498537990644142 1
ion O   0.086099189803418   0.891417231495801   0.739654314879159 1
ion O   0.408025666251079   0.597633234591248   0.748137120197928 1
ion O   0.355193790433306   0.841025203486681   0.497990129249297 1
ion O   0.652435481159381   0.151948449624062  -0.006507573210236 1
ion O   0.596004394302091   0.400067110631058   0.251226812261235 1
ion O   0.912963993996563   0.108662715918692   0.247478647604106 1
ion O   0.837158654485369   0.353527909659171   0.000505188837014 1
ion O   0.646645105924125   0.163076386070240   0.502017577461770 1
ion O   0.597602649814210   0.399532152489584   0.749452989548835 1
ion O   0.902751694366920   0.095628443806205   0.745054646456716 1
ion O   0.838992387603482   0.350852237170048   0.505165999036533 1
ion O   0.661496277682377   0.641852669828914  -0.006391491980140 1
ion O   0.596548348752052   0.897672876299610   0.255032178853682 1
ion O   0.905430304209996   0.596837259131996   0.248506566344906 1
ion O   0.844090918004774   0.845918445915076  -0.001068308171672 1
ion O   0.658930685387891   0.654858287429233   0.498408622134133 1
ion O   0.591272729236061   0.891256520216213   0.747525583471942 1
ion O   0.911625289567963   0.602913015193241   0.745694328575485 1

# Forces in Lattice coordinates:
force Rh  -0.275496935743505  -0.068073834400767  -0.156648955200802 1
force Rh  -0.066395989903887  -0.112752380508392  -0.078535294102414 1
force Rh   0.571774970370644  -0.039399988729351   0.069917158852218 1
force Rh   0.013043965720266  -0.310347446617295   0.087561948856344 1
force Rh   0.060142321839061  -0.083630094733866  -0.001199558675444 1
force Rh  -0.118875216422476   0.024019026981230  -0.120363584458511 1
force Rh   0.038045871035912  -0.049918199209961  -0.074972404838829 1
force Rh   0.014773895890448   0.085870438937945   0.063062560432870 1
force Rh  -0.118858347504741  -0.082463521660024  -0.015719816666401 1
force Rh  -0.252309397448964   0.128169991600205   0.154649986335411 1
force Rh  -0.415435240791091  -0.044033236310333   0.073738199488502 1
force Rh  -0.051865499284488   0.061127198842518  -0.131940472498763 1
force Rh  -0.007312451977861   0.138675389506323   0.084529048463780 1
force Rh   0.139629573008089   0.121996696195268   0.286542494212585 1
force Rh   0.134618731761865   0.078054026853482   0.020816975378448 1
force Rh  -0.136578558813162   0.053540865820332  -0.198924811244871 1
force O   0.148768130205402   0.219434413745963   0.059186766645383 1
force O   0.019879322599926  -0.058842585233694  -0.003742644253495 1
force O  -0.060516372367201  -0.007262456380491   0.040470373066334 1
force O   0.155520214216397  -0.036176418128402  -0.014070844745099 1
force O  -0.052862564741872  -0.183062264170701   0.193556932343981 1
force O  -0.388496147875428   0.055550280545243   0.008287725698290 1
force O   0.286513405801168  -0.002984604370458  -0.139973295552088 1
force O   0.126885627936654   0.068626770640373  -0.252800975589118 1
force O   0.016326699791967  -0.062591132944414   0.061130299084942 1
force O  -0.270978067362268  -0.070958870754888   0.055814426919718 1
force O   0.095299884043905   0.084426744069062   0.008679465081561 1
force O  -0.093619687546191  -0.163602406121580   0.010881870500926 1
force O  -0.022080831965547   0.173815171319991  -0.043338384088591 1
force O  -0.018638376689947   0.078535784873415   0.029251924742426 1
force O   0.008268011251398  -0.015370940177475   0.040209296439996 1
force O  -0.075265875965634   0.023942497017129   0.004125225030595 1
force O   0.108671331748764   0.002398012477813   0.153016520730172 1
force O  -0.066580859952395   0.000162639862244  -0.072142824015668 1
force O  -0.112748084543354  -0.291106073680095  -0.045728328697543 1
force O   0.333842033952443   0.061654824308733  -0.059913867427962 1
force O   0.127387055218465  -0.241081493093365  -0.043729729303678 1
force O  -0.118642705331681   0.101773110969342  -0.012461998613938 1
force O  -0.076336005887201  -0.107908827083085   0.075496192292308 1
force O   0.243613874475150   0.098707734704083  -0.106994415412800 1
force O  -0.101478657031665  -0.031357784431790   0.038259175053381 1
force O   0.114668726555423   0.123807215703727  -0.135635205582401 1
force O  -0.042833737996285   0.100089170276459   0.062085174875788 1
force O   0.169292727898880   0.138706632349069   0.012903192270797 1
force O  -0.095226704429827  -0.179925551836217  -0.044790885140511 1
force O   0.123326136315589   0.216276897925155   0.042908624704001 1
force O  -0.016119580809544   0.008481192531586   0.012738434034347 1

# Energy components:
   Eewald =    -1394.4052511193674491
       EH =      412.8025498979716303
     Eloc =    -1142.8468189120592342
      Enl =     -104.9559981867668057
      Exc =     -348.0809123689255102
 Exc_core =       65.5739603675189358
       KE =      709.6790006564916666
-------------------------------------
     Etot =    -1802.2334696651369086
       TS =        0.2289815535338108
-------------------------------------
        F =    -1802.4624512186708216

IonicMinimize: Iter:   4  F: -1802.462451218670822  |grad|_K:  8.765e-03  alpha:  3.662e-01  linmin: -9.728e-01  t[s]:  10457.45

#--- Lowdin population analysis ---
# oxidation-state Rh +0.461 +0.478 +0.349 +0.490 +0.468 +0.475 +0.469 +0.474 +0.472 +0.471 +0.464 +0.484 +0.478 +0.385 +0.470 +0.380
# oxidation-state O -0.212 -0.214 -0.221 -0.218 -0.208 -0.214 -0.232 -0.205 -0.216 -0.214 -0.218 -0.216 -0.215 -0.214 -0.213 -0.214 -0.217 -0.217 -0.202 -0.220 -0.221 -0.215 -0.212 -0.224 -0.185 -0.214 -0.210 -0.228 -0.203 -0.218 -0.204


-------- Electronic minimization -----------
Will mix electronic density at each iteration.
	FillingsUpdate:  mu: +0.443970721  nElectrons: 426.000000
	FillingsUpdate:  mu: +0.447474891  nElectrons: 426.000000
SCF: Cycle:  0   F: -1795.672289971546661   dF: +5.308e+00   |Residual|: 1.103e+00   |deigs|: 5.204e-03  t[s]:  10625.37
	FillingsUpdate:  mu: +0.456402976  nElectrons: 426.000000
SCF: Cycle:  1   F: -1779.812628846637153   dF: +1.586e+01   |Residual|: 1.955e+00   |deigs|: 2.223e-02  t[s]:  10743.64
	FillingsUpdate:  mu: +0.446053910  nElectrons: 426.000000
SCF: Cycle:  2   F: -1801.004837443940232   dF: -2.119e+01   |Residual|: 5.775e-01   |deigs|: 2.575e-02  t[s]:  10864.00
	FillingsUpdate:  mu: +0.445062584  nElectrons: 426.000000
SCF: Cycle:  3   F: -1801.727986174211765   dF: -7.231e-01   |Residual|: 3.985e-01   |deigs|: 5.250e-03  t[s]:  10981.48
	FillingsUpdate:  mu: +0.444824576  nElectrons: 426.000000
SCF: Cycle:  4   F: -1802.198949049805151   dF: -4.710e-01   |Residual|: 2.471e-01   |deigs|: 2.733e-03  t[s]:  11100.97
	FillingsUpdate:  mu: +0.444302372  nElectrons: 426.000000
SCF: Cycle:  5   F: -1802.443342475283089   dF: -2.444e-01   |Residual|: 9.770e-02   |deigs|: 2.570e-03  t[s]:  11220.42
	FillingsUpdate:  mu: +0.444218851  nElectrons: 426.000000
SCF: Cycle:  6   F: -1802.420786749994932   dF: +2.256e-02   |Residual|: 1.090e-01   |deigs|: 1.233e-03  t[s]:  11335.53
	FillingsUpdate:  mu: +0.444030391  nElectrons: 426.000000
SCF: Cycle:  7   F: -1802.478063407441368   dF: -5.728e-02   |Residual|: 3.402e-02   |deigs|: 1.210e-03  t[s]:  11452.23
	FillingsUpdate:  mu: +0.444093086  nElectrons: 426.000000
SCF: Cycle:  8   F: -1802.480810826748439   dF: -2.747e-03   |Residual|: 1.777e-02   |deigs|: 4.388e-04  t[s]:  11523.35
	FillingsUpdate:  mu: +0.444091818  nElectrons: 426.000000
SCF: Cycle:  9   F: -1802.481767840141174   dF: -9.570e-04   |Residual|: 1.130e-02   |deigs|: 2.700e-04  t[s]:  11596.79
	FillingsUpdate:  mu: +0.444104339  nElectrons: 426.000000
SCF: Cycle: 10   F: -1802.482336850742968   dF: -5.690e-04   |Residual|: 3.592e-03   |deigs|: 1.111e-04  t[s]:  11668.41
	FillingsUpdate:  mu: +0.444097296  nElectrons: 426.000000
SCF: Cycle: 11   F: -1802.482258455574993   dF: +7.840e-05   |Residual|: 4.961e-03   |deigs|: 7.549e-05  t[s]:  11739.84
	FillingsUpdate:  mu: +0.444106908  nElectrons: 426.000000
SCF: Cycle: 12   F: -1802.482348897011434   dF: -9.044e-05   |Residual|: 2.149e-03   |deigs|: 8.012e-05  t[s]:  11812.01
	FillingsUpdate:  mu: +0.444104184  nElectrons: 426.000000
SCF: Cycle: 13   F: -1802.482366232993854   dF: -1.734e-05   |Residual|: 7.645e-04   |deigs|: 3.309e-05  t[s]:  11884.01
	FillingsUpdate:  mu: +0.444101291  nElectrons: 426.000000
SCF: Cycle: 14   F: -1802.482367206664094   dF: -9.737e-07   |Residual|: 6.865e-04   |deigs|: 1.167e-05  t[s]:  11955.27
	FillingsUpdate:  mu: +0.444100279  nElectrons: 426.000000
SCF: Cycle: 15   F: -1802.482369128767004   dF: -1.922e-06   |Residual|: 3.020e-04   |deigs|: 9.543e-06  t[s]:  12027.51
	FillingsUpdate:  mu: +0.444100415  nElectrons: 426.000000
SCF: Cycle: 16   F: -1802.482368919452938   dF: +2.093e-07   |Residual|: 3.289e-04   |deigs|: 5.930e-06  t[s]:  12098.52
	FillingsUpdate:  mu: +0.444099982  nElectrons: 426.000000
SCF: Cycle: 17   F: -1802.482369338370290   dF: -4.189e-07   |Residual|: 1.405e-04   |deigs|: 5.148e-06  t[s]:  12171.08
	FillingsUpdate:  mu: +0.444099923  nElectrons: 426.000000
SCF: Cycle: 18   F: -1802.482369426283867   dF: -8.791e-08   |Residual|: 4.422e-05   |deigs|: 1.863e-06  t[s]:  12242.27
	FillingsUpdate:  mu: +0.444099884  nElectrons: 426.000000
SCF: Cycle: 19   F: -1802.482369424136095   dF: +2.148e-09   |Residual|: 4.281e-05   |deigs|: 9.240e-07  t[s]:  12314.78
	FillingsUpdate:  mu: +0.444099910  nElectrons: 426.000000
SCF: Cycle: 20   F: -1802.482369431372263   dF: -7.236e-09   |Residual|: 1.994e-05   |deigs|: 7.035e-07  t[s]:  12386.35
	FillingsUpdate:  mu: +0.444099892  nElectrons: 426.000000
SCF: Cycle: 21   F: -1802.482369432586893   dF: -1.215e-09   |Residual|: 1.232e-05   |deigs|: 3.405e-07  t[s]:  12456.86
SCF: Converged (|Delta E|<1.000000e-08 for 2 iters).

Setting wave functions to eigenvectors of Hamiltonian

# Ionic positions in lattice coordinates:
ion Rh   0.002503403521002  -0.001410180447142  -0.002547252047843 1
ion Rh   0.250147777243873   0.250568186483542   0.249207123504675 1
ion Rh  -0.008226562038541  -0.005397266378589   0.494585407597076 1
[...]
	FillingsUpdate:  mu: +0.444570399  nElectrons: 426.000000
SCF: Cycle:  2   F: -1802.500127659561031   dF: -1.426e-03   |Residual|: 3.063e-03   |deigs|: 1.705e-04  t[s]:  29666.12
	FillingsUpdate:  mu: +0.444572195  nElectrons: 426.000000
SCF: Cycle:  3   F: -1802.500150578547391   dF: -2.292e-05   |Residual|: 1.741e-03   |deigs|: 4.746e-05  t[s]:  29737.81
	FillingsUpdate:  mu: +0.444570797  nElectrons: 426.000000
SCF: Cycle:  4   F: -1802.500142229371022   dF: +8.349e-06   |Residual|: 1.966e-03   |deigs|: 4.290e-05  t[s]:  29810.46
	FillingsUpdate:  mu: +0.444571192  nElectrons: 426.000000
SCF: Cycle:  5   F: -1802.500161619911296   dF: -1.939e-05   |Residual|: 3.171e-04   |deigs|: 2.661e-05  t[s]:  29882.77
	FillingsUpdate:  mu: +0.444571683  nElectrons: 426.000000
SCF: Cycle:  6   F: -1802.500161748398796   dF: -1.285e-07   |Residual|: 2.769e-04   |deigs|: 6.090e-06  t[s]:  29954.86
	FillingsUpdate:  mu: +0.444571467  nElectrons: 426.000000
SCF: Cycle:  7   F: -1802.500162011676821   dF: -2.633e-07   |Residual|: 1.304e-04   |deigs|: 4.518e-06  t[s]:  30026.66
	FillingsUpdate:  mu: +0.444571608  nElectrons: 426.000000
SCF: Cycle:  8   F: -1802.500162061346145   dF: -4.967e-08   |Residual|: 6.192e-05   |deigs|: 2.061e-06  t[s]:  30099.17
	FillingsUpdate:  mu: +0.444571529  nElectrons: 426.000000
SCF: Cycle:  9   F: -1802.500162077487630   dF: -1.614e-08   |Residual|: 3.452e-05   |deigs|: 8.828e-07  t[s]:  30171.36
	FillingsUpdate:  mu: +0.444571508  nElectrons: 426.000000
SCF: Cycle: 10   F: -1802.500162081141752   dF: -3.654e-09   |Residual|: 1.359e-05   |deigs|: 2.722e-07  t[s]:  30243.79
	FillingsUpdate:  mu: +0.444571531  nElectrons: 426.000000
SCF: Cycle: 11   F: -1802.500162080398241   dF: +7.435e-10   |Residual|: 1.830e-05   |deigs|: 2.105e-07  t[s]:  30316.72
	FillingsUpdate:  mu: +0.444571520  nElectrons: 426.000000
SCF: Cycle: 12   F: -1802.500162081446206   dF: -1.048e-09   |Residual|: 8.975e-06   |deigs|: 1.947e-07  t[s]:  30387.91
	FillingsUpdate:  mu: +0.444571522  nElectrons: 426.000000
SCF: Cycle: 13   F: -1802.500162081586950   dF: -1.407e-10   |Residual|: 4.130e-06   |deigs|: 9.036e-08  t[s]:  30449.95
SCF: Converged (|Delta E|<1.000000e-08 for 2 iters).

Setting wave functions to eigenvectors of Hamiltonian

# Ionic positions in lattice coordinates:
ion Rh  -0.001376186912956  -0.002522315575532  -0.001308423381796 1
ion Rh   0.250100130791657   0.249172934857714   0.247619190628406 1
ion Rh  -0.002738451295964  -0.003950372340764   0.498337188666762 1
ion Rh   0.250090080486065   0.249153089068773   0.749673593509680 1
ion Rh   0.000394581356664   0.501026702200833  -0.001378689571421 1
ion Rh   0.250483228133597   0.749649931823963   0.248887854473381 1
ion Rh   0.001436769560762   0.499322550324806   0.498562983192542 1
ion Rh   0.250528138645608   0.749633579511959   0.748195875680179 1
ion Rh   0.502034854542640  -0.000554757459750  -0.001411118107042 1
ion Rh   0.750784298826205   0.249562816438818   0.248780605396224 1
ion Rh   0.500253324009439   0.000381350370631   0.498493378008549 1
ion Rh   0.750797261644960   0.249582291710811   0.748518008832610 1
ion Rh   0.502419498552402   0.501493319748883  -0.001433780536001 1
ion Rh   0.752098219919142   0.750942430082001   0.256161674576043 1
ion Rh   0.501101179927028   0.500128679702514   0.498538679963741 1
ion Rh   0.752068687572041   0.750993672856318   0.740696059663710 1
ion O   0.153408345159472   0.151451336203409  -0.001438836325954 1
ion O   0.095981169916569   0.401888336219323   0.247597018434783 1
ion O   0.404003983576047   0.096075415385278   0.247552171761853 1
ion O   0.347115246051319   0.347839000749484  -0.001458865557481 1
ion O   0.154217197404294   0.152052444934350   0.498581685030836 1
ion O   0.095819066568574   0.401734627333892   0.749444697466902 1
ion O   0.403935680575265   0.096004203596816   0.749398812595846 1
ion O   0.346691873262022   0.347000204619848   0.498484149953514 1
ion O   0.156129631190283   0.651467557291658  -0.001342010973680 1
ion O   0.090639547690367   0.896850815235211   0.249974710629540 1
ion O   0.406074124342716   0.598354247001226   0.248604406075707 1
ion O   0.346363422067212   0.847706322443940  -0.001356846546138 1
ion O   0.156359458338095   0.651019913854937   0.498686754590257 1
ion O   0.090725878824642   0.896862274960924   0.747335498794471 1
ion O   0.406077694511661   0.598360237959171   0.748514877428725 1
ion O   0.345899291783348   0.847646830840726   0.498669712560383 1
ion O   0.653674608215559   0.153992640281596  -0.001381742554110 1
ion O   0.598009461202919   0.403760174677466   0.248661585991385 1
ion O   0.898784852882352   0.090244253071377   0.250014574523397 1
ion O   0.847719511935793   0.346277930192360  -0.001377717681213 1
ion O   0.653147212672371   0.154202579645951   0.498586306745369 1
ion O   0.597895249647100   0.403644117372034   0.748431170054734 1
ion O   0.898974080620473   0.090527451402650   0.747264386900778 1
ion O   0.847711941661449   0.345833264093645   0.498566268144517 1
ion O   0.655722723797509   0.651916867873067  -0.001609186113724 1
ion O   0.600782809081949   0.904807123737922   0.251539695876187 1
ion O   0.907167961388557   0.600846377718102   0.251810739712993 1
ion O   0.846137664467772   0.845628551082671  -0.001641168973258 1
ion O   0.656828153108504   0.654618759748463   0.498325812338660 1
ion O   0.601034697185534   0.905075610745262   0.745220583950509 1
ion O   0.907091845110987   0.600774626405259   0.745177674168643 1

# Forces in Lattice coordinates:
force Rh   0.002931368396895   0.003211482698471  -0.009260946482365 1
force Rh   0.011950099532539   0.010675371069675  -0.003781725390801 1
force Rh  -0.000759105479721   0.004054784016843   0.017500747577307 1
force Rh   0.011877155950398   0.011416046081868  -0.008290851489190 1
force Rh   0.007986883831368  -0.002653124038596  -0.004932608334178 1
force Rh   0.009121394110395   0.005044642080494  -0.016648644975244 1
force Rh   0.005216427822459  -0.004614576795687  -0.000636483007395 1
force Rh   0.004645928502106   0.007754574767972   0.028604487426080 1
force Rh   0.001794864592946  -0.000826739489648  -0.006473483847233 1
force Rh  -0.004726872834106  -0.005945905364089  -0.007645441222343 1
force Rh   0.009307235817947   0.003830610002215  -0.000586059048166 1
force Rh  -0.004308533178660  -0.007382005331266   0.004196213641301 1
force Rh   0.002170745548102  -0.000961688302142  -0.002120143682950 1
force Rh   0.001492987715677   0.000965138281282  -0.006638949841155 1
force Rh   0.001563227728424  -0.001212858922830  -0.000649502830802 1
force Rh   0.003975346616971  -0.001759375734931   0.000661529488730 1
force O  -0.008346396975508  -0.007433635704910   0.003592717253492 1
force O  -0.003861524960081   0.000711100168394   0.002856034086394 1
force O  -0.005205237610254  -0.000743415870631   0.002853336589069 1
force O  -0.004653244211652  -0.012401788909567   0.001716121385713 1
force O  -0.006318492268700  -0.006736720935323  -0.000112867994541 1
force O  -0.001850496586377   0.002968509940173   0.001698966415200 1
force O  -0.002513446599212   0.000165950020086   0.002249541270600 1
force O  -0.005497501610496  -0.007939504489392   0.004007815117552 1
force O  -0.003098907518970   0.003855091746410  -0.003809281409023 1
force O  -0.000113286019261  -0.000773048789733  -0.000441061914019 1
force O  -0.001299051022990   0.000087057537877   0.002442859449165 1
force O  -0.007638759920403  -0.007868787310245  -0.003174390272567 1
force O  -0.009287938097161  -0.007715871390501  -0.003855437240821 1
force O  -0.004056123369580   0.004626918178672  -0.007285030102795 1
force O   0.000056277599290  -0.001704048934949  -0.003915073103901 1
force O  -0.001352522773547  -0.000837200217496  -0.004222046332864 1
force O   0.003006775280780   0.002034759123829  -0.000353255918373 1
force O   0.002360383732196  -0.000021173180084   0.000563798778229 1
force O  -0.003040770081734   0.003979330253230  -0.002831577506437 1
force O  -0.000411169692570  -0.001875018611375   0.000271558722369 1
force O  -0.002893568426663  -0.002849317472931  -0.000158218034145 1
force O   0.002860483783204   0.002053551009455  -0.000540120521437 1
force O   0.001186499658616  -0.004134314126887  -0.003115685652529 1
force O   0.003277930586185   0.002981949865543   0.000407984203567 1
force O  -0.003269875277776   0.002682742180317   0.000830913940872 1
force O   0.002509804319357   0.005638645485181   0.003777594180632 1
force O  -0.002559505894826   0.002550015532535   0.000588242931020 1
force O  -0.001716651831864   0.000777467167776   0.003368595191353 1
force O  -0.001423471311174   0.003090225276984   0.004404835936849 1
force O  -0.001581638042731   0.002129002308653   0.003058956258970 1
force O  -0.003037411636448   0.003007896475804   0.003162645278408 1

# Energy components:
   Eewald =    -1395.4180948553459984
       EH =      411.7144193990197323
     Eloc =    -1140.7605881954739289
      Enl =     -104.9512139587480704
      Exc =     -348.0982188721160355
 Exc_core =       65.5739522355289779
       KE =      709.6632637944474027
-------------------------------------
     Etot =    -1802.2764804526880198
       TS =        0.2236816288989763
-------------------------------------
        F =    -1802.5001620815869501

IonicMinimize: Iter:  17  F: -1802.500162081586950  |grad|_K:  4.017e-04  alpha:  1.000e+00  linmin:  2.146e-01  t[s]:  30466.96

#--- Lowdin population analysis ---
# oxidation-state Rh +0.471 +0.478 +0.382 +0.478 +0.472 +0.474 +0.473 +0.474 +0.473 +0.474 +0.472 +0.475 +0.481 +0.372 +0.473 +0.372
# oxidation-state O -0.220 -0.218 -0.218 -0.221 -0.204 -0.218 -0.218 -0.221 -0.216 -0.211 -0.219 -0.221 -0.218 -0.212 -0.219 -0.220 -0.216 -0.219 -0.211 -0.220 -0.219 -0.219 -0.212 -0.220 -0.189 -0.213 -0.213 -0.224 -0.188 -0.213 -0.213


-------- Electronic minimization -----------
Will mix electronic density at each iteration.
	FillingsUpdate:  mu: +0.444571522  nElectrons: 426.000000
	FillingsUpdate:  mu: +0.444571981  nElectrons: 426.000000
SCF: Cycle:  0   F: -1802.500032599891483   dF: +1.320e-04   |Residual|: 5.133e-03   |deigs|: 2.732e-07  t[s]:  30588.52
	FillingsUpdate:  mu: +0.444569218  nElectrons: 426.000000
SCF: Cycle:  1   F: -1802.499555298490804   dF: +4.773e-04   |Residual|: 1.149e-02   |deigs|: 1.320e-04  t[s]:  30660.45
	FillingsUpdate:  mu: +0.444573196  nElectrons: 426.000000
SCF: Cycle:  2   F: -1802.500166905909055   dF: -6.116e-04   |Residual|: 2.064e-03   |deigs|: 1.189e-04  t[s]:  30732.30
	FillingsUpdate:  mu: +0.444571763  nElectrons: 426.000000
SCF: Cycle:  3   F: -1802.500182017348379   dF: -1.511e-05   |Residual|: 7.136e-04   |deigs|: 2.736e-05  t[s]:  30804.90
	FillingsUpdate:  mu: +0.444572220  nElectrons: 426.000000
SCF: Cycle:  4   F: -1802.500179539700412   dF: +2.478e-06   |Residual|: 9.332e-04   |deigs|: 1.798e-05  t[s]:  30876.65
	FillingsUpdate:  mu: +0.444571969  nElectrons: 426.000000
SCF: Cycle:  5   F: -1802.500183504236020   dF: -3.965e-06   |Residual|: 2.015e-04   |deigs|: 1.247e-05  t[s]:  30947.63
	FillingsUpdate:  mu: +0.444571751  nElectrons: 426.000000
SCF: Cycle:  6   F: -1802.500183587731271   dF: -8.350e-08   |Residual|: 1.510e-04   |deigs|: 3.939e-06  t[s]:  31020.99
	FillingsUpdate:  mu: +0.444571892  nElectrons: 426.000000
SCF: Cycle:  7   F: -1802.500183669448234   dF: -8.172e-08   |Residual|: 7.921e-05   |deigs|: 2.316e-06  t[s]:  31092.73
	FillingsUpdate:  mu: +0.444571806  nElectrons: 426.000000
SCF: Cycle:  8   F: -1802.500183683716841   dF: -1.427e-08   |Residual|: 3.803e-05   |deigs|: 9.146e-07  t[s]:  31164.92
	FillingsUpdate:  mu: +0.444571828  nElectrons: 426.000000
SCF: Cycle:  9   F: -1802.500183689671530   dF: -5.955e-09   |Residual|: 2.265e-05   |deigs|: 4.862e-07  t[s]:  31235.91
	FillingsUpdate:  mu: +0.444571844  nElectrons: 426.000000
SCF: Cycle: 10   F: -1802.500183691034408   dF: -1.363e-09   |Residual|: 1.001e-05   |deigs|: 1.522e-07  t[s]:  31308.46
SCF: Converged (|Delta E|<1.000000e-08 for 2 iters).

Setting wave functions to eigenvectors of Hamiltonian

# Ionic positions in lattice coordinates:
ion Rh  -0.001365135862931  -0.002517254754401  -0.001404902174326 1
ion Rh   0.250177624924158   0.249236274767554   0.247576096511900 1
ion Rh  -0.002776117323247  -0.003966356195098   0.498582375426442 1
ion Rh   0.250163164103433   0.249222533441759   0.749576956529942 1
ion Rh   0.000436083624466   0.500997052220452  -0.001438618707248 1
ion Rh   0.250531325869143   0.749681645989729   0.248693112146153 1
ion Rh   0.001457839567830   0.499281500101332   0.498561863705472 1
ion Rh   0.250552374077975   0.749686780242871   0.748571627860383 1
ion Rh   0.502064371956745  -0.000551929508510  -0.001501758146792 1
ion Rh   0.750762132836946   0.249514508624950   0.248688886895751 1
ion Rh   0.500321451456517   0.000425629415797   0.498485044451687 1
ion Rh   0.750779461893782   0.249532274205003   0.748578251686792 1
ion Rh   0.502439794481931   0.501505073067293  -0.001462471732441 1
ion Rh   0.752104501186704   0.750945178935441   0.256067751206893 1
ion Rh   0.501120632121289   0.500137137401218   0.498534477377968 1
ion Rh   0.752102548709029   0.750992200926330   0.740701839293698 1
ion O   0.153357209691074   0.151395489550880  -0.001387181745663 1
ion O   0.095966088807249   0.401898739740270   0.247635458196987 1
ion O   0.403965261714990   0.096055519498185   0.247568446500193 1
ion O   0.347091376079740   0.347782429238716  -0.001429194838536 1
ion O   0.154224477024360   0.151949494340909   0.498554083125530 1
ion O   0.095770500256056   0.401709081191798   0.749459922621067 1
ion O   0.403966107265408   0.096049178060753   0.749431334470994 1
ion O   0.346665513228080   0.346969871093229   0.498553628071014 1
ion O   0.156136092750859   0.651452330747005  -0.001396764604596 1
ion O   0.090591152997336   0.896800597655982   0.249978356565263 1
ion O   0.406086354792904   0.598387387595565   0.248641105319850 1
ion O   0.346326283271046   0.847664175109198  -0.001395177998486 1
ion O   0.156270350332808   0.650985482171500   0.498656823998188 1
ion O   0.090721642723450   0.896909922265988   0.747270898647586 1
ion O   0.406067081833928   0.598353959149046   0.748447763028590 1
ion O   0.345858625597885   0.847689402482213   0.498624566810148 1
ion O   0.653678355558459   0.154031764850534  -0.001401767541195 1
ion O   0.598061328705156   0.403794664630754   0.248664905698224 1
ion O   0.898715709397440   0.090205797791845   0.250002036873191 1
ion O   0.847733231206677   0.346232335293464  -0.001357776630655 1
ion O   0.653132393199417   0.154200950155279   0.498572942496708 1
ion O   0.597934207088805   0.403677631146527   0.748423621233888 1
ion O   0.898987520632186   0.090495580802046   0.747236117974655 1
ion O   0.847756433614236   0.345808872002169   0.498573501264351 1
ion O   0.655662588407947   0.651995996838271  -0.001603240053297 1
ion O   0.600795460814087   0.904839481655911   0.251593385746231 1
ion O   0.907154403269484   0.600861506876137   0.251808629689368 1
ion O   0.846128173371604   0.845611438139404  -0.001609490715183 1
ion O   0.656815146864301   0.654661942122569   0.498382609535688 1
ion O   0.601065173260516   0.905125227836803   0.745235144152746 1
ion O   0.907043702618745   0.600761501085326   0.745224779774877 1

# Forces in Lattice coordinates:
force Rh   0.000394002009051   0.001715969045682  -0.000421860372700 1
force Rh   0.001498690205080   0.001041592993108  -0.000277507842443 1
force Rh   0.000345359055379   0.003695187818557   0.001516271838391 1
force Rh   0.001452555014337   0.001037430314675  -0.001692923173971 1
force Rh   0.001829290827770  -0.000823989928441  -0.000577090076932 1
force Rh   0.001127194762330   0.000445216624507  -0.000722599039766 1
force Rh   0.000807999383910   0.000397983072972  -0.000480875009335 1
force Rh   0.000176550958351   0.000827338068576   0.000314930055539 1
force Rh  -0.000568162615386   0.000822597349983  -0.000608985793945 1
force Rh  -0.001631224312124  -0.002024571312446  -0.000972509377684 1
force Rh   0.001305243809874   0.000576841695427  -0.000201359927689 1
force Rh  -0.001830837318330  -0.002219147109845  -0.001630814876530 1
force Rh   0.000108487271040  -0.002050679559920  -0.000436979718211 1
force Rh  -0.000919487582148   0.000382230998606  -0.001559729125164 1
force Rh   0.000600609817296  -0.000925759189757  -0.000683277769661 1
force Rh   0.001496173432206   0.000164829665272   0.001561051986552 1
force O  -0.000986917633836  -0.000171077021344   0.000005533115842 1
force O  -0.000778703811879  -0.001447691428383   0.001002594294559 1
force O  -0.002176839541857  -0.001673814202272   0.000869269069058 1
force O   0.001250129083813  -0.005741400145316  -0.000413963493209 1
force O  -0.001536539680192  -0.000640108415926  -0.000442201374742 1
force O   0.001571859712445   0.000597238853709  -0.000349784075138 1
force O  -0.001517500922302  -0.000871449360564  -0.000367130587625 1
force O   0.000289707470241  -0.002462033490515   0.000403609426479 1
force O  -0.002843410854595   0.003613177384061  -0.000909591536803 1
force O  -0.000773836803441   0.001065771551713  -0.000312334215672 1
force O  -0.000177880113486  -0.001785738013120   0.000032561749206 1
force O  -0.000128366820544  -0.000402837403650  -0.000873141593285 1
force O  -0.000341354002744   0.000508000248171  -0.000962791206683 1
force O  -0.001489453422818   0.001081028369195  -0.001121201720795 1
force O  -0.000490322588060  -0.001278542942309  -0.000022435950056 1
force O   0.000254021349804  -0.000502985579731  -0.001019881285155 1
force O  -0.000716974000588  -0.001704125518071  -0.000401122431759 1
force O   0.001187843703800  -0.000083228777205   0.000110763911834 1
force O  -0.000355297041689   0.001414031345995  -0.000934251974440 1
force O   0.000336644930023  -0.001067190727165  -0.000543103305029 1
force O  -0.001267223675781  -0.000940905266936  -0.000061709213774 1
force O   0.002994726672651   0.000695656154682  -0.000118821376714 1
force O  -0.002250524074564  -0.001803434504651  -0.000147512452535 1
force O  -0.000532636503133  -0.000594293573591  -0.000131663797236 1
force O  -0.003705764173757   0.002554939360898   0.000229433176467 1
force O   0.003368823720731   0.004586928311370   0.000757168782234 1
force O  -0.000339416489661  -0.000393263836600  -0.000800075872182 1
force O  -0.000049864685801   0.002427239704797   0.000806185918730 1
force O  -0.000630063460424   0.003342325269219   0.001341656182745 1
force O   0.000041354452548   0.000397006691305   0.001418761431092 1
force O   0.000328553159374   0.000014720131569   0.001205548647806 1

# Energy components:
   Eewald =    -1395.4225001790603073
       EH =      411.7105261915677374
     Eloc =    -1140.7521641777725563
      Enl =     -104.9512717221844014
      Exc =     -348.0981532890062908
 Exc_core =       65.5739521299896353
       KE =      709.6631185196658862
-------------------------------------
     Etot =    -1802.2764925268004390
       TS =        0.2236911642339826
-------------------------------------
        F =    -1802.5001836910344082

IonicMinimize: Iter:  18  F: -1802.500183691034408  |grad|_K:  8.804e-05  alpha:  1.000e+00  linmin: -3.895e-01  t[s]:  31325.33
IonicMinimize: Converged (|grad|_K<1.000000e-04).

#--- Lowdin population analysis ---
# oxidation-state Rh +0.471 +0.478 +0.382 +0.477 +0.472 +0.474 +0.473 +0.474 +0.472 +0.474 +0.473 +0.474 +0.480 +0.372 +0.473 +0.372
# oxidation-state O -0.220 -0.218 -0.218 -0.221 -0.204 -0.218 -0.218 -0.221 -0.216 -0.211 -0.219 -0.220 -0.219 -0.211 -0.219 -0.220 -0.216 -0.219 -0.211 -0.220 -0.219 -0.219 -0.211 -0.220 -0.189 -0.213 -0.213 -0.224 -0.188 -0.213 -0.213


Dumping '/data/rc652/RhO2/vac/RhO2_vac.Ecomponents' ... done
End date and time: Mon Jun 24 21:48:14 2024  (Duration: 0-8:42:16.66)
Done!
