--------------------------------------------------------------------------
[[37340,1],0]: A high-performance Open MPI point-to-point messaging module
was unable to find any relevant network interfaces:

Module: OpenFabrics (openib)
  Host: node3214

Another transport will be used instead, although this may result in
lower performance.
--------------------------------------------------------------------------

*************** JDFTx 1.7.0  ***************

Start date and time: Tue Apr 23 10:32:48 2024
Executable jdftx with command-line: -i Hf16O_oct.in
Running on hosts (process indices):  node3214.physics.cornell.edu (0-9)
Divided in process groups (process indices):  0 (0)  1 (1)  2 (2)  3 (3)  4 (4)  5 (5)  6 (6)  7 (7)  8 (8)  9 (9)
Resource initialization completed at t[s]:      0.00
Run totals: 10 processes, 40 threads, 0 GPUs


Input parsed successfully to the following command list (including defaults):

basis kpoint-dependent
coords-type Lattice
core-overlap-check vector
coulomb-interaction Periodic
davidson-band-ratio 1.1
dump End Ecomponents
dump-name Hf16O_oct.$VAR
elec-cutoff 20 100
elec-eigen-algo Davidson
elec-ex-corr gga-PBE
elec-smearing Fermi 0.004
electronic-minimize  \
	dirUpdateScheme      FletcherReeves \
	linminMethod         DirUpdateRecommended \
	nIterations          100 \
	history              15 \
	knormThreshold       0 \
	energyDiffThreshold  1e-08 \
	nEnergyDiff          2 \
	alphaTstart          1 \
	alphaTmin            1e-10 \
	updateTestStepSize   yes \
	alphaTreduceFactor   0.1 \
	alphaTincreaseFactor 3 \
	nAlphaAdjustMax      3 \
	wolfeEnergy          0.0001 \
	wolfeGradient        0.9 \
	fdTest               no
electronic-scf  \
	nIterations	50 \
	energyDiffThreshold	1e-06 \
	residualThreshold	1e-07 \
	mixFraction	0.5 \
	qMetric	0.8 \
	history	10 \
	nEigSteps	2 \
	eigDiffThreshold	1e-08 \
	mixedVariable	Density \
	qKerker	0.8 \
	qKappa	-1 \
	verbose	no \
	mixFractionMag	1.5
exchange-regularization WignerSeitzTruncated
fluid None
fluid-ex-corr lda-TF lda-PZ
fluid-gummel-loop 10 1.000000e-05
fluid-minimize  \
	dirUpdateScheme      PolakRibiere \
	linminMethod         DirUpdateRecommended \
	nIterations          100 \
	history              15 \
	knormThreshold       0 \
	energyDiffThreshold  0 \
	nEnergyDiff          2 \
	alphaTstart          1 \
	alphaTmin            1e-10 \
	updateTestStepSize   yes \
	alphaTreduceFactor   0.1 \
	alphaTincreaseFactor 3 \
	nAlphaAdjustMax      3 \
	wolfeEnergy          0.0001 \
	wolfeGradient        0.9 \
	fdTest               no
fluid-solvent H2O 55.338 ScalarEOS \
	epsBulk 78.4 \
	pMol 0.92466 \
	epsInf 1.77 \
	Pvap 1.06736e-10 \
	sigmaBulk 4.62e-05 \
	Rvdw 2.61727 \
	Res 1.42 \
	tauNuc 343133 \
	poleEl 15 7 1
forces-output-coords Positions
ion O   0.166000000000000   0.333000000000000   0.125000000000000 1
ion Hf   0.000000000000000   0.000000000000000   0.000000000000000 1
ion Hf   0.333000000000000   0.167000000000000   0.250000000000000 1
ion Hf  -0.250000000000000   0.433000000000000   0.000000000000000 1
ion Hf   0.083000000000000   0.600000000000000   0.250000000000000 1
ion Hf   0.500000000000000   0.000000000000000   0.000000000000000 1
ion Hf   0.833000000000000   0.167000000000000   0.250000000000000 1
ion Hf   0.250000000000000   0.433000000000000   0.000000000000000 1
ion Hf   0.583000000000000   0.600000000000000   0.250000000000000 1
ion Hf   0.000000000000000   0.000000000000000   0.500000000000000 1
ion Hf   0.333000000000000   0.167000000000000   0.750000000000000 1
ion Hf  -0.250000000000000   0.433000000000000   0.500000000000000 1
ion Hf   0.083000000000000   0.600000000000000   0.750000000000000 1
ion Hf   0.500000000000000   0.000000000000000   0.500000000000000 1
ion Hf   0.833000000000000   0.167000000000000   0.750000000000000 1
ion Hf   0.250000000000000   0.433000000000000   0.500000000000000 1
ion Hf   0.583000000000000   0.600000000000000   0.750000000000000 1
ion-species GBRV/$ID_pbe.uspp
ion-width 0
ionic-minimize  \
	dirUpdateScheme      L-BFGS \
	linminMethod         DirUpdateRecommended \
	nIterations          50 \
	history              15 \
	knormThreshold       0.0001 \
	energyDiffThreshold  1e-06 \
	nEnergyDiff          2 \
	alphaTstart          1 \
	alphaTmin            1e-10 \
	updateTestStepSize   yes \
	alphaTreduceFactor   0.1 \
	alphaTincreaseFactor 3 \
	nAlphaAdjustMax      3 \
	wolfeEnergy          0.0001 \
	wolfeGradient        0.9 \
	fdTest               no
kpoint   0.000000000000   0.000000000000   0.000000000000  1.00000000000000
kpoint-folding 4 4 4 
latt-move-scale 1 1 1
latt-scale 2 2 2 
lattice Hexagonal 6.02823 9.54312
lattice-minimize  \
	dirUpdateScheme      L-BFGS \
	linminMethod         DirUpdateRecommended \
	nIterations          0 \
	history              15 \
	knormThreshold       0 \
	energyDiffThreshold  1e-06 \
	nEnergyDiff          2 \
	alphaTstart          1 \
	alphaTmin            1e-10 \
	updateTestStepSize   yes \
	alphaTreduceFactor   0.1 \
	alphaTincreaseFactor 3 \
	nAlphaAdjustMax      3 \
	wolfeEnergy          0.0001 \
	wolfeGradient        0.9 \
	fdTest               no
lcao-params -1 1e-06 0.004
pcm-variant GLSSA13
spintype no-spin
subspace-rotation-factor 1 yes
symmetries automatic
symmetry-threshold 0.0001



---------- Setting up symmetries ----------

Found 24 point-group symmetries of the bravais lattice
Found 1 space-group symmetries with basis
Applied RMS atom displacement 0 bohrs to make symmetries exact.

---------- Initializing the Grid ----------
R = 
[      12.0565     -6.02823            0  ]
[            0      10.4412            0  ]
[            0            0      19.0862  ]
unit cell volume = 2402.65
G =
[   0.521147   0.300884         -0  ]
[          0   0.601769          0  ]
[          0         -0     0.3292  ]
Minimum fftbox size, Smin = [  56  56  88  ]
Chosen fftbox size, S = [  56  56  90  ]

---------- Initializing tighter grid for wavefunction operations ----------
R = 
[      12.0565     -6.02823            0  ]
[            0      10.4412            0  ]
[            0            0      19.0862  ]
unit cell volume = 2402.65
G =
[   0.521147   0.300884         -0  ]
[          0   0.601769          0  ]
[          0         -0     0.3292  ]
Minimum fftbox size, Smin = [  52  52  80  ]
Chosen fftbox size, S = [  54  54  80  ]

---------- Exchange Correlation functional ----------
Initalized PBE GGA exchange.
Initalized PBE GGA correlation.

---------- Setting up pseudopotentials ----------
Width of ionic core gaussian charges (only for fluid interactions / plotting) set to 0

Reading pseudopotential file '/home/cam559/JDFTx/build/pseudopotentials/GBRV/o_pbe.uspp':
  Title: O.  Created by USPP 7.3.6 on 3-2-2014
  Reference state energy: -15.894388.  6 valence electrons in orbitals:
    |200>  occupation: 2  eigenvalue: -0.878823
    |210>  occupation: 4  eigenvalue: -0.332131
  lMax: 2  lLocal: 2  QijEcut: 6
  5 projectors sampled on a log grid with 511 points:
    l: 0  eig: -0.878823  rCut: 1.25
    l: 0  eig: 0.000000  rCut: 1.25
    l: 1  eig: -0.332132  rCut: 1.25
    l: 1  eig: 0.000000  rCut: 1.25
    l: 2  eig: 1.000000  rCut: 1.25
  Partial core density with radius 0.7
  Transforming core density to a uniform radial grid of dG=0.02 with 1642 points.
  Transforming local potential to a uniform radial grid of dG=0.02 with 1642 points.
  Transforming nonlocal projectors to a uniform radial grid of dG=0.02 with 432 points.
  Transforming density augmentations to a uniform radial grid of dG=0.02 with 1642 points.
  Transforming atomic orbitals to a uniform radial grid of dG=0.02 with 432 points.
  Core radius for overlap checks: 1.25 bohrs.

Reading pseudopotential file '/home/cam559/JDFTx/build/pseudopotentials/GBRV/hf_pbe.uspp':
  Title: Hf.  Created by USPP 7.3.6 on 14-9-2013
  Reference state energy: -78.399178.  12 valence electrons in orbitals:
    |500>  occupation: 2  eigenvalue: -3.016121
    |510>  occupation: 6  eigenvalue: -1.860466
    |600>  occupation: 0  eigenvalue: -0.643057
    |610>  occupation: 0  eigenvalue: -0.441591
    |520>  occupation: 2  eigenvalue: -0.613878
  lMax: 3  lLocal: 3  QijEcut: 5
  8 projectors sampled on a log grid with 679 points:
    l: 0  eig: -3.016122  rCut: 1.5
    l: 0  eig: -0.643058  rCut: 1.5
    l: 0  eig: 1.000000  rCut: 1.5
    l: 1  eig: -1.860465  rCut: 1.6
    l: 1  eig: -0.441594  rCut: 1.6
    l: 2  eig: -0.613878  rCut: 1.75
    l: 2  eig: 1.000000  rCut: 1.75
    l: 3  eig: 1.000000  rCut: 2.3
  Partial core density with radius 1
  Transforming core density to a uniform radial grid of dG=0.02 with 1642 points.
  Transforming local potential to a uniform radial grid of dG=0.02 with 1642 points.
  Transforming nonlocal projectors to a uniform radial grid of dG=0.02 with 432 points.
  Transforming density augmentations to a uniform radial grid of dG=0.02 with 1642 points.
  Transforming atomic orbitals to a uniform radial grid of dG=0.02 with 432 points.
  Core radius for overlap checks: 2.30 bohrs.

Initialized 2 species with 17 total atoms.

Folded 1 k-points by 4x4x4 to 64 k-points.

---------- Setting up k-points, bands, fillings ----------
Adding inversion symmetry to k-mesh for non-inversion-symmetric unit cell.
Reduced to 36 k-points under symmetry. 
Computing the number of bands and number of electrons
Calculating initial fillings.
nElectrons: 198.000000   nBands: 212   nStates: 36

----- Setting up reduced wavefunction bases (one per k-point) -----
average nbasis = 10264.078 , ideal nbasis = 10264.289

---------- Setting up ewald sum ----------
Optimum gaussian width for ewald sums = 3.332206 bohr.
Real space sum over 847 unit cells with max indices [  5  5  3  ]
Reciprocal space sum over 4725 terms with max indices [  7  7  10  ]

---------- Allocating electronic variables ----------
Initializing wave functions:  linear combination of atomic orbitals
O pseudo-atom occupations:   s ( 2 )  p ( 4 )
Hf pseudo-atom occupations:   s ( 2 2 )  p ( 6 0 )  d ( 2 )
	FillingsUpdate:  mu: +0.542819189  nElectrons: 198.000000
LCAOMinimize: Iter:   0  F: -811.4021074814862686  |grad|_K:  9.462e-04  alpha:  1.000e+00
	FillingsUpdate:  mu: +0.544023107  nElectrons: 198.000000
LCAOMinimize: Iter:   1  F: -811.4948657807638028  |grad|_K:  8.283e-04  alpha:  1.004e-01  linmin: -5.938e-02  cgtest:  2.553e-01  t[s]:     57.03
	FillingsUpdate:  mu: +0.548947002  nElectrons: 198.000000
LCAOMinimize: Iter:   2  F: -811.5937676699372787  |grad|_K:  6.562e-04  alpha:  1.550e-01  linmin:  1.407e-02  cgtest: -4.527e-01  t[s]:     79.74
	FillingsUpdate:  mu: +0.549796382  nElectrons: 198.000000
LCAOMinimize: Iter:   3  F: -811.6132635288406618  |grad|_K:  3.895e-04  alpha:  6.172e-02  linmin: -5.369e-03  cgtest:  7.834e-01  t[s]:    100.85
LCAOMinimize: Encountered beta<0, resetting CG.
	FillingsUpdate:  mu: +0.549526959  nElectrons: 198.000000
LCAOMinimize: Iter:   4  F: -811.6243182627365513  |grad|_K:  3.061e-04  alpha:  8.945e-02  linmin:  1.739e-03  cgtest: -1.038e-02  t[s]:    122.79
	FillingsUpdate:  mu: +0.550021821  nElectrons: 198.000000
LCAOMinimize: Iter:   5  F: -811.6324285977005957  |grad|_K:  1.317e-04  alpha:  1.070e-01  linmin:  2.590e-03  cgtest:  4.488e-02  t[s]:    143.99
	FillingsUpdate:  mu: +0.550825392  nElectrons: 198.000000
LCAOMinimize: Iter:   6  F: -811.6355949494045490  |grad|_K:  1.190e-04  alpha:  2.261e-01  linmin:  1.692e-03  cgtest: -6.608e-03  t[s]:    164.94
	FillingsUpdate:  mu: +0.550804569  nElectrons: 198.000000
LCAOMinimize: Iter:   7  F: -811.6364883522550144  |grad|_K:  7.727e-05  alpha:  7.728e-02  linmin: -1.540e-03  cgtest:  3.558e-02  t[s]:    186.60
	FillingsUpdate:  mu: +0.551341630  nElectrons: 198.000000
LCAOMinimize: Iter:   8  F: -811.6374109642443955  |grad|_K:  2.973e-05  alpha:  1.884e-01  linmin:  1.925e-03  cgtest: -6.119e-02  t[s]:    207.93
	FillingsUpdate:  mu: +0.551401080  nElectrons: 198.000000
LCAOMinimize: Iter:   9  F: -811.6375041378933020  |grad|_K:  2.806e-05  alpha:  1.299e-01  linmin:  6.515e-06  cgtest:  8.475e-03  t[s]:    229.75
	FillingsUpdate:  mu: +0.551436572  nElectrons: 198.000000
LCAOMinimize: Iter:  10  F: -811.6375543418766938  |grad|_K:  9.544e-06  alpha:  7.805e-02  linmin: -3.069e-05  cgtest: -9.253e-03  t[s]:    252.06
	FillingsUpdate:  mu: +0.551436725  nElectrons: 198.000000
LCAOMinimize: Iter:  11  F: -811.6375691373389145  |grad|_K:  5.180e-06  alpha:  1.989e-01  linmin:  7.809e-05  cgtest:  1.572e-04  t[s]:    273.36
	FillingsUpdate:  mu: +0.551419354  nElectrons: 198.000000
LCAOMinimize: Iter:  12  F: -811.6375731649928866  |grad|_K:  6.356e-06  alpha:  1.839e-01  linmin:  8.716e-06  cgtest:  4.067e-04  t[s]:    294.22
	FillingsUpdate:  mu: +0.551422803  nElectrons: 198.000000
LCAOMinimize: Iter:  13  F: -811.6375760150280030  |grad|_K:  2.468e-06  alpha:  8.642e-02  linmin:  3.122e-05  cgtest: -3.535e-04  t[s]:    316.16
	FillingsUpdate:  mu: +0.551420135  nElectrons: 198.000000
LCAOMinimize: Iter:  14  F: -811.6375767969969957  |grad|_K:  1.365e-06  alpha:  1.572e-01  linmin:  3.120e-06  cgtest: -1.814e-04  t[s]:    336.49
	FillingsUpdate:  mu: +0.551418636  nElectrons: 198.000000
LCAOMinimize: Iter:  15  F: -811.6375768926184264  |grad|_K:  7.196e-07  alpha:  6.280e-02  linmin:  6.774e-06  cgtest: -6.515e-07  t[s]:    357.44
LCAOMinimize: Converged (|Delta F|<1.000000e-06 for 2 iters).


---- Citations for features of the code used in this run ----

   Software package:
      R. Sundararaman, K. Letchworth-Weaver, K.A. Schwarz, D. Gunceler, Y. Ozhabes and T.A. Arias, 'JDFTx: software for joint density-functional theory', SoftwareX 6, 278 (2017)

   gga-PBE exchange-correlation functional:
      J.P. Perdew, K. Burke and M. Ernzerhof, Phys. Rev. Lett. 77, 3865 (1996)

   Pseudopotentials:
      KF Garrity, JW Bennett, KM Rabe and D Vanderbilt, Comput. Mater. Sci. 81, 446 (2014)

This list may not be complete. Please suggest additional citations or
report any other bugs at https://github.com/shankar1729/jdftx/issues

Initialization completed successfully at t[s]:    363.35


-------- Electronic minimization -----------
Will mix electronic density at each iteration.
	FillingsUpdate:  mu: +0.551418636  nElectrons: 198.000000
	FillingsUpdate:  mu: +0.545549480  nElectrons: 198.000000
SCF: Cycle:  0   F: -811.913239385109478   dF: -2.757e-01   |Residual|: 1.522e-01   |deigs|: 5.833e-02  t[s]:    433.53
	FillingsUpdate:  mu: +0.542938235  nElectrons: 198.000000
SCF: Cycle:  1   F: -811.937735174094087   dF: -2.450e-02   |Residual|: 7.425e-02   |deigs|: 6.393e-03  t[s]:    489.75
	FillingsUpdate:  mu: +0.541523387  nElectrons: 198.000000
SCF: Cycle:  2   F: -811.934815593233679   dF: +2.920e-03   |Residual|: 2.951e-02   |deigs|: 3.489e-03  t[s]:    546.09
	FillingsUpdate:  mu: +0.541069099  nElectrons: 198.000000
SCF: Cycle:  3   F: -811.942995780224692   dF: -8.180e-03   |Residual|: 1.240e-02   |deigs|: 1.282e-03  t[s]:    580.82
	FillingsUpdate:  mu: +0.541019435  nElectrons: 198.000000
SCF: Cycle:  4   F: -811.943530163035803   dF: -5.344e-04   |Residual|: 5.529e-03   |deigs|: 2.767e-04  t[s]:    616.11
	FillingsUpdate:  mu: +0.540997754  nElectrons: 198.000000
SCF: Cycle:  5   F: -811.943608841918945   dF: -7.868e-05   |Residual|: 2.196e-03   |deigs|: 1.327e-04  t[s]:    650.97
	FillingsUpdate:  mu: +0.540989111  nElectrons: 198.000000
SCF: Cycle:  6   F: -811.943655057593105   dF: -4.622e-05   |Residual|: 6.424e-04   |deigs|: 5.638e-05  t[s]:    685.73
	FillingsUpdate:  mu: +0.540987017  nElectrons: 198.000000
SCF: Cycle:  7   F: -811.943655492812809   dF: -4.352e-07   |Residual|: 3.230e-04   |deigs|: 1.744e-05  t[s]:    720.50
	FillingsUpdate:  mu: +0.540987055  nElectrons: 198.000000
SCF: Cycle:  8   F: -811.943656088399507   dF: -5.956e-07   |Residual|: 1.111e-04   |deigs|: 1.287e-05  t[s]:    754.44
SCF: Converged (|Delta E|<1.000000e-06 for 2 iters).

Setting wave functions to eigenvectors of Hamiltonian

# Ionic positions in lattice coordinates:
ion O   0.166000000000000   0.333000000000000   0.125000000000000 1
ion Hf   0.000000000000000   0.000000000000000   0.000000000000000 1
ion Hf   0.333000000000000   0.167000000000000   0.250000000000000 1
ion Hf  -0.250000000000000   0.433000000000000   0.000000000000000 1
ion Hf   0.083000000000000   0.600000000000000   0.250000000000000 1
ion Hf   0.500000000000000   0.000000000000000   0.000000000000000 1
ion Hf   0.833000000000000   0.167000000000000   0.250000000000000 1
ion Hf   0.250000000000000   0.433000000000000   0.000000000000000 1
ion Hf   0.583000000000000   0.600000000000000   0.250000000000000 1
ion Hf   0.000000000000000   0.000000000000000   0.500000000000000 1
ion Hf   0.333000000000000   0.167000000000000   0.750000000000000 1
ion Hf  -0.250000000000000   0.433000000000000   0.500000000000000 1
ion Hf   0.083000000000000   0.600000000000000   0.750000000000000 1
ion Hf   0.500000000000000   0.000000000000000   0.500000000000000 1
ion Hf   0.833000000000000   0.167000000000000   0.750000000000000 1
ion Hf   0.250000000000000   0.433000000000000   0.500000000000000 1
ion Hf   0.583000000000000   0.600000000000000   0.750000000000000 1

# Forces in Lattice coordinates:
force O  -1.828696028497656  -3.320106214005389  17.375147322893991 1
force Hf  -0.198337581942098  -1.340365222400874  -0.226237676102164 1
force Hf   0.050974410520951  -0.789249291007130   0.241945003781856 1
force Hf   0.020020648669068   0.612669343240364  -0.118140575592895 1
force Hf   0.089162488997999   1.232931124187592   0.172064845431471 1
force Hf  -0.154839287827935  -1.027987403952784   0.087206180107173 1
force Hf  -0.351421081940025  -0.627599553624649   0.198759550128103 1
force Hf   2.088993339253704   4.191443177118199 -17.559736766702592 1
force Hf   0.289115314807896   1.166566253401574   0.161511007229984 1
force Hf  -0.164573190235819  -1.078710755711437  -0.054978921007510 1
force Hf  -0.075253170259809  -0.675980652819697  -0.144603284307908 1
force Hf   0.120744135669674   0.593586827409278  -0.007508265767782 1
force Hf   0.075305554490399   1.136016579432823  -0.098442745974272 1
force Hf  -0.179914193894472  -1.075695031395458   0.013054125844773 1
force Hf  -0.147441370661391  -0.612277515334385   0.000917637719575 1
force Hf   0.143013884938506   0.562498513207959   0.037037321957330 1
force Hf   0.240225786212629   1.046455075737528  -0.073230907878210 1

# Energy components:
   Eewald =     -616.2564244883644733
       EH =      136.5579700774118521
     Eloc =     -261.4505764081110328
      Enl =     -227.9377975473624929
      Exc =     -610.5587619749940131
 Exc_core =      475.1594754213856504
       KE =      292.5733022320540044
-------------------------------------
     Etot =     -811.9128126879807041
       TS =        0.0308434004187810
-------------------------------------
        F =     -811.9436560883995071

IonicMinimize: Iter:   0  F: -811.943656088399507  |grad|_K:  2.119e-01  t[s]:    761.81

#--- Lowdin population analysis ---
# oxidation-state O +0.176
# oxidation-state Hf +0.092 -0.023 -0.064 +0.070 +0.054 -0.028 -0.197 +0.082 +0.062 -0.031 -0.032 +0.060 +0.065 -0.031 -0.035 +0.070


-------- Electronic minimization -----------
Will mix electronic density at each iteration.
	FillingsUpdate:  mu: +0.540987055  nElectrons: 198.000000
	FillingsUpdate:  mu: +0.542535823  nElectrons: 198.000000
SCF: Cycle:  0   F: -809.771111515929078   dF: +2.048e+00   |Residual|: 4.784e-01   |deigs|: 2.753e-03  t[s]:    837.21
	FillingsUpdate:  mu: +0.542159666  nElectrons: 198.000000
SCF: Cycle:  1   F: -810.646648197488162   dF: -8.755e-01   |Residual|: 2.897e-01   |deigs|: 1.607e-02  t[s]:    891.70
	FillingsUpdate:  mu: +0.541240262  nElectrons: 198.000000
SCF: Cycle:  2   F: -812.002255783903365   dF: -1.356e+00   |Residual|: 1.001e-01   |deigs|: 8.578e-03  t[s]:    946.00
	FillingsUpdate:  mu: +0.541035502  nElectrons: 198.000000
SCF: Cycle:  3   F: -812.112618002948125   dF: -1.104e-01   |Residual|: 3.394e-02   |deigs|: 1.526e-03  t[s]:   1000.11
	FillingsUpdate:  mu: +0.541048423  nElectrons: 198.000000
SCF: Cycle:  4   F: -812.118437144402947   dF: -5.819e-03   |Residual|: 1.504e-02   |deigs|: 9.862e-04  t[s]:   1052.15
	FillingsUpdate:  mu: +0.541057383  nElectrons: 198.000000
SCF: Cycle:  5   F: -812.118767402246021   dF: -3.303e-04   |Residual|: 7.504e-03   |deigs|: 3.248e-04  t[s]:   1085.85
	FillingsUpdate:  mu: +0.541079121  nElectrons: 198.000000
SCF: Cycle:  6   F: -812.119008975287670   dF: -2.416e-04   |Residual|: 1.894e-03   |deigs|: 1.250e-04  t[s]:   1120.03
	FillingsUpdate:  mu: +0.541078409  nElectrons: 198.000000
SCF: Cycle:  7   F: -812.119024227629438   dF: -1.525e-05   |Residual|: 8.066e-04   |deigs|: 3.598e-05  t[s]:   1154.26
	FillingsUpdate:  mu: +0.541076430  nElectrons: 198.000000
SCF: Cycle:  8   F: -812.119028129712206   dF: -3.902e-06   |Residual|: 3.114e-04   |deigs|: 1.614e-05  t[s]:   1188.03
	FillingsUpdate:  mu: +0.541076215  nElectrons: 198.000000
SCF: Cycle:  9   F: -812.119028320757820   dF: -1.910e-07   |Residual|: 1.427e-04   |deigs|: 5.809e-06  t[s]:   1221.62
	FillingsUpdate:  mu: +0.541076256  nElectrons: 198.000000
SCF: Cycle: 10   F: -812.119028399377044   dF: -7.862e-08   |Residual|: 6.159e-05   |deigs|: 3.091e-06  t[s]:   1255.70
SCF: Converged (|Delta E|<1.000000e-06 for 2 iters).

Setting wave functions to eigenvectors of Hamiltonian

# Ionic positions in lattice coordinates:
ion O   0.162986056587776   0.329342574459813   0.129490998545842 1
ion Hf  -0.000750858812183  -0.001243460563924  -0.000058549603049 1
ion Hf   0.332702469940940   0.166340201809171   0.250062464717399 1
ion Hf  -0.249718848086059   0.433537667774864  -0.000030609019763 1
ion Hf   0.083608728738401   0.601103244995057   0.250044402323725 1
ion Hf   0.499421610481395  -0.000954876013975   0.000022468334793 1
ion Hf   0.832424730269145   0.166306044301658   0.250051302283265 1
ion Hf   0.253613606596833   0.437522128025146  -0.004538855482726 1
ion Hf   0.583752767870323   0.601132275192428   0.250041674402311 1
ion Hf  -0.000608701473972  -0.001002889207216   0.499985716797138 1
ion Hf   0.332642362430393   0.166383520414593   0.749962550986256 1
ion Hf  -0.249640094243177   0.433564683558598   0.499997986856096 1
ion Hf   0.083554908127658   0.601013556068453   0.749974482410501 1
ion Hf   0.499379350879396  -0.001006909525875   0.500003301755503 1
ion Hf   0.832607523791505   0.166407366264888   0.750000164755938 1
ion Hf   0.250365714632458   0.433547449827197   0.500009500853215 1
ion Hf   0.583658672269167   0.601007422619124   0.749980999083556 1

# Forces in Lattice coordinates:
force O  -1.114941867693833  -2.097790414596635  10.828350051913004 1
force Hf  -0.189060058208834  -1.217159435735274  -0.156387305394787 1
force Hf   0.041218149969861  -0.755729902488591   0.217119267164250 1
force Hf   0.015337950353374   0.589644419927046  -0.142149248674611 1
force Hf   0.103044950609254   1.180567027809770   0.127813559734394 1
force Hf  -0.150958049504637  -1.002924197241946   0.071866445216815 1
force Hf  -0.334316113649896  -0.616437397202115   0.180208667796612 1
force Hf   1.369312210129005   2.863760272598284 -10.904108442105535 1
force Hf   0.255148803744214   1.133125386213099   0.115969822416677 1
force Hf  -0.163719497396569  -1.048813737037827  -0.062429296362966 1
force Hf  -0.079967158765283  -0.630971317510682  -0.116415774595584 1
force Hf   0.115594401579197   0.574950090123824  -0.008809169108470 1
force Hf   0.067789785709955   1.114470898888858  -0.121989718745914 1
force Hf  -0.174224263288468  -1.049237929022802   0.015775691322271 1
force Hf  -0.136829287559465  -0.590198205037802   0.017231589768193 1
force Hf   0.140305455344369   0.544505885878652   0.079591694842252 1
force Hf   0.249898653091161   1.016842450614733  -0.114301661992076 1

# Energy components:
   Eewald =     -618.5280309815180999
       EH =      134.6781289833512005
     Eloc =     -257.2314587782617537
      Enl =     -227.9282799619277853
      Exc =     -610.4401909707189589
 Exc_core =      475.1590944639392546
       KE =      292.2027989761376148
-------------------------------------
     Etot =     -812.0879382689985277
       TS =        0.0310901303784753
-------------------------------------
        F =     -812.1190283993770436

IonicMinimize: Iter:   1  F: -812.119028399377044  |grad|_K:  1.390e-01  alpha:  9.416e-02  linmin: -9.919e-01  t[s]:   1262.62

#--- Lowdin population analysis ---
# oxidation-state O +0.081
# oxidation-state Hf +0.101 -0.015 -0.062 +0.077 +0.042 -0.020 -0.121 +0.087 +0.062 -0.029 -0.032 +0.052 +0.062 -0.028 -0.036 +0.059


-------- Electronic minimization -----------
Will mix electronic density at each iteration.
	FillingsUpdate:  mu: +0.541076256  nElectrons: 198.000000
	FillingsUpdate:  mu: +0.544225860  nElectrons: 198.000000
SCF: Cycle:  0   F: -809.172748828062595   dF: +2.675e+00   |Residual|: 5.684e-01   |deigs|: 3.464e-03  t[s]:   1338.36
	FillingsUpdate:  mu: +0.542404119  nElectrons: 198.000000
SCF: Cycle:  1   F: -810.819047012595547   dF: -1.646e+00   |Residual|: 3.066e-01   |deigs|: 1.713e-02  t[s]:   1392.53
	FillingsUpdate:  mu: +0.541375462  nElectrons: 198.000000
SCF: Cycle:  2   F: -812.027969226494633   dF: -1.209e+00   |Residual|: 1.143e-01   |deigs|: 8.815e-03  t[s]:   1445.91
	FillingsUpdate:  mu: +0.541172291  nElectrons: 198.000000
SCF: Cycle:  3   F: -812.237665605569077   dF: -2.097e-01   |Residual|: 3.863e-02   |deigs|: 1.802e-03  t[s]:   1499.48
	FillingsUpdate:  mu: +0.541184782  nElectrons: 198.000000
SCF: Cycle:  4   F: -812.247207261030212   dF: -9.542e-03   |Residual|: 1.645e-02   |deigs|: 1.107e-03  t[s]:   1553.53
	FillingsUpdate:  mu: +0.541228593  nElectrons: 198.000000
SCF: Cycle:  5   F: -812.247372210374010   dF: -1.649e-04   |Residual|: 7.715e-03   |deigs|: 3.221e-04  t[s]:   1588.10
	FillingsUpdate:  mu: +0.541259437  nElectrons: 198.000000
SCF: Cycle:  6   F: -812.247692053752758   dF: -3.198e-04   |Residual|: 2.376e-03   |deigs|: 1.591e-04  t[s]:   1622.85
	FillingsUpdate:  mu: +0.541259220  nElectrons: 198.000000
SCF: Cycle:  7   F: -812.247721238502095   dF: -2.918e-05   |Residual|: 9.484e-04   |deigs|: 4.323e-05  t[s]:   1657.42
	FillingsUpdate:  mu: +0.541255936  nElectrons: 198.000000
SCF: Cycle:  8   F: -812.247725570212992   dF: -4.332e-06   |Residual|: 4.256e-04   |deigs|: 2.113e-05  t[s]:   1691.55
	FillingsUpdate:  mu: +0.541255216  nElectrons: 198.000000
SCF: Cycle:  9   F: -812.247726233660046   dF: -6.634e-07   |Residual|: 1.682e-04   |deigs|: 8.784e-06  t[s]:   1725.93
	FillingsUpdate:  mu: +0.541255428  nElectrons: 198.000000
SCF: Cycle: 10   F: -812.247726300077375   dF: -6.642e-08   |Residual|: 7.970e-05   |deigs|: 3.483e-06  t[s]:   1760.07
SCF: Converged (|Delta E|<1.000000e-06 for 2 iters).

Setting wave functions to eigenvectors of Hamiltonian

# Ionic positions in lattice coordinates:
ion O   0.160160345111195   0.325811229462406   0.133751669648695 1
ion Hf  -0.002367940377058  -0.003885931762780  -0.000131845716163 1
ion Hf   0.331986999750813   0.164798842783912   0.250190130726989 1
ion Hf  -0.249077994720552   0.434781814032668  -0.000133366098889 1
ion Hf   0.085077310507604   0.603682212046039   0.250106716911561 1
ion Hf   0.498041344842871  -0.003235254746967   0.000060739837291 1
ion Hf   0.831074303043412   0.164648377763605   0.250157841486152 1
ion Hf   0.257721548419176   0.442815568337490  -0.008806579958903 1
ion Hf   0.585444131055955   0.603765773176118   0.250095851163440 1
ion Hf  -0.002066440790630  -0.003390889759846   0.499940974824635 1
ion Hf   0.331815506165337   0.164999134533382   0.749897791926873 1
ion Hf  -0.248797460793825   0.434890590014249   0.499990214641239 1
ion Hf   0.084868662777921   0.603440483669000   0.749884863759924 1
ion Hf   0.497902893601002  -0.003408497797286   0.500012974986824 1
ion Hf   0.831707688622187   0.165028486197944   0.750016363936383 1
ion Hf   0.251232511747712   0.434837096463370   0.500076547313936 1
ion Hf   0.585276591036881   0.603420965586696   0.749889110610012 1

# Forces in Lattice coordinates:
force O  -0.660473098477704  -1.311569310984535   6.628476987164467 1
force Hf  -0.174383125429003  -1.060347725810027  -0.094825219598433 1
force Hf   0.040620738395559  -0.700577013307623   0.209580278657190 1
force Hf   0.005005155270324   0.545088006535449  -0.157484882660493 1
force Hf   0.112097572360465   1.091242744896975   0.090530705579864 1
force Hf  -0.142073672379496  -0.939318456873065   0.058854394663095 1
force Hf  -0.318073912549645  -0.580427520682175   0.179183153622830 1
force Hf   0.912180762616046   1.939330188765383  -6.651836154755763 1
force Hf   0.219207303549066   1.063204119228583   0.080055764038748 1
force Hf  -0.158008162109992  -0.982911158827091  -0.068173186430505 1
force Hf  -0.083166280031120  -0.562735068908251  -0.088721127992473 1
force Hf   0.106491109966969   0.530553173290431  -0.012373419709065 1
force Hf   0.058609648755940   1.055536513374322  -0.141599353150415 1
force Hf  -0.163395014959403  -0.986445822959627   0.017144700890213 1
force Hf  -0.120396170217461  -0.543322588731298   0.026313077920899 1
force Hf   0.130598304329957   0.502748420174509   0.072522904334531 1
force Hf   0.249445608776799   0.955994700681379  -0.148485087386613 1

# Energy components:
   Eewald =     -621.3394801121362434
       EH =      132.1971093009022127
     Eloc =     -251.8360324058797914
      Enl =     -227.9111927599028888
      Exc =     -610.3235912851678222
 Exc_core =      475.1586292218908056
       KE =      291.8382433025094542
-------------------------------------
     Etot =     -812.2163147377841597
       TS =        0.0314115622932018
-------------------------------------
        F =     -812.2477263000773746

IonicMinimize: Iter:   2  F: -812.247726300077375  |grad|_K:  9.336e-02  alpha:  5.262e-01  linmin: -9.997e-01  t[s]:   1767.20

#--- Lowdin population analysis ---
# oxidation-state O +0.011
# oxidation-state Hf +0.107 -0.007 -0.057 +0.081 +0.031 -0.012 -0.066 +0.090 +0.059 -0.025 -0.030 +0.044 +0.058 -0.023 -0.036 +0.050


-------- Electronic minimization -----------
Will mix electronic density at each iteration.
	FillingsUpdate:  mu: +0.541255428  nElectrons: 198.000000
	FillingsUpdate:  mu: +0.545943724  nElectrons: 198.000000
SCF: Cycle:  0   F: -807.806287629264034   dF: +3.907e+00   |Residual|: 7.279e-01   |deigs|: 5.661e-03  t[s]:   1843.32
	FillingsUpdate:  mu: +0.542787212  nElectrons: 198.000000
SCF: Cycle:  1   F: -810.995412902239877   dF: -3.189e+00   |Residual|: 3.421e-01   |deigs|: 1.852e-02  t[s]:   1898.54
	FillingsUpdate:  mu: +0.541683003  nElectrons: 198.000000
SCF: Cycle:  2   F: -811.940307709717445   dF: -9.449e-01   |Residual|: 1.385e-01   |deigs|: 9.326e-03  t[s]:   1952.72
	FillingsUpdate:  mu: +0.541423710  nElectrons: 198.000000
SCF: Cycle:  3   F: -812.330938855475210   dF: -3.906e-01   |Residual|: 4.813e-02   |deigs|: 2.281e-03  t[s]:   2007.06
	FillingsUpdate:  mu: +0.541412243  nElectrons: 198.000000
SCF: Cycle:  4   F: -812.351728369250509   dF: -2.079e-02   |Residual|: 1.965e-02   |deigs|: 1.328e-03  t[s]:   2061.70
	FillingsUpdate:  mu: +0.541486418  nElectrons: 198.000000
SCF: Cycle:  5   F: -812.351910877605292   dF: -1.825e-04   |Residual|: 8.163e-03   |deigs|: 2.887e-04  t[s]:   2095.77
	FillingsUpdate:  mu: +0.541519657  nElectrons: 198.000000
SCF: Cycle:  6   F: -812.352167885499398   dF: -2.570e-04   |Residual|: 3.231e-03   |deigs|: 1.781e-04  t[s]:   2129.36
	FillingsUpdate:  mu: +0.541520036  nElectrons: 198.000000
SCF: Cycle:  7   F: -812.352268627553372   dF: -1.007e-04   |Residual|: 1.180e-03   |deigs|: 6.747e-05  t[s]:   2162.76
	FillingsUpdate:  mu: +0.541514925  nElectrons: 198.000000
SCF: Cycle:  8   F: -812.352272858253855   dF: -4.231e-06   |Residual|: 5.428e-04   |deigs|: 2.461e-05  t[s]:   2196.56
	FillingsUpdate:  mu: +0.541514219  nElectrons: 198.000000
SCF: Cycle:  9   F: -812.352274272256182   dF: -1.414e-06   |Residual|: 2.029e-04   |deigs|: 1.227e-05  t[s]:   2230.59
	FillingsUpdate:  mu: +0.541514597  nElectrons: 198.000000
SCF: Cycle: 10   F: -812.352274339570499   dF: -6.731e-08   |Residual|: 9.491e-05   |deigs|: 3.530e-06  t[s]:   2264.97
	FillingsUpdate:  mu: +0.541514708  nElectrons: 198.000000
SCF: Cycle: 11   F: -812.352274364878895   dF: -2.531e-08   |Residual|: 4.285e-05   |deigs|: 1.876e-06  t[s]:   2298.79
SCF: Converged (|Delta E|<1.000000e-06 for 2 iters).

Setting wave functions to eigenvectors of Hamiltonian

# Ionic positions in lattice coordinates:
ion O   0.157569490867156   0.322438804847175   0.137717389364023 1
ion Hf  -0.004958191170049  -0.008071460226813  -0.000195720801165 1
ion Hf   0.330799468655622   0.162204988171290   0.250427290719529 1
ion Hf  -0.248047049755922   0.436847360037575  -0.000333868844970 1
ion Hf   0.087613423145699   0.608051998629950   0.250184399347215 1
ion Hf   0.495687105171596  -0.007119856924839   0.000120355414966 1
ion Hf   0.828732136557630   0.161795808815956   0.250363715671451 1
ion Hf   0.262377556629007   0.448848622896413  -0.012741790714552 1
ion Hf   0.588258291812533   0.608226791213921   0.250161239382565 1
ion Hf  -0.004573424851689  -0.007474892434632   0.499855684878407 1
ion Hf   0.330428211472624   0.162737434570368   0.749813554463527 1
ion Hf  -0.247389881879269   0.437105166235925   0.499973966833722 1
ion Hf   0.087111587650370   0.607614187221255   0.749701621820178 1
ion Hf   0.495375866170298  -0.007519040378683   0.500035023892550 1
ion Hf   0.830227775358342   0.162737315525664   0.750056938936259 1
ion Hf   0.252684550484964   0.436994552690916   0.500174225245487 1
ion Hf   0.588103083681087   0.607582219108559   0.749685974390805 1

# Forces in Lattice coordinates:
force O  -0.381906852010789  -0.808012138158409   3.981514414390639 1
force Hf  -0.154575150424971  -0.884164052653554  -0.043825570306912 1
force Hf   0.040580158750838  -0.607125740052582   0.205301358274780 1
force Hf  -0.006913911624473   0.472066619028197  -0.167403123528922 1
force Hf   0.115122544898738   0.953599140862811   0.061755707514333 1
force Hf  -0.126575280251382  -0.838284600490184   0.048701504500309 1
force Hf  -0.294849156231698  -0.508502442881687   0.180746497725095 1
force Hf   0.620942490883197   1.277866664158987  -3.929586668012654 1
force Hf   0.178116352892280   0.949521928483566   0.054913481974602 1
force Hf  -0.146249144395763  -0.882815648217550  -0.072335445075027 1
force Hf  -0.082674025916598  -0.468141441877936  -0.061837995467956 1
force Hf   0.096804990375179   0.454141911127313  -0.016342372139367 1
force Hf   0.044278375579463   0.951563818577077  -0.155308467982468 1
force Hf  -0.145194911519909  -0.891844640291851   0.017185639723490 1
force Hf  -0.100361243866664  -0.461911769948561   0.029395855464130 1
force Hf   0.112528617665708   0.434342215251199   0.054392072638618 1
force Hf   0.239133184003988   0.856881606672420  -0.176540473838763 1

# Energy components:
   Eewald =     -624.7389144763344575
       EH =      129.1128948881596159
     Eloc =     -245.2332654485984165
      Enl =     -227.8887556788246798
      Exc =     -610.2053760033493290
 Exc_core =      475.1581047826091435
       KE =      291.4748492616297995
-------------------------------------
     Etot =     -812.3204626747083239
       TS =        0.0318116901705628
-------------------------------------
        F =     -812.3522743648788946

IonicMinimize: Iter:   3  F: -812.352274364878895  |grad|_K:  6.455e-02  alpha:  4.599e-01  linmin: -9.928e-01  t[s]:   2305.72

#--- Lowdin population analysis ---
# oxidation-state O -0.044
# oxidation-state Hf +0.111 +0.002 -0.050 +0.083 +0.020 -0.004 -0.028 +0.090 +0.055 -0.018 -0.027 +0.037 +0.053 -0.017 -0.033 +0.041


-------- Electronic minimization -----------
Will mix electronic density at each iteration.
	FillingsUpdate:  mu: +0.541514708  nElectrons: 198.000000
	FillingsUpdate:  mu: +0.547169950  nElectrons: 198.000000
SCF: Cycle:  0   F: -805.387548881357020   dF: +5.981e+00   |Residual|: 9.464e-01   |deigs|: 9.743e-03  t[s]:   2381.79
	FillingsUpdate:  mu: +0.543123747  nElectrons: 198.000000
SCF: Cycle:  1   F: -811.196278175775319   dF: -5.809e+00   |Residual|: 4.010e-01   |deigs|: 1.995e-02  t[s]:   2435.98
	FillingsUpdate:  mu: +0.542077814  nElectrons: 198.000000
SCF: Cycle:  2   F: -811.841056868137912   dF: -6.448e-01   |Residual|: 1.646e-01   |deigs|: 1.071e-02  t[s]:   2490.64
	FillingsUpdate:  mu: +0.541787201  nElectrons: 198.000000
SCF: Cycle:  3   F: -812.393236091282915   dF: -5.522e-01   |Residual|: 6.248e-02   |deigs|: 3.369e-03  t[s]:   2544.74
	FillingsUpdate:  mu: +0.541706036  nElectrons: 198.000000
SCF: Cycle:  4   F: -812.443025325353915   dF: -4.979e-02   |Residual|: 2.489e-02   |deigs|: 1.676e-03  t[s]:   2598.65
	FillingsUpdate:  mu: +0.541790614  nElectrons: 198.000000
SCF: Cycle:  5   F: -812.443622553090790   dF: -5.972e-04   |Residual|: 1.006e-02   |deigs|: 2.618e-04  t[s]:   2648.90
	FillingsUpdate:  mu: +0.541822555  nElectrons: 198.000000
SCF: Cycle:  6   F: -812.443689151372041   dF: -6.660e-05   |Residual|: 3.904e-03   |deigs|: 1.953e-04  t[s]:   2682.93
	FillingsUpdate:  mu: +0.541823750  nElectrons: 198.000000
SCF: Cycle:  7   F: -812.443864519710360   dF: -1.754e-04   |Residual|: 1.508e-03   |deigs|: 8.963e-05  t[s]:   2716.77
	FillingsUpdate:  mu: +0.541818237  nElectrons: 198.000000
SCF: Cycle:  8   F: -812.443874492629561   dF: -9.973e-06   |Residual|: 6.449e-04   |deigs|: 2.770e-05  t[s]:   2750.49
	FillingsUpdate:  mu: +0.541817140  nElectrons: 198.000000
SCF: Cycle:  9   F: -812.443876523793051   dF: -2.031e-06   |Residual|: 2.510e-04   |deigs|: 1.203e-05  t[s]:   2784.03
	FillingsUpdate:  mu: +0.541817576  nElectrons: 198.000000
SCF: Cycle: 10   F: -812.443876680636663   dF: -1.568e-07   |Residual|: 1.154e-04   |deigs|: 3.781e-06  t[s]:   2817.25
	FillingsUpdate:  mu: +0.541817728  nElectrons: 198.000000
SCF: Cycle: 11   F: -812.443876713270356   dF: -3.263e-08   |Residual|: 4.920e-05   |deigs|: 1.799e-06  t[s]:   2850.38
SCF: Converged (|Delta E|<1.000000e-06 for 2 iters).

Setting wave functions to eigenvectors of Hamiltonian

# Ionic positions in lattice coordinates:
ion O   0.155163505912883   0.319178796225445   0.141449514648603 1
ion Hf  -0.008620184475789  -0.013920443119198  -0.000220903500181 1
ion Hf   0.329151218542695   0.158513354690734   0.250829942785788 1
ion Hf  -0.246646573646930   0.439778994159273  -0.000689357064060 1
ion Hf   0.091425828338533   0.614477322337687   0.250269173414802 1
ion Hf   0.492191333882849  -0.012892073759119   0.000203718772987 1
ion Hf   0.825197999544266   0.157600559940266   0.250723671530953 1
ion Hf   0.267675630951714   0.455530739617043  -0.016285849930361 1
ion Hf   0.592352964773313   0.614834446633501   0.250234558455704 1
ion Hf  -0.008363329567195  -0.013616661801236   0.499702188911374 1
ion Hf   0.328431318671004   0.159592294818905   0.749718052784736 1
ion Hf  -0.245346373030974   0.440264889424470   0.499935659138478 1
ion Hf   0.090430651634817   0.613874006667729   0.749367097581230 1
ion Hf   0.491576005886522  -0.013724212646057   0.500069214227149 1
ion Hf   0.828170875437750   0.159545114336175   0.750122911718343 1
ion Hf   0.254760958879069   0.440085277522158   0.500278827982647 1
ion Hf   0.592448168265472   0.613877594952225   0.749291578541808 1

# Forces in Lattice coordinates:
force O  -0.218564864502615  -0.482988584883470   2.313133307866588 1
force Hf  -0.137800782318357  -0.682909007929043  -0.012319736642985 1
force Hf   0.035876433394456  -0.465516526551461   0.197709925889572 1
force Hf  -0.014575624402398   0.361713706039687  -0.173674124008294 1
force Hf   0.108372024518743   0.774441947733260   0.029275400796063 1
force Hf  -0.112007636273196  -0.690272033529095   0.039853607505811 1
force Hf  -0.254078182774292  -0.396112762240030   0.175430969309829 1
force Hf   0.429906016927051   0.772127863807147  -2.226887864804988 1
force Hf   0.134813940659916   0.791310248477458   0.026852395413596 1
force Hf  -0.132687631008912  -0.739682510163144  -0.070838032255534 1
force Hf  -0.078149401627571  -0.341841117674881  -0.028331345311349 1
force Hf   0.085752364333859   0.340450977598446  -0.016094413156946 1
force Hf   0.023143206174401   0.811330797537438  -0.162678397396039 1
force Hf  -0.127759001605116  -0.753669175230085   0.019923163240832 1
force Hf  -0.078350177554699  -0.346616812021420   0.037490868922477 1
force Hf   0.094617378880856   0.326861832449756   0.055816006485754 1
force Hf   0.218844300396173   0.718223808541959  -0.199228094888215 1

# Energy components:
   Eewald =     -628.5853105232025655
       EH =      125.5793887741316723
     Eloc =     -237.7268603543162726
      Enl =     -227.8631201583038717
      Exc =     -610.0862145429073280
 Exc_core =      475.1575660854578018
       KE =      291.1130239749814450
-------------------------------------
     Etot =     -812.4115267441593460
       TS =        0.0323499691110514
-------------------------------------
        F =     -812.4438767132703560

IonicMinimize: Iter:   4  F: -812.443876713270356  |grad|_K:  4.493e-02  alpha:  4.090e-01  linmin: -9.876e-01  t[s]:   2857.56

#--- Lowdin population analysis ---
# oxidation-state O -0.087
# oxidation-state Hf +0.112 +0.014 -0.040 +0.084 +0.008 +0.006 -0.002 +0.086 +0.048 -0.009 -0.020 +0.030 +0.045 -0.009 -0.029 +0.031


-------- Electronic minimization -----------
Will mix electronic density at each iteration.
	FillingsUpdate:  mu: +0.541817728  nElectrons: 198.000000
	FillingsUpdate:  mu: +0.546777318  nElectrons: 198.000000
SCF: Cycle:  0   F: -801.032852912504836   dF: +9.664e+00   |Residual|: 1.234e+00   |deigs|: 1.664e-02  t[s]:   2932.86
	FillingsUpdate:  mu: +0.543486246  nElectrons: 198.000000
SCF: Cycle:  1   F: -811.095036096761078   dF: -1.006e+01   |Residual|: 5.073e-01   |deigs|: 2.293e-02  t[s]:   2988.38
	FillingsUpdate:  mu: +0.542552026  nElectrons: 198.000000
SCF: Cycle:  2   F: -811.724426195058868   dF: -6.294e-01   |Residual|: 2.003e-01   |deigs|: 1.425e-02  t[s]:   3042.97
	FillingsUpdate:  mu: +0.542287142  nElectrons: 198.000000
SCF: Cycle:  3   F: -812.416764008503378   dF: -6.923e-01   |Residual|: 8.215e-02   |deigs|: 4.607e-03  t[s]:   3097.56
	FillingsUpdate:  mu: +0.542068250  nElectrons: 198.000000
SCF: Cycle:  4   F: -812.523157852044847   dF: -1.064e-01   |Residual|: 3.273e-02   |deigs|: 2.055e-03  t[s]:   3151.51
	FillingsUpdate:  mu: +0.542121403  nElectrons: 198.000000
SCF: Cycle:  5   F: -812.524720227252374   dF: -1.562e-03   |Residual|: 1.347e-02   |deigs|: 2.854e-04  t[s]:   3201.70
	FillingsUpdate:  mu: +0.542144343  nElectrons: 198.000000
SCF: Cycle:  6   F: -812.524815396592544   dF: -9.517e-05   |Residual|: 4.079e-03   |deigs|: 2.008e-04  t[s]:   3236.63
	FillingsUpdate:  mu: +0.542145451  nElectrons: 198.000000
SCF: Cycle:  7   F: -812.524877288965058   dF: -6.189e-05   |Residual|: 1.694e-03   |deigs|: 7.139e-05  t[s]:   3271.05
	FillingsUpdate:  mu: +0.542142304  nElectrons: 198.000000
SCF: Cycle:  8   F: -812.524882361732580   dF: -5.073e-06   |Residual|: 6.766e-04   |deigs|: 2.435e-05  t[s]:   3304.37
	FillingsUpdate:  mu: +0.542142118  nElectrons: 198.000000
SCF: Cycle:  9   F: -812.524884357688165   dF: -1.996e-06   |Residual|: 2.516e-04   |deigs|: 1.092e-05  t[s]:   3338.35
	FillingsUpdate:  mu: +0.542142753  nElectrons: 198.000000
SCF: Cycle: 10   F: -812.524884596702805   dF: -2.390e-07   |Residual|: 1.228e-04   |deigs|: 5.248e-06  t[s]:   3372.81
	FillingsUpdate:  mu: +0.542142793  nElectrons: 198.000000
SCF: Cycle: 11   F: -812.524884656247764   dF: -5.954e-08   |Residual|: 5.432e-05   |deigs|: 2.365e-06  t[s]:   3406.96
SCF: Converged (|Delta E|<1.000000e-06 for 2 iters).

Setting wave functions to eigenvectors of Hamiltonian

# Ionic positions in lattice coordinates:
ion O   0.152759414643713   0.315872211118583   0.145086917867199 1
ion Hf  -0.013632129956206  -0.021638659656571  -0.000181014874171 1
ion Hf   0.327196957200258   0.153945986349354   0.251538391141540 1
ion Hf  -0.245000758952582   0.443395717970767  -0.001346407242997 1
ion Hf   0.096909568142898   0.623445417350268   0.250303457804952 1
ion Hf   0.487199217512614  -0.021012530654992   0.000327755089241 1
ion Hf   0.820299753224431   0.152049536559629   0.251357870535846 1
ion Hf   0.273697171275923   0.462354520309888  -0.019503491500090 1
ion Hf   0.598053481107204   0.624186617244590   0.250268684032852 1
ion Hf  -0.013938279423842  -0.022502147373976   0.499440149935441 1
ion Hf   0.325850809022757   0.155796998177286   0.749683723214878 1
ion Hf  -0.242624377678707   0.444207618325052   0.499873549362958 1
ion Hf   0.095117824702035   0.622991465203973   0.748746479800393 1
ion Hf   0.485991099323396  -0.022771145803114   0.500146076716005 1
ion Hf   0.825646595204861   0.155664664772051   0.750276046872278 1
ion Hf   0.257482462359904   0.443937730638950   0.500479007848671 1
ion Hf   0.598991192291342   0.623075999468263   0.748502803395004 1

# Forces in Lattice coordinates:
force O  -0.131553499341539  -0.262895178565851   1.247467505867216 1
force Hf  -0.117212302433635  -0.473706013128084   0.001616910025438 1
force Hf   0.020889556939654  -0.265526021232868   0.184260607187458 1
force Hf  -0.012192979966055   0.215888846597390  -0.178575270231021 1
force Hf   0.097363907966566   0.547744608368274  -0.006149164257964 1
force Hf  -0.099096799079477  -0.493818501427958   0.034847677600679 1
force Hf  -0.198276704936244  -0.236389596728250   0.156908766107278 1
force Hf   0.302397156391230   0.360016777789829  -1.143614951337454 1
force Hf   0.102721801749665   0.580849505863350  -0.006489885380385 1
force Hf  -0.111660529287718  -0.555212505547186  -0.059680285440224 1
force Hf  -0.068594230506307  -0.180531817294418   0.009576995019355 1
force Hf   0.078835231739655   0.184914388768675  -0.011367899775884 1
force Hf   0.004560799345334   0.627251383290694  -0.161448805154499 1
force Hf  -0.105126235141518  -0.571920932360791   0.029427308400075 1
force Hf  -0.056071296249541  -0.191357499539834   0.052083587816472 1
force Hf   0.079008173442401   0.180089132780999   0.082227434774476 1
force Hf   0.195801338891126   0.540251846836557  -0.216711813611855 1

# Energy components:
   Eewald =     -632.5538999180516839
       EH =      121.9088151077770448
     Eloc =     -229.9602003677383664
      Enl =     -227.8374227815103268
      Exc =     -609.9721134833059750
 Exc_core =      475.1570141546557124
       KE =      290.7660500962101651
-------------------------------------
     Etot =     -812.4917571919631882
       TS =        0.0331274642846321
-------------------------------------
        F =     -812.5248846562477638

IonicMinimize: Iter:   5  F: -812.524884656247764  |grad|_K:  2.939e-02  alpha:  4.279e-01  linmin: -9.862e-01  t[s]:   3414.07

#--- Lowdin population analysis ---
# oxidation-state O -0.123
# oxidation-state Hf +0.109 +0.028 -0.025 +0.082 -0.005 +0.017 +0.018 +0.080 +0.039 +0.001 -0.009 +0.021 +0.036 +0.002 -0.021 +0.020


-------- Electronic minimization -----------
Will mix electronic density at each iteration.
	FillingsUpdate:  mu: +0.542142793  nElectrons: 198.000000
	FillingsUpdate:  mu: +0.545496241  nElectrons: 198.000000
SCF: Cycle:  0   F: -804.116778668222992   dF: +7.132e+00   |Residual|: 1.042e+00   |deigs|: 1.159e-02  t[s]:   3489.36
	FillingsUpdate:  mu: +0.543663582  nElectrons: 198.000000
SCF: Cycle:  1   F: -811.100444140162949   dF: -6.984e+00   |Residual|: 4.302e-01   |deigs|: 1.828e-02  t[s]:   3543.04
	FillingsUpdate:  mu: +0.542745328  nElectrons: 198.000000
SCF: Cycle:  2   F: -811.769729852161163   dF: -6.693e-01   |Residual|: 1.890e-01   |deigs|: 1.200e-02  t[s]:   3597.93
	FillingsUpdate:  mu: +0.542622903  nElectrons: 198.000000
SCF: Cycle:  3   F: -812.501286217383267   dF: -7.316e-01   |Residual|: 7.083e-02   |deigs|: 3.948e-03  t[s]:   3652.38
	FillingsUpdate:  mu: +0.542377301  nElectrons: 198.000000
SCF: Cycle:  4   F: -812.570731501024170   dF: -6.945e-02   |Residual|: 2.841e-02   |deigs|: 1.741e-03  t[s]:   3702.93
	FillingsUpdate:  mu: +0.542398286  nElectrons: 198.000000
SCF: Cycle:  5   F: -812.571499023670526   dF: -7.675e-04   |Residual|: 1.224e-02   |deigs|: 2.595e-04  t[s]:   3753.10
	FillingsUpdate:  mu: +0.542403414  nElectrons: 198.000000
SCF: Cycle:  6   F: -812.571662385506897   dF: -1.634e-04   |Residual|: 4.499e-03   |deigs|: 1.909e-04  t[s]:   3787.19
	FillingsUpdate:  mu: +0.542401520  nElectrons: 198.000000
SCF: Cycle:  7   F: -812.571886736957595   dF: -2.244e-04   |Residual|: 1.941e-03   |deigs|: 9.743e-05  t[s]:   3820.79
	FillingsUpdate:  mu: +0.542404071  nElectrons: 198.000000
SCF: Cycle:  8   F: -812.571913601257961   dF: -2.686e-05   |Residual|: 8.099e-04   |deigs|: 3.764e-05  t[s]:   3855.57
	FillingsUpdate:  mu: +0.542403180  nElectrons: 198.000000
SCF: Cycle:  9   F: -812.571917662339501   dF: -4.061e-06   |Residual|: 3.082e-04   |deigs|: 1.376e-05  t[s]:   3889.64
	FillingsUpdate:  mu: +0.542403780  nElectrons: 198.000000
SCF: Cycle: 10   F: -812.571917856432947   dF: -1.941e-07   |Residual|: 1.241e-04   |deigs|: 4.271e-06  t[s]:   3923.50
	FillingsUpdate:  mu: +0.542403993  nElectrons: 198.000000
SCF: Cycle: 11   F: -812.571917873593634   dF: -1.716e-08   |Residual|: 5.222e-05   |deigs|: 1.301e-06  t[s]:   3957.50
SCF: Converged (|Delta E|<1.000000e-06 for 2 iters).

Setting wave functions to eigenvectors of Hamiltonian

# Ionic positions in lattice coordinates:
ion O   0.150679393702709   0.313373308549292   0.147681531951585 1
ion Hf  -0.018318747665919  -0.028386695852209  -0.000116536818176 1
ion Hf   0.326134078268534   0.151425938726788   0.252427717173600 1
ion Hf  -0.244064480343844   0.445564840467452  -0.002266016131648 1
ion Hf   0.102004931423752   0.631290951856332   0.250164580478096 1
ion Hf   0.482452367923994  -0.028251817783153   0.000478893379480 1
ion Hf   0.816233442112459   0.148120332488844   0.252102442563906 1
ion Hf   0.278183844787263   0.465833871573208  -0.021510540352046 1
ion Hf   0.603337396365185   0.632682746801657   0.250137362990552 1
ion Hf  -0.019413154349323  -0.030951977564435   0.499157661848411 1
ion Hf   0.324034721434652   0.153742246362616   0.749836523955318 1
ion Hf  -0.240526638472027   0.446509012029325   0.499820142785123 1
ion Hf   0.099428451831765   0.631761923854693   0.747923343141051 1
ion Hf   0.480492987579446  -0.031471112721203   0.500310003098254 1
ion Hf   0.824059649236074   0.153530380484833   0.750568798398489 1
ion Hf   0.259498312461093   0.446199086025641   0.500935454235577 1
ion Hf   0.605783443704188   0.632026964700319   0.747348637302427 1

# Forces in Lattice coordinates:
force O  -0.102557429295667  -0.152026790369033   0.751428006411596 1
force Hf  -0.103525583336845  -0.332217599709821   0.019115398220157 1
force Hf   0.001955084883965  -0.109726046669303   0.181841960590176 1
force Hf   0.000172110207447   0.100824262527458  -0.169875731466155 1
force Hf   0.086895697538078   0.375898760309822  -0.026798744684399 1
force Hf  -0.089764590584288  -0.345112735083170   0.046646126097339 1
force Hf  -0.157745277425807  -0.104381611484846   0.142121255286061 1
force Hf   0.239282728029264   0.128566537018689  -0.636712480238908 1
force Hf   0.090805802318108   0.409129599466160  -0.023669218063798 1
force Hf  -0.091384458403095  -0.411173672930560  -0.053656892119375 1
force Hf  -0.063442084885957  -0.055745613122590   0.027624369256184 1
force Hf   0.079415980657888   0.055591094734893  -0.018755447409579 1
force Hf   0.004947032929345   0.469051296045417  -0.160732179351534 1
force Hf  -0.087613175836072  -0.426979914882106   0.026003240211073 1
force Hf  -0.048139000174001  -0.062784847224761   0.055856419148491 1
force Hf   0.070600049474894   0.061498141918716   0.092686868613175 1
force Hf   0.168478534085133   0.397991043596959  -0.224701990682726 1

# Energy components:
   Eewald =     -634.9892836078035998
       EH =      119.6448782298262330
     Eloc =     -225.1788578799473157
      Enl =     -227.8231874207572787
      Exc =     -609.9047189595420377
 Exc_core =      475.1566292299678480
       KE =      290.5563584201527192
-------------------------------------
     Etot =     -812.5381819881033607
       TS =        0.0337358854902848
-------------------------------------
        F =     -812.5719178735936339

IonicMinimize: Iter:   6  F: -812.571917873593634  |grad|_K:  2.009e-02  alpha:  3.709e-01  linmin: -9.864e-01  t[s]:   3964.43

#--- Lowdin population analysis ---
# oxidation-state O -0.146
# oxidation-state Hf +0.106 +0.038 -0.012 +0.081 -0.015 +0.025 +0.029 +0.072 +0.030 +0.009 +0.001 +0.013 +0.028 +0.010 -0.013 +0.011


-------- Electronic minimization -----------
Will mix electronic density at each iteration.
	FillingsUpdate:  mu: +0.542403993  nElectrons: 198.000000
	FillingsUpdate:  mu: +0.544739979  nElectrons: 198.000000
SCF: Cycle:  0   F: -806.269744478228063   dF: +5.316e+00   |Residual|: 8.872e-01   |deigs|: 7.994e-03  t[s]:   4041.58
	FillingsUpdate:  mu: +0.544067999  nElectrons: 198.000000
SCF: Cycle:  1   F: -810.633029436103243   dF: -4.363e+00   |Residual|: 4.002e-01   |deigs|: 1.417e-02  t[s]:   4096.27
	FillingsUpdate:  mu: +0.542924304  nElectrons: 198.000000
SCF: Cycle:  2   F: -811.881235829361003   dF: -1.248e+00   |Residual|: 1.814e-01   |deigs|: 1.113e-02  t[s]:   4151.45
	FillingsUpdate:  mu: +0.542873384  nElectrons: 198.000000
SCF: Cycle:  3   F: -812.557030588291468   dF: -6.758e-01   |Residual|: 6.256e-02   |deigs|: 3.095e-03  t[s]:   4206.52
	FillingsUpdate:  mu: +0.542672362  nElectrons: 198.000000
SCF: Cycle:  4   F: -812.600277094877129   dF: -4.325e-02   |Residual|: 2.464e-02   |deigs|: 1.407e-03  t[s]:   4258.83
	FillingsUpdate:  mu: +0.542654911  nElectrons: 198.000000
SCF: Cycle:  5   F: -812.600274490218112   dF: +2.605e-06   |Residual|: 1.215e-02   |deigs|: 3.326e-04  t[s]:   4305.23
	FillingsUpdate:  mu: +0.542658765  nElectrons: 198.000000
SCF: Cycle:  6   F: -812.601405343827309   dF: -1.131e-03   |Residual|: 4.784e-03   |deigs|: 2.125e-04  t[s]:   4339.29
	FillingsUpdate:  mu: +0.542651382  nElectrons: 198.000000
SCF: Cycle:  7   F: -812.601648917895773   dF: -2.436e-04   |Residual|: 1.904e-03   |deigs|: 1.045e-04  t[s]:   4372.74
	FillingsUpdate:  mu: +0.542655775  nElectrons: 198.000000
SCF: Cycle:  8   F: -812.601662847893294   dF: -1.393e-05   |Residual|: 6.918e-04   |deigs|: 3.249e-05  t[s]:   4406.23
	FillingsUpdate:  mu: +0.542655632  nElectrons: 198.000000
SCF: Cycle:  9   F: -812.601664564327393   dF: -1.716e-06   |Residual|: 2.753e-04   |deigs|: 1.100e-05  t[s]:   4440.23
	FillingsUpdate:  mu: +0.542656224  nElectrons: 198.000000
SCF: Cycle: 10   F: -812.601664668164858   dF: -1.038e-07   |Residual|: 1.055e-04   |deigs|: 3.495e-06  t[s]:   4474.35
	FillingsUpdate:  mu: +0.542656477  nElectrons: 198.000000
SCF: Cycle: 11   F: -812.601664679626424   dF: -1.146e-08   |Residual|: 3.710e-05   |deigs|: 9.923e-07  t[s]:   4508.16
SCF: Converged (|Delta E|<1.000000e-06 for 2 iters).

Setting wave functions to eigenvectors of Hamiltonian

# Ionic positions in lattice coordinates:
ion O   0.148311709264491   0.311159343580181   0.149897542475139 1
ion Hf  -0.023022500220467  -0.034574861169477   0.000076265499561 1
ion Hf   0.325942678680244   0.151343276206066   0.253640520998887 1
ion Hf  -0.243732937620721   0.446065802059824  -0.003435177963411 1
ion Hf   0.106738018228331   0.638003221957216   0.249850049382057 1
ion Hf   0.477814938442579  -0.034672243930664   0.000807732841533 1
ion Hf   0.813130126428069   0.146345031975547   0.253002350954835 1
ion Hf   0.281771977111345   0.466583366811273  -0.022900896735679 1
ion Hf   0.608436984049292   0.640232684478040   0.249859318226468 1
ion Hf  -0.024769483051749  -0.038952117931951   0.498805838697649 1
ion Hf   0.323057458971662   0.153836361114270   0.750127027417943 1
ion Hf  -0.239132604382397   0.446626380262931   0.499663208349905 1
ion Hf   0.103577370173581   0.640071731044813   0.746803183090546 1
ion Hf   0.475023266200492  -0.039810755047650   0.500479224747112 1
ion Hf   0.823460431309875   0.153688979058112   0.750971353156103 1
ion Hf   0.260696792699834   0.446430985122309   0.501619753081072 1
ion Hf   0.612695773715538   0.640622814409160   0.745732705780279 1

# Forces in Lattice coordinates:
force O  -0.088245190621977  -0.084605809610329   0.452570036894832 1
force Hf  -0.090153400661150  -0.235987439272115   0.030568515885718 1
force Hf  -0.016065454944954  -0.005495128759475   0.172277722780733 1
force Hf   0.015695871107799   0.019705700225514  -0.177827942153080 1
force Hf   0.072375199731229   0.262589654607268  -0.040698311479995 1
force Hf  -0.078943850095926  -0.241218639283813   0.054001616046876 1
force Hf  -0.132471441473803  -0.017004547302547   0.131476472001675 1
force Hf   0.195341606970488  -0.001204169954744  -0.368598321808848 1
force Hf   0.084419991859776   0.286361400675574  -0.038825794658090 1
force Hf  -0.074880562837761  -0.298264010120752  -0.040788806432055 1
force Hf  -0.057751242932793   0.027099857355883   0.039823526876185 1
force Hf   0.084148547727151  -0.037730042214199  -0.018186706662779 1
force Hf   0.013402582136024   0.348743568551993  -0.143330827299458 1
force Hf  -0.076847447546382  -0.309772856231061   0.022261418292521 1
force Hf  -0.047586192078910   0.026974474956298   0.061531113356562 1
force Hf   0.067759533941516  -0.021551057659467   0.097906015966270 1
force Hf   0.135950513696483   0.290608118382227  -0.199567018749013 1

# Energy components:
   Eewald =     -636.4266669331277626
       EH =      118.3007342598083653
     Eloc =     -222.3417891014479153
      Enl =     -227.8167444762116247
      Exc =     -609.8646403233889259
 Exc_core =      475.1563288300382624
       KE =      290.4251316144236625
-------------------------------------
     Etot =     -812.5676461299060520
       TS =        0.0340185497203939
-------------------------------------
        F =     -812.6016646796264240

IonicMinimize: Iter:   7  F: -812.601664679626424  |grad|_K:  1.427e-02  alpha:  3.282e-01  linmin: -9.907e-01  t[s]:   4515.19

#--- Lowdin population analysis ---
# oxidation-state O -0.161
# oxidation-state Hf +0.103 +0.046 -0.002 +0.081 -0.021 +0.029 +0.037 +0.064 +0.023 +0.015 +0.008 +0.008 +0.022 +0.016 -0.007 +0.004


-------- Electronic minimization -----------
Will mix electronic density at each iteration.
	FillingsUpdate:  mu: +0.542656477  nElectrons: 198.000000
	FillingsUpdate:  mu: +0.543901059  nElectrons: 198.000000
SCF: Cycle:  0   F: -807.286723034985016   dF: +4.339e+00   |Residual|: 8.393e-01   |deigs|: 6.790e-03  t[s]:   4591.29
	FillingsUpdate:  mu: +0.544308538  nElectrons: 198.000000
SCF: Cycle:  1   F: -810.263353998867956   dF: -2.977e+00   |Residual|: 4.046e-01   |deigs|: 1.276e-02  t[s]:   4645.96
	FillingsUpdate:  mu: +0.543034279  nElectrons: 198.000000
SCF: Cycle:  2   F: -812.034498905280429   dF: -1.771e+00   |Residual|: 1.782e-01   |deigs|: 1.181e-02  t[s]:   4699.87
	FillingsUpdate:  mu: +0.543105527  nElectrons: 198.000000
SCF: Cycle:  3   F: -812.586604329880515   dF: -5.521e-01   |Residual|: 5.931e-02   |deigs|: 2.513e-03  t[s]:   4753.43
	FillingsUpdate:  mu: +0.542944411  nElectrons: 198.000000
SCF: Cycle:  4   F: -812.621950925224837   dF: -3.535e-02   |Residual|: 2.283e-02   |deigs|: 1.265e-03  t[s]:   4804.83
	FillingsUpdate:  mu: +0.542910381  nElectrons: 198.000000
SCF: Cycle:  5   F: -812.621788748886047   dF: +1.622e-04   |Residual|: 1.205e-02   |deigs|: 3.516e-04  t[s]:   4838.80
	FillingsUpdate:  mu: +0.542903890  nElectrons: 198.000000
SCF: Cycle:  6   F: -812.623342196711747   dF: -1.553e-03   |Residual|: 4.384e-03   |deigs|: 2.078e-04  t[s]:   4872.71
	FillingsUpdate:  mu: +0.542899304  nElectrons: 198.000000
SCF: Cycle:  7   F: -812.623493324438641   dF: -1.511e-04   |Residual|: 1.742e-03   |deigs|: 9.186e-05  t[s]:   4906.62
	FillingsUpdate:  mu: +0.542903829  nElectrons: 198.000000
SCF: Cycle:  8   F: -812.623504150896338   dF: -1.083e-05   |Residual|: 6.037e-04   |deigs|: 2.813e-05  t[s]:   4940.07
	FillingsUpdate:  mu: +0.542904111  nElectrons: 198.000000
SCF: Cycle:  9   F: -812.623505388918602   dF: -1.238e-06   |Residual|: 2.588e-04   |deigs|: 8.984e-06  t[s]:   4973.28
	FillingsUpdate:  mu: +0.542904790  nElectrons: 198.000000
SCF: Cycle: 10   F: -812.623505456691760   dF: -6.777e-08   |Residual|: 9.342e-05   |deigs|: 3.324e-06  t[s]:   5007.39
	FillingsUpdate:  mu: +0.542904997  nElectrons: 198.000000
SCF: Cycle: 11   F: -812.623505474634271   dF: -1.794e-08   |Residual|: 2.236e-05   |deigs|: 9.391e-07  t[s]:   5041.23
SCF: Converged (|Delta E|<1.000000e-06 for 2 iters).

Setting wave functions to eigenvectors of Hamiltonian

# Ionic positions in lattice coordinates:
ion O   0.145455510363933   0.308996001067631   0.151864178293378 1
ion Hf  -0.028036030895046  -0.040779071862949   0.000411820461939 1
ion Hf   0.326276597962711   0.153272162594402   0.255178000870254 1
ion Hf  -0.243707729904833   0.445082951252603  -0.005120504846466 1
ion Hf   0.111383787452342   0.644314812064256   0.249343134718422 1
ion Hf   0.473037383599456  -0.040824949272869   0.001324588046249 1
ion Hf   0.810435958029626   0.146174305751897   0.254132178413706 1
ion Hf   0.284988360406862   0.465456169403282  -0.024187380726178 1
ion Hf   0.613807573656740   0.647434598450256   0.249375286513882 1
ion Hf  -0.030158034363184  -0.046723187915075   0.498462293635935 1
ion Hf   0.322787744854653   0.155842804611332   0.750577421110432 1
ion Hf  -0.238186014026935   0.444595411382056   0.499465639061205 1
ion Hf   0.108060408551162   0.648420474522680   0.745502250537474 1
ion Hf   0.469347536198097  -0.047967111246048   0.500655727241686 1
ion Hf   0.823550106037024   0.155926236907313   0.751556275854448 1
ion Hf   0.261325224889733   0.444758954787353   0.502559802122149 1
ion Hf   0.619631617187659   0.649019437501882   0.743899288691486 1

# Forces in Lattice coordinates:
force O  -0.078612508996637  -0.037073074831777   0.237400990513100 1
force Hf  -0.085733908452189  -0.153599457357840   0.039308130286357 1
force Hf  -0.034842987798768   0.059182417923270   0.154721243555630 1
force Hf   0.031872423307604  -0.032741650649329  -0.189293713808064 1
force Hf   0.058588376825991   0.173774377783848  -0.049862913609065 1
force Hf  -0.077758135880192  -0.152752145440523   0.058612370119374 1
force Hf  -0.112096563032066   0.035374427859876   0.114832497588967 1
force Hf   0.150026049420935  -0.067956903550985  -0.194193741762070 1
force Hf   0.088918653184065   0.177646888327745  -0.051983057899025 1
force Hf  -0.064499012307507  -0.213702087390483  -0.031695388454290 1
force Hf  -0.049829551529935   0.073197315922381   0.044417949559710 1
force Hf   0.088110285564451  -0.091265256144252  -0.018507819327223 1
force Hf   0.025376290011644   0.237532074688501  -0.117707179474022 1
force Hf  -0.072062294064661  -0.224596052988639   0.015381903834051 1
force Hf  -0.048770839021314   0.080329150455744   0.066856413606857 1
force Hf   0.066131784132525  -0.069163731352555   0.103019775266096 1
force Hf   0.107844710250496   0.201101531597186  -0.155753359391250 1

# Energy components:
   Eewald =     -637.3486216353255713
       EH =      117.4318075641879062
     Eloc =     -220.5080017616863017
      Enl =     -227.8149898436584238
      Exc =     -609.8381193898308084
 Exc_core =      475.1561242275078030
       KE =      290.3321749451304186
-------------------------------------
     Etot =     -812.5896258936747927
       TS =        0.0338795809594917
-------------------------------------
        F =     -812.6235054746342712

IonicMinimize: Iter:   8  F: -812.623505474634271  |grad|_K:  1.030e-02  alpha:  2.938e-01  linmin: -9.945e-01  t[s]:   5048.52

#--- Lowdin population analysis ---
# oxidation-state O -0.173
# oxidation-state Hf +0.101 +0.053 +0.005 +0.082 -0.024 +0.032 +0.044 +0.057 +0.018 +0.017 +0.014 +0.004 +0.017 +0.021 -0.002 -0.000


-------- Electronic minimization -----------
Will mix electronic density at each iteration.
	FillingsUpdate:  mu: +0.542904997  nElectrons: 198.000000
	FillingsUpdate:  mu: +0.542993667  nElectrons: 198.000000
SCF: Cycle:  0   F: -807.929067631457315   dF: +3.566e+00   |Residual|: 8.593e-01   |deigs|: 6.976e-03  t[s]:   5125.56
	FillingsUpdate:  mu: +0.544274262  nElectrons: 198.000000
SCF: Cycle:  1   F: -810.139323343286151   dF: -2.210e+00   |Residual|: 4.143e-01   |deigs|: 1.283e-02  t[s]:   5180.29
	FillingsUpdate:  mu: +0.543118741  nElectrons: 198.000000
SCF: Cycle:  2   F: -812.075415294368213   dF: -1.936e+00   |Residual|: 1.851e-01   |deigs|: 1.225e-02  t[s]:   5235.16
	FillingsUpdate:  mu: +0.543290098  nElectrons: 198.000000
SCF: Cycle:  3   F: -812.612278778739096   dF: -5.369e-01   |Residual|: 5.537e-02   |deigs|: 2.358e-03  t[s]:   5289.26
	FillingsUpdate:  mu: +0.543171538  nElectrons: 198.000000
SCF: Cycle:  4   F: -812.639931654555653   dF: -2.765e-02   |Residual|: 2.202e-02   |deigs|: 1.138e-03  t[s]:   5339.80
	FillingsUpdate:  mu: +0.543130146  nElectrons: 198.000000
SCF: Cycle:  5   F: -812.639418299986687   dF: +5.134e-04   |Residual|: 1.042e-02   |deigs|: 2.939e-04  t[s]:   5374.87
	FillingsUpdate:  mu: +0.543112009  nElectrons: 198.000000
SCF: Cycle:  6   F: -812.640615441820046   dF: -1.197e-03   |Residual|: 3.655e-03   |deigs|: 1.807e-04  t[s]:   5409.57
	FillingsUpdate:  mu: +0.543114298  nElectrons: 198.000000
SCF: Cycle:  7   F: -812.640761646492138   dF: -1.462e-04   |Residual|: 1.483e-03   |deigs|: 7.704e-05  t[s]:   5443.84
	FillingsUpdate:  mu: +0.543118712  nElectrons: 198.000000
SCF: Cycle:  8   F: -812.640770414511962   dF: -8.768e-06   |Residual|: 5.523e-04   |deigs|: 2.448e-05  t[s]:   5478.07
	FillingsUpdate:  mu: +0.543119303  nElectrons: 198.000000
SCF: Cycle:  9   F: -812.640771564313809   dF: -1.150e-06   |Residual|: 2.368e-04   |deigs|: 8.260e-06  t[s]:   5512.53
	FillingsUpdate:  mu: +0.543119947  nElectrons: 198.000000
SCF: Cycle: 10   F: -812.640771608139062   dF: -4.383e-08   |Residual|: 8.319e-05   |deigs|: 3.157e-06  t[s]:   5546.52
	FillingsUpdate:  mu: +0.543120077  nElectrons: 198.000000
SCF: Cycle: 11   F: -812.640771639267655   dF: -3.113e-08   |Residual|: 1.909e-05   |deigs|: 1.130e-06  t[s]:   5579.88
SCF: Converged (|Delta E|<1.000000e-06 for 2 iters).

Setting wave functions to eigenvectors of Hamiltonian

# Ionic positions in lattice coordinates:
ion O   0.141999250334900   0.306895281207873   0.153534063503723 1
ion Hf  -0.033671919708419  -0.046886697135384   0.000954999308187 1
ion Hf   0.326700847257021   0.156899064939606   0.257045209625947 1
ion Hf  -0.243479453255273   0.442991012834080  -0.007597406790291 1
ion Hf   0.116097616890691   0.650410555359937   0.248608187397593 1
ion Hf   0.467765342669454  -0.046608580395741   0.002090132249448 1
ion Hf   0.807846792734939   0.147272727474557   0.255480598029209 1
ion Hf   0.288023604189926   0.463196889658679  -0.025538126568940 1
ion Hf   0.620007710714826   0.654187345179313   0.248600584381688 1
ion Hf  -0.035995567862584  -0.054758364057720   0.498103577511791 1
ion Hf   0.323181165595411   0.159540686751701   0.751187247600801 1
ion Hf  -0.237124712546581   0.440956009072525   0.499207337282162 1
ion Hf   0.113066196397905   0.656524489192325   0.744110089053759 1
ion Hf   0.462864530935965  -0.056650892863359   0.500802238539490 1
ion Hf   0.824087745822471   0.160026742808788   0.752424910480585 1
ion Hf   0.261859630017159   0.441686156910806   0.503896823774291 1
ion Hf   0.626771219812188   0.657317573062014   0.742089534620558 1

# Forces in Lattice coordinates:
force O  -0.071210577930037  -0.002140268835448   0.071564099983616 1
force Hf  -0.079024145611506  -0.084843274568621   0.044144934627231 1
force Hf  -0.052003051014260   0.082008419899590   0.122232408535665 1
force Hf   0.046471342608313  -0.056555958877126  -0.192279667448532 1
force Hf   0.052697089507402   0.103768522945537  -0.055721549139614 1
force Hf  -0.075306182388230  -0.086181283495344   0.063697436380018 1
force Hf  -0.089360070969907   0.053922235164541   0.094838948215037 1
force Hf   0.102142711225216  -0.084370170175899  -0.075477316190837 1
force Hf   0.094621556996666   0.096381768281946  -0.056149716487757 1
force Hf  -0.051174635855032  -0.123219917944097  -0.033295958574084 1
force Hf  -0.040566960654597   0.079597313189985   0.038446570951380 1
force Hf   0.088436665944487  -0.112714699021234  -0.019867363166018 1
force Hf   0.041493279820922   0.141405782413117  -0.080456171527003 1
force Hf  -0.064547866921752  -0.129282614271753  -0.004037844078345 1
force Hf  -0.049405286174621   0.092991322879345   0.070814031226198 1
force Hf   0.064663196352156  -0.090151823542164   0.110840860323728 1
force Hf   0.073812693479845   0.130109022957438  -0.105432919249294 1

# Energy components:
   Eewald =     -637.9713129530513243
       EH =      116.8396746181623911
     Eloc =     -219.2586233264132716
      Enl =     -227.8163879247974251
      Exc =     -609.8196523447970776
 Exc_core =      475.1559848887595194
       KE =      290.2628318332498338
-------------------------------------
     Etot =     -812.6074852088873968
       TS =        0.0332864303803038
-------------------------------------
        F =     -812.6407716392676548

IonicMinimize: Iter:   9  F: -812.640771639267655  |grad|_K:  7.246e-03  alpha:  2.874e-01  linmin: -9.927e-01  t[s]:   5586.94

#--- Lowdin population analysis ---
# oxidation-state O -0.183
# oxidation-state Hf +0.101 +0.059 +0.010 +0.083 -0.025 +0.035 +0.048 +0.050 +0.015 +0.018 +0.019 +0.001 +0.014 +0.024 +0.002 -0.004


-------- Electronic minimization -----------
Will mix electronic density at each iteration.
	FillingsUpdate:  mu: +0.543120077  nElectrons: 198.000000
	FillingsUpdate:  mu: +0.542013215  nElectrons: 198.000000
SCF: Cycle:  0   F: -808.343745896544419   dF: +2.801e+00   |Residual|: 9.512e-01   |deigs|: 8.644e-03  t[s]:   5663.61
	FillingsUpdate:  mu: +0.543740759  nElectrons: 198.000000
SCF: Cycle:  1   F: -810.229745485442663   dF: -1.886e+00   |Residual|: 4.338e-01   |deigs|: 1.285e-02  t[s]:   5718.63
	FillingsUpdate:  mu: +0.543139473  nElectrons: 198.000000
SCF: Cycle:  2   F: -811.897841575434995   dF: -1.668e+00   |Residual|: 2.082e-01   |deigs|: 1.136e-02  t[s]:   5773.83
	FillingsUpdate:  mu: +0.543381641  nElectrons: 198.000000
SCF: Cycle:  3   F: -812.634580782757325   dF: -7.367e-01   |Residual|: 5.279e-02   |deigs|: 2.792e-03  t[s]:   5828.91
	FillingsUpdate:  mu: +0.543304709  nElectrons: 198.000000
SCF: Cycle:  4   F: -812.653951931025176   dF: -1.937e-02   |Residual|: 2.389e-02   |deigs|: 1.021e-03  t[s]:   5879.98
	FillingsUpdate:  mu: +0.543230564  nElectrons: 198.000000
SCF: Cycle:  5   F: -812.654061172894558   dF: -1.092e-04   |Residual|: 6.855e-03   |deigs|: 2.416e-04  t[s]:   5914.49
	FillingsUpdate:  mu: +0.543221650  nElectrons: 198.000000
SCF: Cycle:  6   F: -812.654261884260904   dF: -2.007e-04   |Residual|: 2.313e-03   |deigs|: 1.309e-04  t[s]:   5949.15
	FillingsUpdate:  mu: +0.543231663  nElectrons: 198.000000
SCF: Cycle:  7   F: -812.654283051893913   dF: -2.117e-05   |Residual|: 1.057e-03   |deigs|: 4.334e-05  t[s]:   5983.00
	FillingsUpdate:  mu: +0.543231930  nElectrons: 198.000000
SCF: Cycle:  8   F: -812.654293336113028   dF: -1.028e-05   |Residual|: 5.282e-04   |deigs|: 1.970e-05  t[s]:   6016.61
	FillingsUpdate:  mu: +0.543232958  nElectrons: 198.000000
SCF: Cycle:  9   F: -812.654295522982011   dF: -2.187e-06   |Residual|: 2.231e-04   |deigs|: 9.393e-06  t[s]:   6050.15
	FillingsUpdate:  mu: +0.543233369  nElectrons: 198.000000
SCF: Cycle: 10   F: -812.654295612705482   dF: -8.972e-08   |Residual|: 7.877e-05   |deigs|: 3.110e-06  t[s]:   6083.82
	FillingsUpdate:  mu: +0.543233490  nElectrons: 198.000000
SCF: Cycle: 11   F: -812.654295647727054   dF: -3.502e-08   |Residual|: 1.834e-05   |deigs|: 1.275e-06  t[s]:   6117.68
SCF: Converged (|Delta E|<1.000000e-06 for 2 iters).

Setting wave functions to eigenvectors of Hamiltonian

# Ionic positions in lattice coordinates:
ion O   0.137173639054385   0.304629753921300   0.154576179564565 1
ion Hf  -0.040598592330613  -0.053123256628377   0.001897000645939 1
ion Hf   0.325901475651279   0.161265311401927   0.259253670789661 1
ion Hf  -0.242223772233244   0.440076589402065  -0.011470872448121 1
ion Hf   0.121786811514069   0.656795660858870   0.247462461393063 1
ion Hf   0.460960087797517  -0.052799921655797   0.003438025004408 1
ion Hf   0.804714083997449   0.148937857207940   0.257229649788649 1
ion Hf   0.291065068890094   0.460463358427818  -0.027054587099528 1
ion Hf   0.628487272902251   0.661282721637776   0.247450282526839 1
ion Hf  -0.041827767623817  -0.061911796187542   0.497465925076340 1
ion Hf   0.323612744865635   0.164008975961640   0.751938635073105 1
ion Hf  -0.235337917807800   0.435520568253700   0.498821225247764 1
ion Hf   0.119579825126150   0.664612378214606   0.742840917574117 1
ion Hf   0.455814067385844  -0.064624723312542   0.500589778712126 1
ion Hf   0.824169899005719   0.165155246471909   0.753902609699797 1
ion Hf   0.262755206437203   0.436974474532884   0.506205943332638 1
ion Hf   0.633967867367878   0.665736801491824   0.740453155118638 1

# Forces in Lattice coordinates:
force O  -0.064887826653080   0.021070352871843  -0.059966448961594 1
force Hf  -0.063636873650380  -0.011554435528023   0.048681155486385 1
force Hf  -0.070885710876908   0.094552142803541   0.088145629609923 1
force Hf   0.050391879959370  -0.048237197288049  -0.159039569139017 1
force Hf   0.048865527004510   0.034717841136824  -0.047965660906240 1
force Hf  -0.058869145094087  -0.016381086627656   0.073890247009639 1
force Hf  -0.070832440864521   0.058779899220014   0.063561865718429 1
force Hf   0.066319902263154  -0.082313134474570   0.030178455523274 1
force Hf   0.088018928940370   0.005544426062316  -0.050178064970845 1
force Hf  -0.038325291285152  -0.055204193114921  -0.057828606770123 1
force Hf  -0.028918856614395   0.058683990540725   0.011492502154039 1
force Hf   0.084130040532041  -0.094656149106227  -0.021727274737574 1
force Hf   0.042388027642532   0.054687797411920  -0.032988093256799 1
force Hf  -0.052731369675152  -0.063328238739918  -0.036883999906188 1
force Hf  -0.037874234759326   0.065755584353821   0.057087969605121 1
force Hf   0.065437035608510  -0.083039025792358   0.109614151942676 1
force Hf   0.049032432033264   0.050121594568059  -0.056708276131061 1

# Energy components:
   Eewald =     -638.4120875584487749
       EH =      116.4184343783848306
     Eloc =     -218.3690402803067059
      Enl =     -227.8205406157335062
      Exc =     -609.8067755584099814
 Exc_core =      475.1558902945134832
       KE =      290.2121598932963025
-------------------------------------
     Etot =     -812.6219594467042953
       TS =        0.0323362010227790
-------------------------------------
        F =     -812.6542956477270536

IonicMinimize: Iter:  10  F: -812.654295647727054  |grad|_K:  4.660e-03  alpha:  3.631e-01  linmin: -9.507e-01  t[s]:   6124.67

#--- Lowdin population analysis ---
# oxidation-state O -0.192
# oxidation-state Hf +0.102 +0.065 +0.014 +0.086 -0.024 +0.037 +0.051 +0.042 +0.011 +0.016 +0.024 -0.001 +0.010 +0.025 +0.004 -0.005


-------- Electronic minimization -----------
Will mix electronic density at each iteration.
	FillingsUpdate:  mu: +0.543233490  nElectrons: 198.000000
	FillingsUpdate:  mu: +0.541690593  nElectrons: 198.000000
SCF: Cycle:  0   F: -810.676420089541011   dF: +3.653e-01   |Residual|: 9.490e-01   |deigs|: 8.925e-03  t[s]:   6201.18
	FillingsUpdate:  mu: +0.543368537  nElectrons: 198.000000
SCF: Cycle:  1   F: -811.847939900103142   dF: -1.172e+00   |Residual|: 3.646e-01   |deigs|: 8.010e-03  t[s]:   6255.47
	FillingsUpdate:  mu: +0.542818486  nElectrons: 198.000000
SCF: Cycle:  2   F: -811.745149167340855   dF: +1.028e-01   |Residual|: 1.952e-01   |deigs|: 4.925e-03  t[s]:   6309.83
	FillingsUpdate:  mu: +0.543337703  nElectrons: 198.000000
SCF: Cycle:  3   F: -812.652364325338681   dF: -9.072e-01   |Residual|: 4.459e-02   |deigs|: 3.852e-03  t[s]:   6365.54
	FillingsUpdate:  mu: +0.543273280  nElectrons: 198.000000
SCF: Cycle:  4   F: -812.662369033077198   dF: -1.000e-02   |Residual|: 2.321e-02   |deigs|: 7.441e-04  t[s]:   6417.59
	FillingsUpdate:  mu: +0.543214344  nElectrons: 198.000000
SCF: Cycle:  5   F: -812.662821329550866   dF: -4.523e-04   |Residual|: 5.216e-03   |deigs|: 2.231e-04  t[s]:   6451.59
	FillingsUpdate:  mu: +0.543208953  nElectrons: 198.000000
SCF: Cycle:  6   F: -812.662903340999151   dF: -8.201e-05   |Residual|: 1.935e-03   |deigs|: 9.357e-05  t[s]:   6485.30
	FillingsUpdate:  mu: +0.543214607  nElectrons: 198.000000
SCF: Cycle:  7   F: -812.662922600765341   dF: -1.926e-05   |Residual|: 8.301e-04   |deigs|: 3.836e-05  t[s]:   6519.28
	FillingsUpdate:  mu: +0.543214707  nElectrons: 198.000000
SCF: Cycle:  8   F: -812.662926683705564   dF: -4.083e-06   |Residual|: 4.419e-04   |deigs|: 1.579e-05  t[s]:   6552.41
	FillingsUpdate:  mu: +0.543215250  nElectrons: 198.000000
SCF: Cycle:  9   F: -812.662927883805537   dF: -1.200e-06   |Residual|: 1.705e-04   |deigs|: 7.517e-06  t[s]:   6585.91
	FillingsUpdate:  mu: +0.543215429  nElectrons: 198.000000
SCF: Cycle: 10   F: -812.662927942086185   dF: -5.828e-08   |Residual|: 5.312e-05   |deigs|: 2.688e-06  t[s]:   6619.73
	FillingsUpdate:  mu: +0.543215450  nElectrons: 198.000000
SCF: Cycle: 11   F: -812.662927954891870   dF: -1.281e-08   |Residual|: 1.602e-05   |deigs|: 1.113e-06  t[s]:   6653.20
SCF: Converged (|Delta E|<1.000000e-06 for 2 iters).

Setting wave functions to eigenvectors of Hamiltonian

# Ionic positions in lattice coordinates:
ion O   0.130425094615858   0.302015305811227   0.154597486491760 1
ion Hf  -0.047136528343843  -0.056774067774168   0.003422893584428 1
ion Hf   0.322863466385604   0.166404658905285   0.261756187744574 1
ion Hf  -0.239132852214642   0.438527710257539  -0.016028429259469 1
ion Hf   0.128137067993563   0.662271814394425   0.246175918797975 1
ion Hf   0.454664657674039  -0.056673182077015   0.005791560638614 1
ion Hf   0.800466447408870   0.150822766230706   0.259063306869726 1
ion Hf   0.294978871255394   0.458291484355030  -0.028077255628932 1
ion Hf   0.637260233909571   0.665468508454283   0.246096940119764 1
ion Hf  -0.047815906940506  -0.068324877138765   0.495697835905579 1
ion Hf   0.323300596565370   0.167487312322851   0.752194435171441 1
ion Hf  -0.231277441904029   0.431144418794147   0.498248645481654 1
ion Hf   0.126212231026459   0.671249567968044   0.742243533158689 1
ion Hf   0.447922707436198  -0.072575741594170   0.499375361277778 1
ion Hf   0.823159376581927   0.168814953872313   0.755649322601540 1
ion Hf   0.265524785338895   0.432665784353031   0.509588379978907 1
ion Hf   0.640447193211274   0.672183582865238   0.739203877065971 1

# Forces in Lattice coordinates:
force O  -0.062943620025825   0.035352577575542  -0.156285357299963 1
force Hf  -0.056299675311198   0.045304831192141   0.056606320139508 1
force Hf  -0.073410759417535   0.064244188071143   0.061719899786053 1
force Hf   0.055471910938141  -0.031329792311790  -0.104050420970305 1
force Hf   0.045277562331936  -0.034453695588504  -0.030772832466085 1
force Hf  -0.050362494270620   0.038580213719356   0.073778863197059 1
force Hf  -0.061882205852197   0.034034531753581   0.057446466278616 1
force Hf   0.037380625032600  -0.048169740579136   0.097642392180390 1
force Hf   0.081444621699340  -0.044956447547340  -0.039863501254693 1
force Hf  -0.031856648976504   0.011156193182832  -0.078410196083572 1
force Hf  -0.018991218639538   0.034282874252878  -0.008361817166335 1
force Hf   0.071603231218350  -0.069370193758816  -0.004754680978742 1
[...]
       KE =      289.5734858529835378
-------------------------------------
     Etot =     -812.8218552242299211
       TS =        0.0177331294756939
-------------------------------------
        F =     -812.8395883537056079

IonicMinimize: Iter:  31  F: -812.839588353705608  |grad|_K:  8.543e-04  alpha:  1.000e+00  linmin: -1.652e-01  t[s]:  18291.37

#--- Lowdin population analysis ---
# oxidation-state O -0.187
# oxidation-state Hf +0.060 +0.062 +0.061 +0.059 +0.005 +0.062 +0.061 +0.004 +0.023 +0.017 +0.018 +0.023 +0.010 +0.018 +0.019 +0.011


-------- Electronic minimization -----------
Will mix electronic density at each iteration.
	FillingsUpdate:  mu: +0.554117398  nElectrons: 198.000000
	FillingsUpdate:  mu: +0.553974721  nElectrons: 198.000000
SCF: Cycle:  0   F: -812.608982064669590   dF: +1.552e-01   |Residual|: 2.126e-01   |deigs|: 4.427e-04  t[s]:  18368.54
	FillingsUpdate:  mu: +0.554145027  nElectrons: 198.000000
SCF: Cycle:  1   F: -812.789108031601131   dF: -1.801e-01   |Residual|: 8.022e-02   |deigs|: 1.032e-03  t[s]:  18423.18
	FillingsUpdate:  mu: +0.554114576  nElectrons: 198.000000
SCF: Cycle:  2   F: -812.829802612166418   dF: -4.069e-02   |Residual|: 3.159e-02   |deigs|: 1.494e-03  t[s]:  18477.85
	FillingsUpdate:  mu: +0.554143707  nElectrons: 198.000000
SCF: Cycle:  3   F: -812.839788469795621   dF: -9.986e-03   |Residual|: 7.006e-03   |deigs|: 3.160e-04  t[s]:  18530.23
	FillingsUpdate:  mu: +0.554136877  nElectrons: 198.000000
SCF: Cycle:  4   F: -812.839815895359038   dF: -2.743e-05   |Residual|: 3.321e-03   |deigs|: 8.245e-05  t[s]:  18564.71
	FillingsUpdate:  mu: +0.554138295  nElectrons: 198.000000
SCF: Cycle:  5   F: -812.839844322283056   dF: -2.843e-05   |Residual|: 5.789e-04   |deigs|: 3.542e-05  t[s]:  18599.94
	FillingsUpdate:  mu: +0.554137503  nElectrons: 198.000000
SCF: Cycle:  6   F: -812.839845802237051   dF: -1.480e-06   |Residual|: 2.357e-04   |deigs|: 8.065e-06  t[s]:  18634.52
	FillingsUpdate:  mu: +0.554137867  nElectrons: 198.000000
SCF: Cycle:  7   F: -812.839846043211196   dF: -2.410e-07   |Residual|: 9.745e-05   |deigs|: 2.858e-06  t[s]:  18668.48
	FillingsUpdate:  mu: +0.554137884  nElectrons: 198.000000
SCF: Cycle:  8   F: -812.839846050396773   dF: -7.186e-09   |Residual|: 3.529e-05   |deigs|: 5.851e-07  t[s]:  18702.51
SCF: Converged (|Delta E|<1.000000e-06 for 2 iters).

Setting wave functions to eigenvectors of Hamiltonian

# Ionic positions in lattice coordinates:
ion O   0.048524841553678   0.302297271654654   0.124839403865414 1
ion Hf  -0.118798240314787  -0.032183741902455  -0.004175985306911 1
ion Hf   0.216712964857650   0.131913360954607   0.251512800662714 1
ion Hf  -0.119343405404832   0.470361108723671  -0.002029617249005 1
ion Hf   0.216523240071230   0.635437251529874   0.254191173923975 1
ion Hf   0.381556408923147  -0.031371121944473  -0.003872440275399 1
ion Hf   0.713307432092517   0.132633575583546   0.252395052155086 1
ion Hf   0.383503976958770   0.470063203385751  -0.002138011043525 1
ion Hf   0.715251024534344   0.634466455341638   0.254356375581007 1
ion Hf  -0.117011211080088  -0.029550367853386   0.499364844261055 1
ion Hf   0.215918709901385   0.135305824358516   0.749541073580951 1
ion Hf  -0.117796520967512   0.469933343033588   0.499918494691240 1
ion Hf   0.214754258025451   0.634198366132576   0.751163859916825 1
ion Hf   0.382772862061883  -0.030873905453534   0.500379585664818 1
ion Hf   0.715499731463789   0.136115899500465   0.749905787927370 1
ion Hf   0.383397990360445   0.468851885297174   0.500010052649353 1
ion Hf   0.715225936962930   0.635401591657789   0.749637548995032 1

# Forces in Lattice coordinates:
force O   0.002848192497601  -0.009443596819863   0.010202227298179 1
force Hf  -0.001072913893962  -0.004858095831120   0.043360067376806 1
force Hf  -0.013401237515074   0.014126362533769   0.035639938167695 1
force Hf  -0.004450574358406  -0.000340423724762   0.010451458148246 1
force Hf  -0.004500857029654   0.002279144482785   0.007574841685800 1
force Hf   0.003579458939865  -0.003918012894369   0.018079384455690 1
force Hf  -0.000161492952651   0.004534909531551   0.030603664809517 1
force Hf   0.011603404955243  -0.006813405979726   0.002842087214361 1
force Hf   0.000779053827234   0.004112961619939  -0.002773728028080 1
force Hf   0.002655492670385  -0.010032837949572   0.012415389944159 1
force Hf   0.002638588669273  -0.001820191002088   0.014227989791988 1
force Hf   0.000310212841877  -0.005584467800131   0.017060884082199 1
force Hf   0.000457812104703   0.009071640239235   0.008887537089877 1
force Hf  -0.001438940095358  -0.003920888455505   0.019192457822438 1
force Hf  -0.006501899259681   0.001440981598465   0.014309330376196 1
force Hf  -0.005287953584724   0.000139420176121   0.007370604516997 1
force Hf  -0.000148341677605   0.004298038280376   0.010702050766939 1

# Energy components:
   Eewald =     -639.7809955468874250
       EH =      115.1571004565278571
     Eloc =     -215.4248557964124018
      Enl =     -227.8663353388508312
      Exc =     -609.6342492164394571
 Exc_core =      475.1550722678060765
       KE =      289.5721164105892740
-------------------------------------
     Etot =     -812.8221467636668649
       TS =        0.0176992867298878
-------------------------------------
        F =     -812.8398460503967726

IonicMinimize: Iter:  32  F: -812.839846050396773  |grad|_K:  5.068e-04  alpha:  1.000e+00  linmin: -4.679e-01  t[s]:  18709.63

#--- Lowdin population analysis ---
# oxidation-state O -0.188
# oxidation-state Hf +0.060 +0.062 +0.061 +0.060 +0.006 +0.061 +0.061 +0.006 +0.021 +0.018 +0.018 +0.021 +0.010 +0.019 +0.019 +0.011


-------- Electronic minimization -----------
Will mix electronic density at each iteration.
	FillingsUpdate:  mu: +0.554137884  nElectrons: 198.000000
	FillingsUpdate:  mu: +0.553874135  nElectrons: 198.000000
SCF: Cycle:  0   F: -812.372530928163769   dF: +3.072e-01   |Residual|: 3.092e-01   |deigs|: 9.397e-04  t[s]:  18785.73
	FillingsUpdate:  mu: +0.554073670  nElectrons: 198.000000
SCF: Cycle:  1   F: -812.730776106899157   dF: -3.582e-01   |Residual|: 1.159e-01   |deigs|: 1.504e-03  t[s]:  18840.93
	FillingsUpdate:  mu: +0.554095926  nElectrons: 198.000000
SCF: Cycle:  2   F: -812.818552341309214   dF: -8.778e-02   |Residual|: 4.558e-02   |deigs|: 2.313e-03  t[s]:  18895.48
	FillingsUpdate:  mu: +0.554134129  nElectrons: 198.000000
SCF: Cycle:  3   F: -812.839854026224543   dF: -2.130e-02   |Residual|: 1.035e-02   |deigs|: 4.188e-04  t[s]:  18949.81
	FillingsUpdate:  mu: +0.554122093  nElectrons: 198.000000
SCF: Cycle:  4   F: -812.839882260638888   dF: -2.823e-05   |Residual|: 4.408e-03   |deigs|: 8.273e-05  t[s]:  18984.22
	FillingsUpdate:  mu: +0.554123449  nElectrons: 198.000000
SCF: Cycle:  5   F: -812.839931234105393   dF: -4.897e-05   |Residual|: 9.554e-04   |deigs|: 4.108e-05  t[s]:  19019.55
	FillingsUpdate:  mu: +0.554122586  nElectrons: 198.000000
SCF: Cycle:  6   F: -812.839933915510869   dF: -2.681e-06   |Residual|: 3.415e-04   |deigs|: 1.659e-05  t[s]:  19053.82
	FillingsUpdate:  mu: +0.554123205  nElectrons: 198.000000
SCF: Cycle:  7   F: -812.839934457961249   dF: -5.425e-07   |Residual|: 1.451e-04   |deigs|: 6.161e-06  t[s]:  19088.74
	FillingsUpdate:  mu: +0.554123248  nElectrons: 198.000000
SCF: Cycle:  8   F: -812.839934483395609   dF: -2.543e-08   |Residual|: 5.158e-05   |deigs|: 1.079e-06  t[s]:  19122.79
SCF: Converged (|Delta E|<1.000000e-06 for 2 iters).

Setting wave functions to eigenvectors of Hamiltonian

# Ionic positions in lattice coordinates:
ion O   0.049419926290146   0.302138834411261   0.124396493795311 1
ion Hf  -0.118564797834304  -0.033487357761001  -0.002725727611524 1
ion Hf   0.217409420525369   0.134955007308860   0.252864912661796 1
ion Hf  -0.119743928711876   0.468941005884154  -0.002717355669222 1
ion Hf   0.216679021264021   0.636816681283927   0.253187093255026 1
ion Hf   0.381961002746306  -0.032074977046224  -0.003389885478002 1
ion Hf   0.713674298336108   0.134348035891405   0.253699847171001 1
ion Hf   0.383916867085350   0.468621715759869  -0.002347083826281 1
ion Hf   0.715907007540991   0.635761381457395   0.253358788703196 1
ion Hf  -0.118765734618521  -0.032225420030700   0.499565665098175 1
ion Hf   0.217332911515704   0.136211560707344   0.749896658736817 1
ion Hf  -0.119685636261219   0.467835715917166   0.499944457183121 1
ion Hf   0.216282662268115   0.636704524298048   0.750358215526510 1
ion Hf   0.380517922797514  -0.032911238585286   0.500660835340085 1
ion Hf   0.715775594601547   0.136610965532420   0.750029828414714 1
ion Hf   0.381252936362966   0.467495407798276   0.499443565856993 1
ion Hf   0.716630526091783   0.637258157173084   0.748773690842282 1

# Forces in Lattice coordinates:
force O  -0.012061844372798   0.001124537480434   0.028290406017248 1
force Hf  -0.004329424284547   0.001935652605862   0.015042796627036 1
force Hf  -0.005305660954194  -0.005496220277943   0.025431925480556 1
force Hf   0.006942945494457  -0.004275184729036   0.020439338186242 1
force Hf  -0.007819520783634   0.006738805304324   0.020505007519516 1
force Hf   0.002341529370950  -0.001976979347051   0.020987601543627 1
force Hf   0.006141667190314  -0.000756262753377  -0.001351124015284 1
force Hf   0.001973054075175   0.006450747461492  -0.008642614936415 1
force Hf   0.000871449515311  -0.000661320375072   0.023563923441368 1
force Hf   0.000413913859346  -0.001783507593904   0.019049731751160 1
force Hf  -0.011988486819557   0.007056206853786   0.022401300243737 1
force Hf   0.004009859416699   0.000524367579444   0.007480529195063 1
force Hf   0.000922435019089  -0.004645451703414   0.016250864020041 1
force Hf   0.003167127068480  -0.000727296659495   0.008636955736012 1
force Hf   0.003717519150756  -0.005356010444135   0.024399811353034 1
force Hf  -0.000547246512351   0.004415492453684   0.024581685654472 1
force Hf  -0.005289866773855  -0.001643955373936   0.025960802687285 1

# Energy components:
   Eewald =     -639.8100089384272451
       EH =      115.1300283159604305
     Eloc =     -215.3682174886221503
      Enl =     -227.8658720552614909
      Exc =     -609.6336959015587809
 Exc_core =      475.1550356014791419
       KE =      289.5704883011715083
-------------------------------------
     Etot =     -812.8222421652587855
       TS =        0.0176923181367902
-------------------------------------
        F =     -812.8399344833956093

IonicMinimize: Iter:  33  F: -812.839934483395609  |grad|_K:  4.531e-04  alpha:  1.000e+00  linmin:  2.195e-01  t[s]:  19129.81

#--- Lowdin population analysis ---
# oxidation-state O -0.188
# oxidation-state Hf +0.062 +0.060 +0.060 +0.061 +0.006 +0.061 +0.060 +0.006 +0.020 +0.020 +0.019 +0.020 +0.009 +0.020 +0.020 +0.010


-------- Electronic minimization -----------
Will mix electronic density at each iteration.
	FillingsUpdate:  mu: +0.554123248  nElectrons: 198.000000
	FillingsUpdate:  mu: +0.554133830  nElectrons: 198.000000
SCF: Cycle:  0   F: -812.839856155198163   dF: -1.185e-05   |Residual|: 2.982e-03   |deigs|: 3.997e-06  t[s]:  19197.92
	FillingsUpdate:  mu: +0.554131080  nElectrons: 198.000000
SCF: Cycle:  1   F: -812.839947937815509   dF: -9.178e-05   |Residual|: 1.356e-03   |deigs|: 4.794e-05  t[s]:  19232.55
	FillingsUpdate:  mu: +0.554132141  nElectrons: 198.000000
SCF: Cycle:  2   F: -812.839969645143583   dF: -2.171e-05   |Residual|: 5.935e-04   |deigs|: 1.960e-05  t[s]:  19267.37
	FillingsUpdate:  mu: +0.554131658  nElectrons: 198.000000
SCF: Cycle:  3   F: -812.839971095562646   dF: -1.450e-06   |Residual|: 2.091e-04   |deigs|: 4.741e-06  t[s]:  19302.06
	FillingsUpdate:  mu: +0.554131749  nElectrons: 198.000000
SCF: Cycle:  4   F: -812.839971140664375   dF: -4.510e-08   |Residual|: 9.322e-05   |deigs|: 2.075e-06  t[s]:  19336.73
	FillingsUpdate:  mu: +0.554131673  nElectrons: 198.000000
SCF: Cycle:  5   F: -812.839971153786792   dF: -1.312e-08   |Residual|: 2.271e-05   |deigs|: 8.758e-07  t[s]:  19371.78
SCF: Converged (|Delta E|<1.000000e-06 for 2 iters).

Setting wave functions to eigenvectors of Hamiltonian

# Ionic positions in lattice coordinates:
ion O   0.048541575994035   0.301765293216567   0.124587434607420 1
ion Hf  -0.118984519128857  -0.033446020252696  -0.002734135767207 1
ion Hf   0.216365496546375   0.134046523478212   0.253193564092460 1
ion Hf  -0.118777607779376   0.469052979281362  -0.002601435817046 1
ion Hf   0.216516304485709   0.637204770365043   0.253171022545487 1
ion Hf   0.382081101976611  -0.031977146634956  -0.003266702193981 1
ion Hf   0.713757482939865   0.134485503437565   0.253218549295817 1
ion Hf   0.384652983473140   0.469329771356911  -0.002941871740276 1
ion Hf   0.716094376926703   0.635681039112767   0.253488705371849 1
ion Hf  -0.118831014652274  -0.032401829673413   0.499668441257738 1
ion Hf   0.216299452957845   0.136286920193007   0.749994700607740 1
ion Hf  -0.118840732973077   0.468163329862351   0.499749266164511 1
ion Hf   0.216536316165685   0.636376460940349   0.750270984867661 1
ion Hf   0.380789136744117  -0.032565212884190   0.500383748665526 1
ion Hf   0.715576644113733   0.136229776366183   0.750241723395064 1
ion Hf   0.381847545021385   0.468066335617918   0.499574412087157 1
ion Hf   0.716375457188380   0.636701506217021   0.749001592560081 1

# Forces in Lattice coordinates:
force O   0.007817653299630  -0.002681020824628   0.020050755337681 1
force Hf   0.003433600360742  -0.003085924474426   0.016604244629098 1
force Hf  -0.003182213141761   0.005574308064165   0.011854343965648 1
force Hf  -0.004985113259929   0.005810587240945   0.009609724615065 1
force Hf   0.000928716481975  -0.004273777536736   0.015643676333057 1
force Hf  -0.003288600418317   0.002896389317200   0.013101740078401 1
force Hf  -0.001114833979851  -0.000148609956425   0.021387668549331 1
force Hf  -0.004964998638370  -0.001231714754105   0.027974053381354 1
force Hf  -0.005131212114939  -0.000899518094274   0.020475464047371 1
force Hf  -0.001407138105612   0.001335252229201   0.016204102630275 1
force Hf  -0.000023157038782  -0.002758380150158   0.022949209471164 1
force Hf   0.000395168130575  -0.000942341070120   0.014894289595089 1
force Hf  -0.005695370675282   0.003775547608482   0.015588713211889 1
force Hf   0.003855881628259   0.001192953474959   0.023812760687437 1
force Hf  -0.001460715077525  -0.000189536209583   0.015102364280895 1
force Hf   0.000564589684863  -0.000185583613111   0.016605697412584 1
force Hf  -0.000409767094344  -0.002950935723311   0.020012122769381 1

# Energy components:
   Eewald =     -639.8118513632693976
       EH =      115.1290867378674250
     Eloc =     -215.3650806297578697
      Enl =     -227.8661446245002082
      Exc =     -609.6335757477243078
 Exc_core =      475.1550550751554169
       KE =      289.5702213312131335
-------------------------------------
     Etot =     -812.8222892210158079
       TS =        0.0176819327709962
-------------------------------------
        F =     -812.8399711537867915

IonicMinimize: Iter:  34  F: -812.839971153786792  |grad|_K:  2.559e-04  alpha:  1.000e+00  linmin:  2.051e-01  t[s]:  19379.02

#--- Lowdin population analysis ---
# oxidation-state O -0.188
# oxidation-state Hf +0.061 +0.060 +0.061 +0.060 +0.006 +0.061 +0.061 +0.007 +0.019 +0.020 +0.020 +0.020 +0.009 +0.020 +0.020 +0.010


-------- Electronic minimization -----------
Will mix electronic density at each iteration.
	FillingsUpdate:  mu: +0.554131673  nElectrons: 198.000000
	FillingsUpdate:  mu: +0.554136601  nElectrons: 198.000000
SCF: Cycle:  0   F: -812.839955241305461   dF: +2.217e-06   |Residual|: 1.287e-03   |deigs|: 8.417e-07  t[s]:  19436.80
	FillingsUpdate:  mu: +0.554133791  nElectrons: 198.000000
SCF: Cycle:  1   F: -812.839976344706201   dF: -2.110e-05   |Residual|: 6.583e-04   |deigs|: 3.516e-05  t[s]:  19471.56
	FillingsUpdate:  mu: +0.554134458  nElectrons: 198.000000
SCF: Cycle:  2   F: -812.839983103850386   dF: -6.759e-06   |Residual|: 2.746e-04   |deigs|: 1.133e-05  t[s]:  19505.54
	FillingsUpdate:  mu: +0.554133979  nElectrons: 198.000000
SCF: Cycle:  3   F: -812.839983263087220   dF: -1.592e-07   |Residual|: 8.898e-05   |deigs|: 2.546e-06  t[s]:  19540.20
	FillingsUpdate:  mu: +0.554134027  nElectrons: 198.000000
SCF: Cycle:  4   F: -812.839983277306601   dF: -1.422e-08   |Residual|: 4.012e-05   |deigs|: 1.276e-06  t[s]:  19575.29
SCF: Converged (|Delta E|<1.000000e-06 for 2 iters).

Setting wave functions to eigenvectors of Hamiltonian

# Ionic positions in lattice coordinates:
ion O   0.048837789539827   0.301819076169906   0.124649943681909 1
ion Hf  -0.118787286245244  -0.033326264578473  -0.002861327340630 1
ion Hf   0.216386682097277   0.134011600012629   0.252956530511965 1
ion Hf  -0.118969967365744   0.469369827997726  -0.002636914098284 1
ion Hf   0.216369534572000   0.636811663654325   0.253238069494362 1
ion Hf   0.382091150095308  -0.031788094677412  -0.003396366093549 1
ion Hf   0.713762716449628   0.134276047798686   0.253145645373525 1
ion Hf   0.384318256774168   0.469334389034917  -0.002768345325716 1
ion Hf   0.715716315953789   0.635363237288261   0.253606933433367 1
ion Hf  -0.118489827117181  -0.032086733583657   0.499606012893301 1
ion Hf   0.216329929283656   0.136088363011783   0.750039038631941 1
ion Hf  -0.118726356056312   0.468345222390554   0.499732665409405 1
ion Hf   0.216078071076375   0.636217345159254   0.750324829442336 1
ion Hf   0.381438347847541  -0.032189996895314   0.500452431124502 1
ion Hf   0.715635169541365   0.136172283403927   0.750182409181874 1
ion Hf   0.381991934636692   0.468187494919331   0.499618814342685 1
ion Hf   0.716017538916856   0.636394538893557   0.749109629337008 1

# Forces in Lattice coordinates:
force O   0.000029500015287   0.000080345612359   0.016851516654193 1
force Hf  -0.000615267490760  -0.001599360716901   0.021919549250200 1
force Hf   0.000038833841672  -0.000077328743594   0.021112097971308 1
force Hf  -0.000904334508048  -0.000031500446189   0.018605613575011 1
force Hf  -0.000951300390151   0.001801236143763   0.015757517878159 1
force Hf  -0.000607895444751  -0.000170434004261   0.019688593699246 1
force Hf  -0.001773611966457   0.000043113006105   0.017711626936211 1
force Hf  -0.001256310190428   0.000162702909033   0.021390712336974 1
force Hf  -0.001887292474085   0.000271750167290   0.016024060668306 1
force Hf   0.000008694348169  -0.000918575368327   0.015807617037290 1
force Hf  -0.001802641354804  -0.000747227227750   0.019947902067980 1
force Hf   0.000812885420524  -0.000590907131135   0.013916281513158 1
force Hf  -0.001645762863154   0.002222284549351   0.016432513277341 1
force Hf   0.000041821689950   0.000672772811793   0.015377005792435 1
force Hf  -0.001414908663257  -0.000762345302346   0.018001037427849 1
force Hf  -0.000133233520545  -0.000138149598943   0.014905337199983 1
force Hf  -0.000937693745710  -0.000208436129723   0.018437605671820 1

# Energy components:
   Eewald =     -639.7970267839923508
       EH =      115.1427459519277789
     Eloc =     -215.3938783385879674
      Enl =     -227.8661382385101035
      Exc =     -609.6337954219034145
 Exc_core =      475.1550649702971896
       KE =      289.5707259749692071
-------------------------------------
     Etot =     -812.8223018857995612
       TS =        0.0176813915070460
-------------------------------------
        F =     -812.8399832773066009

IonicMinimize: Iter:  35  F: -812.839983277306601  |grad|_K:  9.406e-05  alpha:  1.000e+00  linmin:  4.492e-03  t[s]:  19582.72
IonicMinimize: Converged (|grad|_K<1.000000e-04).

#--- Lowdin population analysis ---
# oxidation-state O -0.188
# oxidation-state Hf +0.061 +0.060 +0.061 +0.060 +0.006 +0.061 +0.060 +0.006 +0.019 +0.020 +0.019 +0.020 +0.010 +0.020 +0.020 +0.010


Dumping 'Hf16O_oct.Ecomponents' ... done
End date and time: Tue Apr 23 15:59:15 2024  (Duration: 0-5:26:26.78)
Done!
