
*************** JDFTx 1.7.0 (git hash e155c65d) ***************

Start date and time: Thu Nov 21 17:05:06 2024
Executable jdftx with command-line: -i Bi2O3_vac36.in
Running on hosts (process indices):  node3302 (0-8)
Divided in process groups (process indices):  0 (0)  1 (1)  2 (2)  3 (3)  4 (4)  5 (5)  6 (6)  7 (7)  8 (8)
Resource initialization completed at t[s]:      0.00
Run totals: 9 processes, 63 threads, 0 GPUs


Input parsed successfully to the following command list (including defaults):

basis kpoint-dependent
coords-type Lattice
core-overlap-check vector
coulomb-interaction Periodic
davidson-band-ratio 1.1
dump End Ecomponents
dump-name /data/rc652/Bi2O3/vac/Bi2O3_vac36.$VAR
elec-cutoff 20 100
elec-eigen-algo Davidson
elec-ex-corr gga-PBEsol
elec-smearing Fermi 0.01
electronic-minimize  \
	dirUpdateScheme      FletcherReeves \
	linminMethod         DirUpdateRecommended \
	nIterations          100 \
	history              15 \
	knormThreshold       0 \
	maxThreshold         no \
	energyDiffThreshold  1e-08 \
	nEnergyDiff          2 \
	alphaTstart          1 \
	alphaTmin            1e-10 \
	updateTestStepSize   yes \
	alphaTreduceFactor   0.1 \
	alphaTincreaseFactor 3 \
	nAlphaAdjustMax      3 \
	wolfeEnergy          0.0001 \
	wolfeGradient        0.9 \
	fdTest               no
electronic-scf  \
	nIterations	50 \
	energyDiffThreshold	1e-08 \
	residualThreshold	1e-07 \
	mixFraction	0.5 \
	qMetric	0.8 \
	history	10 \
	nEigSteps	2 \
	eigDiffThreshold	1e-08 \
	mixedVariable	Density \
	qKerker	0.8 \
	qKappa	-1 \
	verbose	no \
	mixFractionMag	1.5
exchange-regularization WignerSeitzTruncated
fluid None
fluid-ex-corr lda-TF lda-PZ
fluid-gummel-loop 10 1.000000e-05
fluid-minimize  \
	dirUpdateScheme      PolakRibiere \
	linminMethod         DirUpdateRecommended \
	nIterations          100 \
	history              15 \
	knormThreshold       0 \
	maxThreshold         no \
	energyDiffThreshold  0 \
	nEnergyDiff          2 \
	alphaTstart          1 \
	alphaTmin            1e-10 \
	updateTestStepSize   yes \
	alphaTreduceFactor   0.1 \
	alphaTincreaseFactor 3 \
	nAlphaAdjustMax      3 \
	wolfeEnergy          0.0001 \
	wolfeGradient        0.9 \
	fdTest               no
fluid-solvent H2O 55.338 ScalarEOS \
	epsBulk 78.4 \
	pMol 0.92466 \
	epsInf 1.77 \
	Pvap 1.06736e-10 \
	sigmaBulk 4.62e-05 \
	Rvdw 2.61727 \
	Res 1.42 \
	tauNuc 343133 \
	poleEl 15 7 1
forces-output-coords Positions
ion Bi   0.249360000000000   0.066250000000000   0.308860000000000 1
ion Bi   0.250360000000000   0.572680000000000   0.309400000000000 1
ion Bi   0.754480000000000   0.079240000000000   0.314880000000000 1
ion Bi   0.757440000000000   0.559580000000000   0.317530000000000 1
ion Bi   0.035260000000000   0.126480000000000   0.561260000000000 1
ion Bi   0.010460000000000   0.631640000000000   0.535700000000000 1
ion Bi   0.519390000000000   0.120970000000000   0.534790000000000 1
ion Bi   0.516660000000000   0.645210000000000   0.536900000000000 1
ion Bi   0.265030000000000   0.175540000000000   0.818100000000000 1
ion Bi   0.238610000000000   0.699740000000000   0.815630000000000 1
ion Bi   0.761880000000000   0.190680000000000   0.810700000000000 1
ion Bi   0.757520000000000   0.679910000000000   0.804290000000000 1
ion Bi   0.454850000000000   0.110800000000000   0.055420000000000 1
ion Bi   0.476890000000000   0.608730000000000   0.041430000000000 1
ion Bi   0.974440000000000   0.090260000000000   0.031160000000000 1
ion Bi   0.971720000000000   0.605510000000000   0.045350000000000 1
ion Bi   0.253540000000000   0.304090000000000   0.186110000000000 1
ion Bi   0.243670000000000   0.814700000000000   0.172160000000000 1
ion Bi   0.733470000000000   0.332720000000000   0.191910000000000 1
ion Bi   0.751160000000000   0.827890000000000   0.181880000000000 1
ion Bi   0.248640000000000   0.425030000000000   0.684710000000000 1
ion Bi   0.254260000000000   0.929250000000000   0.684190000000000 1
ion Bi   0.747120000000000   0.435870000000000   0.686330000000000 1
ion Bi   0.780560000000000   0.929680000000000   0.675980000000000 1
ion Bi   0.485910000000000   0.361820000000000   0.467050000000000 1
ion Bi   0.483420000000000   0.855300000000000   0.450450000000000 1
ion Bi   0.967990000000000   0.364610000000000   0.457060000000000 1
ion Bi   0.977660000000000   0.869150000000000   0.451230000000000 1
ion Bi   0.028210000000000   0.379180000000000   0.957470000000000 1
ion Bi   0.017860000000000   0.897910000000000   0.957530000000000 1
ion Bi   0.519960000000000   0.394630000000000   0.954740000000000 1
ion Bi   0.540750000000000   0.888250000000000   0.948730000000000 1
ion O   0.388310000000000   0.091000000000000   0.782110000000000 1
ion O   0.405820000000000   0.585710000000000   0.746620000000000 1
ion O   0.878970000000000   0.087290000000000   0.786620000000000 1
ion O   0.902340000000000   0.611070000000000   0.785900000000000 1
ion O   0.383110000000000   0.730470000000000   0.078570000000000 1
ion O   0.850920000000000   0.236330000000000   0.076000000000000 1
ion O   0.877000000000000   0.757770000000000   0.084950000000000 1
ion O   0.337150000000000   0.432010000000000   0.962630000000000 1
ion O   0.344780000000000   0.934650000000000   0.969900000000000 1
ion O   0.848710000000000   0.422720000000000   0.958410000000000 1
ion O   0.836060000000000   0.915310000000000   0.986640000000000 1
ion O   0.380780000000000   0.481660000000000   0.420020000000000 1
ion O   0.361620000000000   0.967190000000000   0.409910000000000 1
ion O   0.873360000000000   0.476170000000000   0.418840000000000 1
ion O   0.868680000000000   0.991770000000000   0.427850000000000 1
ion O   0.110900000000000   0.157300000000000   0.288700000000000 1
ion O   0.123770000000000   0.668750000000000   0.288490000000000 1
ion O   0.606190000000000   0.145990000000000   0.268390000000000 1
ion O   0.605810000000000   0.642470000000000   0.270610000000000 1
ion O   0.123680000000000   0.259540000000000   0.906110000000000 1
ion O   0.140880000000000   0.745230000000000   0.913650000000000 1
ion O   0.631470000000000   0.263820000000000   0.925520000000000 1
ion O   0.624020000000000   0.766050000000000   0.900460000000000 1
ion O   0.344990000000000   0.184700000000000   0.522740000000000 1
ion O   0.339880000000000   0.686270000000000   0.533280000000000 1
ion O   0.817480000000000   0.194830000000000   0.546990000000000 1
ion O   0.848240000000000   0.694250000000000   0.515500000000000 1
ion O   0.100630000000000   0.405590000000000   0.214590000000000 1
ion O   0.090650000000000   0.896640000000000   0.206570000000000 1
ion O   0.608210000000000   0.400310000000000   0.222880000000000 1
ion O   0.616690000000000   0.885440000000000   0.244150000000000 1
ion O   0.162190000000000   0.287880000000000   0.478060000000000 1
ion O   0.162240000000000   0.788450000000000   0.466850000000000 1
ion O   0.643390000000000   0.326690000000000   0.472190000000000 1
ion O   0.657850000000000   0.818510000000000   0.481110000000000 1
ion O   0.382410000000000   0.334380000000000   0.705240000000000 1
ion O   0.378980000000000   0.853510000000000   0.721640000000000 1
ion O   0.882220000000000   0.341120000000000   0.728830000000000 1
ion O   0.903970000000000   0.825930000000000   0.721780000000000 1
ion O   0.170380000000000   0.075860000000000   0.036430000000000 1
ion O   0.156180000000000   0.552270000000000   0.001850000000000 1
ion O   0.670090000000000   0.070690000000000   0.028800000000000 1
ion O   0.654520000000000   0.571560000000000   0.021980000000000 1
ion O   0.113240000000000   0.023280000000000   0.582070000000000 1
ion O   0.113320000000000   0.511620000000000   0.578750000000000 1
ion O   0.629950000000000   0.028280000000000   0.593010000000000 1
ion O   0.629990000000000   0.519090000000000   0.573010000000000 1
ion-species GBRV/$ID_pbesol.uspp
ion-width 0
ionic-minimize  \
	dirUpdateScheme      L-BFGS \
	linminMethod         DirUpdateRecommended \
	nIterations          50 \
	history              15 \
	knormThreshold       0.0001 \
	maxThreshold         no \
	energyDiffThreshold  1e-05 \
	nEnergyDiff          2 \
	alphaTstart          1 \
	alphaTmin            1e-10 \
	updateTestStepSize   yes \
	alphaTreduceFactor   0.1 \
	alphaTincreaseFactor 3 \
	nAlphaAdjustMax      3 \
	wolfeEnergy          0.0001 \
	wolfeGradient        0.9 \
	fdTest               no
kpoint   0.500000000000   0.500000000000   0.500000000000  1.00000000000000
kpoint-folding 3 3 4 
latt-move-scale 1 1 1
latt-scale 1 1 1 
lattice  \
	  22.078756736136054  -10.797991864405642   -0.000000000000000  \
	   0.198108228965560   25.717610123310134   -0.000000000000000  \
	  -0.000000000000000   -0.000000000000000   15.143990300894858 
lattice-minimize  \
	dirUpdateScheme      L-BFGS \
	linminMethod         DirUpdateRecommended \
	nIterations          0 \
	history              15 \
	knormThreshold       0 \
	maxThreshold         no \
	energyDiffThreshold  1e-06 \
	nEnergyDiff          2 \
	alphaTstart          1 \
	alphaTmin            1e-10 \
	updateTestStepSize   yes \
	alphaTreduceFactor   0.1 \
	alphaTincreaseFactor 3 \
	nAlphaAdjustMax      3 \
	wolfeEnergy          0.0001 \
	wolfeGradient        0.9 \
	fdTest               no
lcao-params -1 1e-06 0.01
pcm-variant GLSSA13
perturb-minimize  \
	nIterations            0 \
	algorithm              MINRES \
	residualTol            0.0001 \
	residualDiffThreshold  0.0001 \
	CGBypass               no \
	recomputeResidual      no
spintype no-spin
subspace-rotation-factor 1 yes
symmetries automatic
symmetry-threshold 0.0001



---------- Setting up symmetries ----------

Found 4 point-group symmetries of the bravais lattice
Found 1 space-group symmetries with basis
Applied RMS atom displacement 0 bohrs to make symmetries exact.

---------- Initializing the Grid ----------
R = 
[      22.0788      -10.798            0  ]
[     0.198108      25.7176            0  ]
[            0            0       15.144  ]
unit cell volume = 8631.35
G =
[   0.283512   0.119038          0  ]
[ -0.00218396   0.243398          0  ]
[          0          0   0.414896  ]
Minimum fftbox size, Smin = [  100  128  72  ]
Chosen fftbox size, S = [  100  128  72  ]

---------- Initializing tighter grid for wavefunction operations ----------
R = 
[      22.0788      -10.798            0  ]
[     0.198108      25.7176            0  ]
[            0            0       15.144  ]
unit cell volume = 8631.35
G =
[   0.283512   0.119038          0  ]
[ -0.00218396   0.243398          0  ]
[          0          0   0.414896  ]
Minimum fftbox size, Smin = [  92  116  64  ]
Chosen fftbox size, S = [  96  120  64  ]

---------- Exchange Correlation functional ----------
Initalized PBEsol GGA exchange.
Initalized PBEsol GGA correlation.

---------- Setting up pseudopotentials ----------
Width of ionic core gaussian charges (only for fluid interactions / plotting) set to 0

Reading pseudopotential file '/home/rc652/JDFTx/build/pseudopotentials/GBRV/bi_pbesol.uspp':
  Title: Bi.  Created by USPP 7.3.6 on 16-12-2017
  Reference state energy: -92.043361.  15 valence electrons in orbitals:
    |520>  occupation: 10  eigenvalue: -1.293232
    |600>  occupation: 2  eigenvalue: -0.815623
    |610>  occupation: 2  eigenvalue: -0.421990
  lMax: 2  lLocal: 3  QijEcut: 5
  6 projectors sampled on a log grid with 747 points:
    l: 0  eig: -0.815622  rCut: 2.5
    l: 0  eig: 0.500000  rCut: 2.5
    l: 1  eig: -0.421989  rCut: 2.5
    l: 1  eig: 1.000000  rCut: 2.5
    l: 2  eig: -1.293232  rCut: 2.3
    l: 2  eig: -0.500000  rCut: 2.3
  Partial core density with radius 1
  Transforming core density to a uniform radial grid of dG=0.02 with 1492 points.
  Transforming local potential to a uniform radial grid of dG=0.02 with 1492 points.
  Transforming nonlocal projectors to a uniform radial grid of dG=0.02 with 432 points.
  Transforming density augmentations to a uniform radial grid of dG=0.02 with 1492 points.
  Transforming atomic orbitals to a uniform radial grid of dG=0.02 with 432 points.
  Core radius for overlap checks: 2.50 bohrs.

Reading pseudopotential file '/home/rc652/JDFTx/build/pseudopotentials/GBRV/o_pbesol.uspp':
  Title: O.  Created by USPP 7.3.6 on 3-2-2014
  Reference state energy: -15.849885.  6 valence electrons in orbitals:
    |200>  occupation: 2  eigenvalue: -0.873214
    |210>  occupation: 4  eigenvalue: -0.330058
  lMax: 2  lLocal: 2  QijEcut: 6
  5 projectors sampled on a log grid with 511 points:
    l: 0  eig: -0.873214  rCut: 1.25
    l: 0  eig: 0.000000  rCut: 1.25
    l: 1  eig: -0.330058  rCut: 1.25
    l: 1  eig: 0.000000  rCut: 1.25
    l: 2  eig: 1.000000  rCut: 1.25
  Partial core density with radius 0.7
  Transforming core density to a uniform radial grid of dG=0.02 with 1492 points.
  Transforming local potential to a uniform radial grid of dG=0.02 with 1492 points.
  Transforming nonlocal projectors to a uniform radial grid of dG=0.02 with 432 points.
  Transforming density augmentations to a uniform radial grid of dG=0.02 with 1492 points.
  Transforming atomic orbitals to a uniform radial grid of dG=0.02 with 432 points.
  Core radius for overlap checks: 1.25 bohrs.

Initialized 2 species with 79 total atoms.

Folded 1 k-points by 3x3x4 to 36 k-points.

---------- Setting up k-points, bands, fillings ----------
Adding inversion symmetry to k-mesh for non-inversion-symmetric unit cell.
Reduced to 18 k-points under symmetry. 
Computing the number of bands and number of electrons
Calculating initial fillings.
nElectrons: 762.000000   nBands: 476   nStates: 18

----- Setting up reduced wavefunction bases (one per k-point) -----
average nbasis = 36878.222 , ideal nbasis = 36873.776

---------- Setting up ewald sum ----------
Optimum gaussian width for ewald sums = 3.950618 bohr.
Real space sum over 441 unit cells with max indices [  3  3  4  ]
Reciprocal space sum over 7875 terms with max indices [  10  12  7  ]

---------- Allocating electronic variables ----------
Initializing wave functions:  linear combination of atomic orbitals
Bi pseudo-atom occupations:   s ( 2 )  p ( 3 )  d ( 10 )
O pseudo-atom occupations:   s ( 2 )  p ( 4 )
	FillingsUpdate:  mu: +0.747350724  nElectrons: 762.000000
LCAOMinimize: Iter:   0  F: -3037.2228696767169822  |grad|_K:  3.588e-03  alpha:  1.000e+00
	FillingsUpdate:  mu: +0.639724604  nElectrons: 762.000000
LCAOMinimize: Iter:   1  F: -3044.9789480809317865  |grad|_K:  2.855e-03  alpha:  1.427e-01  linmin: -3.982e-01  cgtest:  7.725e-01  t[s]:    155.80
LCAOMinimize: 	Predicted alpha/alphaT>3.000000, increasing alphaT to 4.279748e-01.
	FillingsUpdate:  mu: +0.520675589  nElectrons: 762.000000
LCAOMinimize: Iter:   2  F: -3049.5921656195214382  |grad|_K:  1.545e-03  alpha:  1.697e-01  linmin: -2.573e-01  cgtest:  6.110e-01  t[s]:    228.85
LCAOMinimize: Encountered beta<0, resetting CG.
	FillingsUpdate:  mu: +0.486111120  nElectrons: 762.000000
LCAOMinimize: Iter:   3  F: -3050.4787532071186433  |grad|_K:  1.156e-03  alpha:  1.833e-01  linmin:  3.727e-02  cgtest: -1.497e-01  t[s]:    287.15
	FillingsUpdate:  mu: +0.455050491  nElectrons: 762.000000
LCAOMinimize: Iter:   4  F: -3050.7541852920016936  |grad|_K:  5.672e-04  alpha:  9.925e-02  linmin: -2.763e-02  cgtest:  5.698e-01  t[s]:    346.77
LCAOMinimize: Encountered beta<0, resetting CG.
	FillingsUpdate:  mu: +0.441391815  nElectrons: 762.000000
LCAOMinimize: Iter:   5  F: -3050.8076983442983874  |grad|_K:  1.607e-04  alpha:  8.095e-02  linmin:  5.705e-03  cgtest: -1.859e-02  t[s]:    405.76
	FillingsUpdate:  mu: +0.440352148  nElectrons: 762.000000
LCAOMinimize: Iter:   6  F: -3050.8140686660321990  |grad|_K:  1.242e-04  alpha:  1.215e-01  linmin:  3.857e-03  cgtest:  1.185e-02  t[s]:    462.62
	FillingsUpdate:  mu: +0.442159846  nElectrons: 762.000000
LCAOMinimize: Iter:   7  F: -3050.8183238048832209  |grad|_K:  8.996e-05  alpha:  1.360e-01  linmin: -1.911e-03  cgtest:  2.212e-02  t[s]:    520.10
	FillingsUpdate:  mu: +0.442112500  nElectrons: 762.000000
LCAOMinimize: Iter:   8  F: -3050.8200950513023599  |grad|_K:  4.974e-05  alpha:  1.062e-01  linmin: -1.180e-04  cgtest: -2.593e-02  t[s]:    576.98
	FillingsUpdate:  mu: +0.441694152  nElectrons: 762.000000
LCAOMinimize: Iter:   9  F: -3050.8209018388083678  |grad|_K:  3.221e-05  alpha:  1.594e-01  linmin:  1.383e-03  cgtest:  4.971e-04  t[s]:    634.22
	FillingsUpdate:  mu: +0.441130406  nElectrons: 762.000000
LCAOMinimize: Iter:  10  F: -3050.8212242431791310  |grad|_K:  1.691e-05  alpha:  1.522e-01  linmin:  1.115e-03  cgtest:  9.071e-03  t[s]:    691.90
	FillingsUpdate:  mu: +0.441132379  nElectrons: 762.000000
LCAOMinimize: Iter:  11  F: -3050.8213072348253263  |grad|_K:  1.118e-05  alpha:  1.420e-01  linmin:  2.935e-04  cgtest:  3.130e-03  t[s]:    750.70
	FillingsUpdate:  mu: +0.441205803  nElectrons: 762.000000
LCAOMinimize: Iter:  12  F: -3050.8213434668518858  |grad|_K:  6.953e-06  alpha:  1.416e-01  linmin: -6.622e-05  cgtest:  1.694e-03  t[s]:    811.24
	FillingsUpdate:  mu: +0.441297121  nElectrons: 762.000000
LCAOMinimize: Iter:  13  F: -3050.8213546900092297  |grad|_K:  4.640e-06  alpha:  1.134e-01  linmin: -1.232e-05  cgtest: -5.621e-04  t[s]:    873.00
	FillingsUpdate:  mu: +0.441298372  nElectrons: 762.000000
LCAOMinimize: Iter:  14  F: -3050.8213590595178175  |grad|_K:  2.314e-06  alpha:  9.911e-02  linmin:  7.549e-06  cgtest:  2.055e-04  t[s]:    932.26
	FillingsUpdate:  mu: +0.441307342  nElectrons: 762.000000
LCAOMinimize: Iter:  15  F: -3050.8213606548761163  |grad|_K:  1.192e-06  alpha:  1.454e-01  linmin: -6.009e-06  cgtest: -2.165e-05  t[s]:    990.44
	FillingsUpdate:  mu: +0.441300176  nElectrons: 762.000000
LCAOMinimize: Iter:  16  F: -3050.8213611795936231  |grad|_K:  1.141e-06  alpha:  1.803e-01  linmin: -3.252e-05  cgtest:  1.460e-04  t[s]:   1048.15
	FillingsUpdate:  mu: +0.441296885  nElectrons: 762.000000
LCAOMinimize: Iter:  17  F: -3050.8213615398653928  |grad|_K:  6.199e-07  alpha:  1.351e-01  linmin: -2.384e-05  cgtest: -3.861e-04  t[s]:   1105.72
LCAOMinimize: Converged (|Delta F|<1.000000e-06 for 2 iters).


---- Citations for features of the code used in this run ----

   Software package:
      R. Sundararaman, K. Letchworth-Weaver, K.A. Schwarz, D. Gunceler, Y. Ozhabes and T.A. Arias, 'JDFTx: software for joint density-functional theory', SoftwareX 6, 278 (2017)

   gga-PBEsol exchange-correlation functional:
      J.P. Perdew et al., Phys. Rev. Lett. 100, 136406 (2008)

   Pseudopotentials:
      KF Garrity, JW Bennett, KM Rabe and D Vanderbilt, Comput. Mater. Sci. 81, 446 (2014)

This list may not be complete. Please suggest additional citations or
report any other bugs at https://github.com/shankar1729/jdftx/issues

Initialization completed successfully at t[s]:   1120.49


-------- Electronic minimization -----------
Will mix electronic density at each iteration.
	FillingsUpdate:  mu: +0.441296885  nElectrons: 762.000000
	FillingsUpdate:  mu: +0.424873513  nElectrons: 762.000000
SCF: Cycle:  0   F: -3052.287939166046272   dF: -1.467e+00   |Residual|: 1.433e+00   |deigs|: 1.295e-02  t[s]:   1293.04
	FillingsUpdate:  mu: +0.387149314  nElectrons: 762.000000
SCF: Cycle:  1   F: -3053.256698162506837   dF: -9.688e-01   |Residual|: 5.975e-01   |deigs|: 3.208e-02  t[s]:   1431.43
	FillingsUpdate:  mu: +0.400152793  nElectrons: 762.000000
SCF: Cycle:  2   F: -3054.024318672705249   dF: -7.676e-01   |Residual|: 2.733e-01   |deigs|: 1.508e-02  t[s]:   1571.57
	FillingsUpdate:  mu: +0.396159345  nElectrons: 762.000000
SCF: Cycle:  3   F: -3054.050079308346994   dF: -2.576e-02   |Residual|: 1.697e-01   |deigs|: 3.759e-03  t[s]:   1712.53
	FillingsUpdate:  mu: +0.395669970  nElectrons: 762.000000
SCF: Cycle:  4   F: -3054.093539321859680   dF: -4.346e-02   |Residual|: 5.787e-02   |deigs|: 2.584e-03  t[s]:   1854.92
	FillingsUpdate:  mu: +0.395405397  nElectrons: 762.000000
SCF: Cycle:  5   F: -3054.098431521456405   dF: -4.892e-03   |Residual|: 2.942e-02   |deigs|: 4.676e-04  t[s]:   1981.75
	FillingsUpdate:  mu: +0.395400179  nElectrons: 762.000000
SCF: Cycle:  6   F: -3054.098982602947217   dF: -5.511e-04   |Residual|: 1.949e-02   |deigs|: 2.258e-04  t[s]:   2109.26
	FillingsUpdate:  mu: +0.395370849  nElectrons: 762.000000
SCF: Cycle:  7   F: -3054.099774803721630   dF: -7.922e-04   |Residual|: 6.087e-03   |deigs|: 1.202e-04  t[s]:   2200.38
	FillingsUpdate:  mu: +0.395338008  nElectrons: 762.000000
SCF: Cycle:  8   F: -3054.099835574554618   dF: -6.077e-05   |Residual|: 3.057e-03   |deigs|: 8.445e-05  t[s]:   2290.39
	FillingsUpdate:  mu: +0.395298970  nElectrons: 762.000000
SCF: Cycle:  9   F: -3054.099848463163653   dF: -1.289e-05   |Residual|: 1.638e-03   |deigs|: 6.562e-05  t[s]:   2381.17
	FillingsUpdate:  mu: +0.395299059  nElectrons: 762.000000
SCF: Cycle: 10   F: -3054.099852522318088   dF: -4.059e-06   |Residual|: 8.563e-04   |deigs|: 1.603e-05  t[s]:   2474.62
	FillingsUpdate:  mu: +0.395301378  nElectrons: 762.000000
SCF: Cycle: 11   F: -3054.099853424004323   dF: -9.017e-07   |Residual|: 3.388e-04   |deigs|: 4.303e-06  t[s]:   2567.56
	FillingsUpdate:  mu: +0.395301234  nElectrons: 762.000000
SCF: Cycle: 12   F: -3054.099853759370944   dF: -3.354e-07   |Residual|: 1.899e-04   |deigs|: 2.213e-06  t[s]:   2659.44
	FillingsUpdate:  mu: +0.395299846  nElectrons: 762.000000
SCF: Cycle: 13   F: -3054.099853870162406   dF: -1.108e-07   |Residual|: 1.306e-04   |deigs|: 1.604e-06  t[s]:   2749.39
	FillingsUpdate:  mu: +0.395300199  nElectrons: 762.000000
SCF: Cycle: 14   F: -3054.099853944708229   dF: -7.455e-08   |Residual|: 1.022e-04   |deigs|: 1.101e-06  t[s]:   2839.56
	FillingsUpdate:  mu: +0.395299378  nElectrons: 762.000000
SCF: Cycle: 15   F: -3054.099854001973199   dF: -5.726e-08   |Residual|: 4.857e-05   |deigs|: 9.228e-07  t[s]:   2932.18
	FillingsUpdate:  mu: +0.395299510  nElectrons: 762.000000
SCF: Cycle: 16   F: -3054.099854029787821   dF: -2.781e-08   |Residual|: 2.583e-05   |deigs|: 3.532e-07  t[s]:   3022.85
	FillingsUpdate:  mu: +0.395299276  nElectrons: 762.000000
SCF: Cycle: 17   F: -3054.099854045222855   dF: -1.544e-08   |Residual|: 2.173e-05   |deigs|: 2.385e-07  t[s]:   3115.64
	FillingsUpdate:  mu: +0.395299330  nElectrons: 762.000000
SCF: Cycle: 18   F: -3054.099854054391017   dF: -9.168e-09   |Residual|: 1.395e-05   |deigs|: 1.339e-07  t[s]:   3204.90
	FillingsUpdate:  mu: +0.395299322  nElectrons: 762.000000
SCF: Cycle: 19   F: -3054.099854058722485   dF: -4.331e-09   |Residual|: 8.131e-06   |deigs|: 7.897e-08  t[s]:   3291.64
SCF: Converged (|Delta E|<1.000000e-08 for 2 iters).

Setting wave functions to eigenvectors of Hamiltonian

# Ionic positions in lattice coordinates:
ion Bi   0.249360000000000   0.066250000000000   0.308860000000000 1
ion Bi   0.250360000000000   0.572680000000000   0.309400000000000 1
ion Bi   0.754480000000000   0.079240000000000   0.314880000000000 1
ion Bi   0.757440000000000   0.559580000000000   0.317530000000000 1
ion Bi   0.035260000000000   0.126480000000000   0.561260000000000 1
ion Bi   0.010460000000000   0.631640000000000   0.535700000000000 1
ion Bi   0.519390000000000   0.120970000000000   0.534790000000000 1
ion Bi   0.516660000000000   0.645210000000000   0.536900000000000 1
ion Bi   0.265030000000000   0.175540000000000   0.818100000000000 1
ion Bi   0.238610000000000   0.699740000000000   0.815630000000000 1
ion Bi   0.761880000000000   0.190680000000000   0.810700000000000 1
ion Bi   0.757520000000000   0.679910000000000   0.804290000000000 1
ion Bi   0.454850000000000   0.110800000000000   0.055420000000000 1
ion Bi   0.476890000000000   0.608730000000000   0.041430000000000 1
ion Bi   0.974440000000000   0.090260000000000   0.031160000000000 1
ion Bi   0.971720000000000   0.605510000000000   0.045350000000000 1
ion Bi   0.253540000000000   0.304090000000000   0.186110000000000 1
ion Bi   0.243670000000000   0.814700000000000   0.172160000000000 1
ion Bi   0.733470000000000   0.332720000000000   0.191910000000000 1
ion Bi   0.751160000000000   0.827890000000000   0.181880000000000 1
ion Bi   0.248640000000000   0.425030000000000   0.684710000000000 1
ion Bi   0.254260000000000   0.929250000000000   0.684190000000000 1
ion Bi   0.747120000000000   0.435870000000000   0.686330000000000 1
ion Bi   0.780560000000000   0.929680000000000   0.675980000000000 1
ion Bi   0.485910000000000   0.361820000000000   0.467050000000000 1
ion Bi   0.483420000000000   0.855300000000000   0.450450000000000 1
ion Bi   0.967990000000000   0.364610000000000   0.457060000000000 1
ion Bi   0.977660000000000   0.869150000000000   0.451230000000000 1
ion Bi   0.028210000000000   0.379180000000000   0.957470000000000 1
ion Bi   0.017860000000000   0.897910000000000   0.957530000000000 1
ion Bi   0.519960000000000   0.394630000000000   0.954740000000000 1
ion Bi   0.540750000000000   0.888250000000000   0.948730000000000 1
ion O   0.388310000000000   0.091000000000000   0.782110000000000 1
ion O   0.405820000000000   0.585710000000000   0.746620000000000 1
ion O   0.878970000000000   0.087290000000000   0.786620000000000 1
ion O   0.902340000000000   0.611070000000000   0.785900000000000 1
ion O   0.383110000000000   0.730470000000000   0.078570000000000 1
ion O   0.850920000000000   0.236330000000000   0.076000000000000 1
ion O   0.877000000000000   0.757770000000000   0.084950000000000 1
ion O   0.337150000000000   0.432010000000000   0.962630000000000 1
ion O   0.344780000000000   0.934650000000000   0.969900000000000 1
ion O   0.848710000000000   0.422720000000000   0.958410000000000 1
ion O   0.836060000000000   0.915310000000000   0.986640000000000 1
ion O   0.380780000000000   0.481660000000000   0.420020000000000 1
ion O   0.361620000000000   0.967190000000000   0.409910000000000 1
ion O   0.873360000000000   0.476170000000000   0.418840000000000 1
ion O   0.868680000000000   0.991770000000000   0.427850000000000 1
ion O   0.110900000000000   0.157300000000000   0.288700000000000 1
ion O   0.123770000000000   0.668750000000000   0.288490000000000 1
ion O   0.606190000000000   0.145990000000000   0.268390000000000 1
ion O   0.605810000000000   0.642470000000000   0.270610000000000 1
ion O   0.123680000000000   0.259540000000000   0.906110000000000 1
ion O   0.140880000000000   0.745230000000000   0.913650000000000 1
ion O   0.631470000000000   0.263820000000000   0.925520000000000 1
ion O   0.624020000000000   0.766050000000000   0.900460000000000 1
ion O   0.344990000000000   0.184700000000000   0.522740000000000 1
ion O   0.339880000000000   0.686270000000000   0.533280000000000 1
ion O   0.817480000000000   0.194830000000000   0.546990000000000 1
ion O   0.848240000000000   0.694250000000000   0.515500000000000 1
ion O   0.100630000000000   0.405590000000000   0.214590000000000 1
ion O   0.090650000000000   0.896640000000000   0.206570000000000 1
ion O   0.608210000000000   0.400310000000000   0.222880000000000 1
ion O   0.616690000000000   0.885440000000000   0.244150000000000 1
ion O   0.162190000000000   0.287880000000000   0.478060000000000 1
ion O   0.162240000000000   0.788450000000000   0.466850000000000 1
ion O   0.643390000000000   0.326690000000000   0.472190000000000 1
ion O   0.657850000000000   0.818510000000000   0.481110000000000 1
ion O   0.382410000000000   0.334380000000000   0.705240000000000 1
ion O   0.378980000000000   0.853510000000000   0.721640000000000 1
ion O   0.882220000000000   0.341120000000000   0.728830000000000 1
ion O   0.903970000000000   0.825930000000000   0.721780000000000 1
ion O   0.170380000000000   0.075860000000000   0.036430000000000 1
ion O   0.156180000000000   0.552270000000000   0.001850000000000 1
ion O   0.670090000000000   0.070690000000000   0.028800000000000 1
ion O   0.654520000000000   0.571560000000000   0.021980000000000 1
ion O   0.113240000000000   0.023280000000000   0.582070000000000 1
ion O   0.113320000000000   0.511620000000000   0.578750000000000 1
ion O   0.629950000000000   0.028280000000000   0.593010000000000 1
ion O   0.629990000000000   0.519090000000000   0.573010000000000 1

# Forces in Lattice coordinates:
force Bi  -0.726460101485448   0.544486805553825   0.269207312887233 1
force Bi  -0.584567223967231   0.079750770413716   0.063836602023538 1
force Bi  -0.701790970959039   0.925522596671029  -0.014340085265508 1
force Bi  -1.449000519713959   1.581940099565116   0.009318430195663 1
force Bi  -0.591161004925939   1.724145836249799  -0.372860437960943 1
force Bi   0.422768734586284   0.436332764306439  -0.069013758681824 1
force Bi   0.019194099463220   0.261756382323446  -0.159348855024183 1
force Bi   0.178088299764884  -0.481917036082575  -0.180920760862219 1
force Bi   0.084099551367926   0.570289573378430  -0.338619538655296 1
force Bi   5.893371576555344  -6.280738414575934  -1.986378494722711 1
force Bi  -0.035571762935753  -0.477015182626493   0.384443527746117 1
force Bi   0.145250291618551   0.007214500083491   0.002108138128421 1
force Bi   1.089723289936440  -0.745445975423891  -0.446260510481158 1
force Bi   0.142535909927958   0.087917353288343  -0.312386183870316 1
force Bi  -0.189681380055166   1.165581329547627   0.039652080450098 1
force Bi   0.404125621468574  -0.749342924614673  -0.211026893483715 1
force Bi  -0.988178314304448   0.700254191590290   0.151859584813101 1
force Bi  -0.145816280469810   0.531745135434619   0.410339224953584 1
force Bi   0.870732537914014  -1.465845015705745  -0.431213386212066 1
force Bi  -0.050457645650146  -1.516171538347971   0.649441990575001 1
force Bi   0.843706385817137  -0.298980886905804  -0.156451253952324 1
force Bi   0.552518320389684  -0.394880670490109  -0.056255686996263 1
force Bi   0.543486579412959  -0.755767556707072   0.235638471702457 1
force Bi  -0.592865067367861   0.010510777401921   0.027762560732453 1
force Bi  -1.072049055500925   0.362058751946682  -0.002015541670318 1
force Bi  -0.216820365818457   0.112523947538877   0.344138243052369 1
force Bi   0.403070302599790  -0.424433481237575   0.202964772926327 1
force Bi   0.360802306262888  -0.886402632304943  -0.005714737203443 1
force Bi  -0.283578642262957   0.226443471915237   0.251069712688196 1
force Bi   0.241546249432030  -0.841484906379234  -0.003987623178818 1
force Bi  -0.283828244539256   0.173704554566417  -0.154198481555735 1
force Bi  -0.334103763960587   0.332279399320690   0.238550020382455 1
force O   0.090580760809712  -0.262187756130387  -0.002027929086211 1
force O   0.019528926438934  -0.584353178760543   0.458927616265075 1
force O   0.347967686374092  -0.168915779218197   0.097499393416721 1
force O  -0.057700676129240  -0.192392009368083   0.258669591073464 1
force O  -0.344170718863441   0.630519342839672  -0.174190514376981 1
force O   0.599549407488053   0.010190667943940  -0.207788522059657 1
force O   0.552259695866039  -0.744560867491950  -0.551414906384438 1
force O   0.475281311231874  -0.175864935835817   0.409226906784024 1
force O   0.106596310507746   0.225547012413902   0.456214292862785 1
force O   0.011132527633065   0.868211156263281   0.711284021221176 1
force O   0.381708165471907   1.124907105810253  -0.287561971889279 1
force O  -0.453067883505906   0.589876782963691   0.192096743096176 1
force O  -0.038341897573448   0.628076700096496   0.320272501296994 1
force O  -0.098998709913296   0.196099572736784   0.127415468988326 1
force O   0.329039682461109  -0.164267856290691   0.194908548347236 1
force O   0.058981350625542  -0.592638286067170  -0.135896545690876 1
force O   0.005880474275113  -1.084254829371678  -0.470012095672528 1
force O  -0.388396783969776   0.323830048317307   0.325490189908247 1
force O  -0.115054143662961   0.298751565136994   0.092362944751939 1
force O   0.054309055850790  -0.461326431962452   0.385213247794756 1
force O  -5.229947494814440   5.366599089987368   2.175246466776013 1
force O  -0.487326813961004   0.237258211873760   0.329834285429565 1
force O  -0.064143376894358  -0.074464885917619   0.329555225200457 1
force O   0.360977093934674  -0.553149887268655  -0.510643268175899 1
force O   0.709085677709401  -0.206961469616025  -0.707519333148551 1
force O   0.328225258622788  -0.238655542751472  -0.831522491553871 1
force O   0.403405230621035  -0.679299406358316  -0.529038560273995 1
force O   0.153142346259248  -0.172918736019514   0.226584155167794 1
force O   0.322133755441305  -0.009589614212480   0.180827763902084 1
force O  -0.593735003295004   0.989800352507998  -0.447902873818129 1
force O  -0.859404271492500   1.382509080258317  -0.796070004033693 1
force O  -0.290482950456065   0.952049910238664   0.289841180866193 1
force O  -0.647154015494096   1.181545502069732   0.655507000811952 1
force O   0.424658328165366  -0.528268791876963   0.717956910494869 1
force O  -0.256927067709572  -0.049031458158848   0.659539960778857 1
force O   0.180165324100844   0.374953565173475   0.216289380433450 1
force O   0.367140704614478  -0.348862798570433  -0.101989051385007 1
force O   0.186785202794894   0.198734000063181  -0.329081853459468 1
force O  -0.186079766950118   0.662249253557865   0.026015482177150 1
force O  -0.207088603168308  -0.108373803050609  -0.285880842834022 1
force O  -0.701583079075815   0.715161413062139  -0.160058480927080 1
force O  -0.297245946411341  -0.714260150946818  -0.246329150464819 1
force O  -0.134190742244249  -0.386853689405140  -0.401806445754054 1
force O   0.577786273144588  -1.258972421788066  -0.077104418283694 1
force O   0.128548224523590  -0.467779774061627  -0.391434818304863 1
force O   0.046578471260811  -0.843200268512415  -0.324175905852854 1
force O   0.282654176275694  -0.408503389577475  -0.249399029413441 1

# Energy components:
   Eewald =    -2377.7646192336351305
       EH =      685.5745338511541149
     Eloc =    -2234.6283783938015404
      Enl =      865.9358604567003113
      Exc =    -1196.3577152572918294
 Exc_core =      661.9337895257876880
       KE =      541.3550457187177471
-------------------------------------
     Etot =    -3053.9514833323682979
       TS =        0.1483707263541347
-------------------------------------
        F =    -3054.0998540587224852

IonicMinimize: Iter:   0  F: -3054.099854058722485  |grad|_K:  3.606e-02  t[s]:   3341.63

#--- Lowdin population analysis ---
# oxidation-state Bi +1.109 +1.247 +1.279 +1.218 +1.296 +1.266 +1.264 +1.304 +1.095 +1.381 +1.430 +1.324 +1.050 +1.290 +1.151 +1.158 +1.090 +1.311 +1.308 +1.361 +1.294 +1.215 +1.219 +1.254 +1.329 +1.258 +1.267 +1.198 +1.315 +1.223 +0.977 +1.212
# oxidation-state O -0.749 -0.767 -0.772 -0.771 -0.808 -0.783 -0.807 -0.759 -0.781 -0.754 -0.768 -0.802 -0.783 -0.793 -0.791 -0.743 -0.739 -0.750 -0.753 -0.796 -0.787 -0.782 -0.812 -0.783 -0.735 -0.781 -0.770 -0.768 -0.778 -0.765 -0.755 -0.747 -0.744 -0.792 -0.768 -0.753 -0.753 -0.740 -0.770 -0.792 -0.779 -0.752 -0.764 -0.803 -0.790 -0.797 -0.777


-------- Electronic minimization -----------
Will mix electronic density at each iteration.
	FillingsUpdate:  mu: +0.395299322  nElectrons: 762.000000
	FillingsUpdate:  mu: +0.395118791  nElectrons: 762.000000
SCF: Cycle:  0   F: -3054.022386554584955   dF: -1.108e-01   |Residual|: 2.523e-01   |deigs|: 9.824e-04  t[s]:   3536.87
	FillingsUpdate:  mu: +0.396198343  nElectrons: 762.000000
SCF: Cycle:  1   F: -3054.136120244785161   dF: -1.137e-01   |Residual|: 1.827e-01   |deigs|: 2.408e-03  t[s]:   3676.11
	FillingsUpdate:  mu: +0.394992960  nElectrons: 762.000000
SCF: Cycle:  2   F: -3054.148824693581446   dF: -1.270e-02   |Residual|: 9.904e-02   |deigs|: 1.129e-03  t[s]:   3817.81
	FillingsUpdate:  mu: +0.395623135  nElectrons: 762.000000
SCF: Cycle:  3   F: -3054.172606673857899   dF: -2.378e-02   |Residual|: 5.888e-02   |deigs|: 8.358e-04  t[s]:   3958.61
	FillingsUpdate:  mu: +0.395402063  nElectrons: 762.000000
SCF: Cycle:  4   F: -3054.180195919533617   dF: -7.589e-03   |Residual|: 2.103e-02   |deigs|: 4.175e-04  t[s]:   4100.34
	FillingsUpdate:  mu: +0.395365383  nElectrons: 762.000000
SCF: Cycle:  5   F: -3054.180416392633560   dF: -2.205e-04   |Residual|: 1.540e-02   |deigs|: 1.717e-04  t[s]:   4193.15
	FillingsUpdate:  mu: +0.395337361  nElectrons: 762.000000
SCF: Cycle:  6   F: -3054.180964601664982   dF: -5.482e-04   |Residual|: 5.720e-03   |deigs|: 9.591e-05  t[s]:   4283.89
	FillingsUpdate:  mu: +0.395362939  nElectrons: 762.000000
SCF: Cycle:  7   F: -3054.181038710358735   dF: -7.411e-05   |Residual|: 2.475e-03   |deigs|: 4.578e-05  t[s]:   4374.87
	FillingsUpdate:  mu: +0.395355947  nElectrons: 762.000000
SCF: Cycle:  8   F: -3054.181054237536500   dF: -1.553e-05   |Residual|: 1.846e-03   |deigs|: 2.887e-05  t[s]:   4468.31
	FillingsUpdate:  mu: +0.395352375  nElectrons: 762.000000
SCF: Cycle:  9   F: -3054.181060467413772   dF: -6.230e-06   |Residual|: 9.214e-04   |deigs|: 1.471e-05  t[s]:   4561.11
	FillingsUpdate:  mu: +0.395345914  nElectrons: 762.000000
SCF: Cycle: 10   F: -3054.181061855965254   dF: -1.389e-06   |Residual|: 4.150e-04   |deigs|: 8.038e-06  t[s]:   4653.91
	FillingsUpdate:  mu: +0.395347370  nElectrons: 762.000000
SCF: Cycle: 11   F: -3054.181062171597205   dF: -3.156e-07   |Residual|: 1.500e-04   |deigs|: 2.379e-06  t[s]:   4746.55
	FillingsUpdate:  mu: +0.395347750  nElectrons: 762.000000
SCF: Cycle: 12   F: -3054.181062213887799   dF: -4.229e-08   |Residual|: 1.037e-04   |deigs|: 1.047e-06  t[s]:   4839.19
	FillingsUpdate:  mu: +0.395347207  nElectrons: 762.000000
SCF: Cycle: 13   F: -3054.181062228030441   dF: -1.414e-08   |Residual|: 7.148e-05   |deigs|: 7.150e-07  t[s]:   4931.21
	FillingsUpdate:  mu: +0.395346917  nElectrons: 762.000000
SCF: Cycle: 14   F: -3054.181062238651521   dF: -1.062e-08   |Residual|: 3.804e-05   |deigs|: 4.813e-07  t[s]:   5024.52
	FillingsUpdate:  mu: +0.395347127  nElectrons: 762.000000
SCF: Cycle: 15   F: -3054.181062243935685   dF: -5.284e-09   |Residual|: 1.381e-05   |deigs|: 2.703e-07  t[s]:   5117.35
	FillingsUpdate:  mu: +0.395347115  nElectrons: 762.000000
SCF: Cycle: 16   F: -3054.181062245378143   dF: -1.442e-09   |Residual|: 9.554e-06   |deigs|: 8.708e-08  t[s]:   5206.28
SCF: Converged (|Delta E|<1.000000e-08 for 2 iters).

Setting wave functions to eigenvectors of Hamiltonian

# Ionic positions in lattice coordinates:
ion Bi   0.248946533753344   0.066340581881178   0.309219881930013 1
ion Bi   0.249948386502709   0.572588020264598   0.309485373350246 1
ion Bi   0.754168537586162   0.079511309036576   0.314860878550047 1
ion Bi   0.756724481921367   0.559988781508496   0.317542501683897 1
ion Bi   0.035205591347221   0.127143073531092   0.560761662636435 1
ion Bi   0.010866450868708   0.631933850795308   0.535607799032636 1
ion Bi   0.519461722062565   0.121094681952330   0.534577052705686 1
ion Bi   0.516684643141697   0.645027538186064   0.536658218636750 1
ion Bi   0.265217303327573   0.175820913054251   0.817647430704329 1
ion Bi   0.241553908555261   0.698148118271793   0.812974955147202 1
ion Bi   0.761748859570231   0.190452751836792   0.811213912315093 1
ion Bi   0.757628226354629   0.679945333535473   0.804292864053357 1
ion Bi   0.455485917151749   0.110697015835987   0.054823552494158 1
ion Bi   0.477014001851748   0.608801863311108   0.041012495494894 1
ion Bi   0.974557366724857   0.090754499175147   0.031213047130789 1
ion Bi   0.971851713914249   0.605254275278865   0.045067977301102 1
ion Bi   0.252968683332954   0.304194620374426   0.186313029192653 1
ion Bi   0.243680019705385   0.814912560184284   0.172708525775954 1
ion Bi   0.733786530741774   0.332237380684394   0.191333665219558 1
ion Bi   0.750789140164361   0.827181409862529   0.182748122276998 1
ion Bi   0.249193596957660   0.425078246946635   0.684500925781606 1
ion Bi   0.254578701195669   0.929190017429661   0.684114852097917 1
ion Bi   0.747352614041602   0.435642002668804   0.686645012168014 1
ion Bi   0.780127049933495   0.929554339428058   0.676017155014732 1
ion Bi   0.485202647595948   0.361750567555682   0.467047352140387 1
ion Bi   0.483285590874817   0.855304064263950   0.450910038291812 1
ion Bi   0.968192474312348   0.364503517729896   0.457331338897326 1
ion Bi   0.977729730854693   0.868821682394548   0.451222407613936 1
ion Bi   0.028051660566166   0.379221774872134   0.957805638322684 1
ion Bi   0.017852066151808   0.897576090265391   0.957524716159376 1
ion Bi   0.519789865809423   0.394647457344168   0.954533936947846 1
ion Bi   0.540577868390617   0.888329340663444   0.949048903886992 1
ion O   0.388318775438121   0.090899358284141   0.782107335582758 1
ion O   0.405705680280483   0.585445502418685   0.747233471406399 1
ion O   0.879188276853750   0.087288936893572   0.786750368690709 1
ion O   0.902255278555453   0.610968820798333   0.786245796693433 1
ion O   0.382996140902725   0.730684329705485   0.078337214614786 1
ion O   0.851362414403181   0.236466725577183   0.075722305867413 1
ion O   0.877241522372865   0.757549089886970   0.084212997963504 1
ion O   0.337460216706085   0.432033770519179   0.963177038996852 1
ion O   0.344907917942384   0.934777267117896   0.970509844645064 1
ion O   0.848909326402126   0.423121906951400   0.959360783372785 1
ion O   0.836587908566258   0.915911589578728   0.986255676755970 1
ion O   0.380577243614094   0.481831656224480   0.420276812154828 1
ion O   0.361730133456128   0.967470540174775   0.410338138169117 1
ion O   0.873330492813032   0.476238454031157   0.419010355986769 1
ion O   0.868885403812232   0.991766907802515   0.428110570551839 1
ion O   0.110812820938434   0.157040377074072   0.288518400214298 1
ion O   0.123535596850708   0.668252517365857   0.287861804958735 1
ion O   0.605976147793308   0.146053499861640   0.268825112388003 1
ion O   0.605791306242971   0.642582144228445   0.270733503061126 1
ion O   0.123618301557871   0.259339758480460   0.906624941160718 1
ion O   0.138221890888112   0.746547466755863   0.916557587486040 1
ion O   0.631164455845670   0.263821891047191   0.925960918919455 1
ion O   0.623956512485136   0.766001654761126   0.900900545913846 1
ion O   0.345133231301498   0.184525034018982   0.522057495337800 1
ion O   0.340355022349037   0.686330941152044   0.532334341118981 1
ion O   0.817668427979643   0.194792506387741   0.545878592406532 1
ion O   0.848386606478156   0.694026340236706   0.514792907286821 1
ion O   0.100704360602275   0.405544200713868   0.214892909723793 1
ion O   0.090884389134109   0.896706547152931   0.206811749483715 1
ion O   0.607992021044793   0.400634670698812   0.222281357230651 1
ion O   0.616363437158009   0.885886844307721   0.243085979942746 1
ion O   0.162186348108043   0.288254070465955   0.478447462171470 1
ion O   0.162025018860538   0.788851121936788   0.467726229067588 1
ion O   0.643585462214702   0.326540501254801   0.473149702684354 1
ion O   0.657650576148308   0.818430910318337   0.481991619719975 1
ion O   0.382624824886572   0.334592199359554   0.705529149222213 1
ion O   0.379172734245832   0.853430373466325   0.721503722636692 1
ion O   0.882400886812159   0.341252586930359   0.728390179242844 1
ion O   0.903979192500312   0.826193733892836   0.721814819783720 1
ion O   0.170204100674141   0.075764582748788   0.036047923835641 1
ion O   0.155822375076898   0.552444578009088   0.001636104184848 1
ion O   0.669714512102760   0.070295994435432   0.028470790570406 1
ion O   0.654336307292838   0.571352517789189   0.021442971980616 1
ion O   0.113387005435222   0.022828054694027   0.581966984659607 1
ion O   0.113311384899412   0.511433134824171   0.578226835207310 1
ion O   0.629798548985383   0.027902375134568   0.592576736773391 1
ion O   0.630107575725445   0.518964334408760   0.572676687219413 1

# Forces in Lattice coordinates:
force Bi  -0.708068579682974   0.533757948374234   0.255295587941260 1
force Bi  -0.593891670296745   0.080931024775786   0.049621556499930 1
force Bi  -0.674809881727147   0.882222609168856  -0.003404802946566 1
force Bi  -1.412032738022647   1.516271011668618   0.018437616933737 1
force Bi  -0.525296787816965   1.580353589733265  -0.361159607029974 1
force Bi   0.406327838407817   0.441344262533903  -0.063459695238814 1
force Bi   0.013888202700699   0.266339933177498  -0.151409449505979 1
force Bi   0.193228463855150  -0.491554885278537  -0.171179687704730 1
force Bi   0.083765817151674   0.532370548672938  -0.325328918121434 1
force Bi   3.670979589306266  -4.028886174340395  -1.098278805286104 1
force Bi  -0.023990362291849  -0.470553418816316   0.355266202156626 1
force Bi   0.161420142980584  -0.000180370296983   0.005386808802045 1
force Bi   1.058268073590186  -0.744496379677770  -0.436687548138309 1
force Bi   0.146327005890139   0.083286242066176  -0.301902265182089 1
force Bi  -0.180112241781765   1.133221296081673   0.038559670778604 1
force Bi   0.463166549026805  -0.673363750842594  -0.234214815247852 1
force Bi  -0.979790302161587   0.693148392934329   0.145322666727452 1
force Bi  -0.167059283940793   0.466969162582732   0.329235767559537 1
force Bi   0.772155312288352  -1.337662047711750  -0.413470347396677 1
force Bi  -0.058531492482786  -1.390292107263073   0.579122156892928 1
force Bi   0.817548316132902  -0.302823635157218  -0.152752290638917 1
force Bi   0.526215784500561  -0.420722046989905  -0.044188364595569 1
force Bi   0.542964699528717  -0.752230356915889   0.215288307086421 1
force Bi  -0.566330874576178   0.021460317336665   0.025465749175721 1
force Bi  -0.966530391175260   0.303558879689086  -0.016254732963443 1
force Bi  -0.188567742150215   0.130624106050698   0.323244155910372 1
force Bi   0.375234992446638  -0.407958623777716   0.203432751592421 1
force Bi   0.359466741301838  -0.858082184539612   0.002413156574661 1
force Bi  -0.282120665369547   0.230813260804268   0.236744351910756 1
force Bi   0.240027948629962  -0.856695686874865  -0.001913130005455 1
force Bi  -0.271067113014366   0.172168770418519  -0.136894196189533 1
force Bi  -0.324595169699117   0.337145671545152   0.251024277395599 1
force O   0.093450392242653  -0.247715910011408  -0.002518097200351 1
force O  -0.004542114194521  -0.532935231301998   0.454060801967662 1
force O   0.342553360589224  -0.152258197976663   0.091109214128955 1
force O  -0.068801902981919  -0.194158546803205   0.241012072475994 1
force O  -0.324680382108287   0.602230631957361  -0.191031518535555 1
force O   0.587579883015014   0.008238298328592  -0.205414452954300 1
force O   0.519926359168268  -0.712318722759329  -0.545182475177494 1
force O   0.475260898218484  -0.178004377808202   0.408363983592317 1
force O   0.129091856827559   0.227296043177633   0.452481351712276 1
force O   0.021013849015749   0.825460003268021   0.702939263260143 1
force O   0.376944491233767   1.035396413759387  -0.212397951953876 1
force O  -0.444660286615403   0.580433199077109   0.200219172550496 1
force O  -0.036682151411758   0.635597625733200   0.327466961486229 1
force O  -0.107345752836620   0.209809211718430   0.128988338541897 1
force O   0.313966191971319  -0.155974596026776   0.196586610751614 1
force O   0.057666753747267  -0.579337352818477  -0.126294093123294 1
force O   0.007834550821978  -1.055203497002341  -0.439501498398505 1
force O  -0.373162228124311   0.311246056500929   0.316624464207071 1
force O  -0.103246041830352   0.296377861131702   0.089751177407038 1
force O   0.053906365018322  -0.455921816591770   0.386654074702030 1
force O  -3.085106148186151   3.188399604644399   1.360827835066964 1
force O  -0.471211950407399   0.220686315308811   0.331618777411020 1
force O  -0.059825224436233  -0.085488831899805   0.330043418870357 1
force O   0.356341499299722  -0.538887862826876  -0.502214619031372 1
force O   0.677326027319217  -0.193216386583567  -0.677952506204663 1
force O   0.328253094037643  -0.244783884691533  -0.811449870919226 1
force O   0.398102248050393  -0.668889962606033  -0.519469523133424 1
force O   0.161166960761294  -0.174013317600021   0.217547109725406 1
force O   0.318489639869759  -0.007965435381826   0.182975154134708 1
force O  -0.526619530323629   0.897639799251984  -0.426888218859694 1
force O  -0.823691617763797   1.318485238264719  -0.772494697836699 1
force O  -0.289205579920026   0.944817430120985   0.285917430239087 1
force O  -0.649616938439256   1.157325645109720   0.645922396550449 1
force O   0.356511896952943  -0.472337156713429   0.696568473674308 1
force O  -0.268802723491457  -0.038165585652803   0.629686133172520 1
force O   0.171374342497081   0.376089813034348   0.205795660896618 1
force O   0.381305470909965  -0.380044433083174  -0.099833299896190 1
force O   0.180193406263177   0.197427953325068  -0.320328769656237 1
force O  -0.192260882112552   0.646212557511998   0.015137024418341 1
force O  -0.227345304108705  -0.093209552668709  -0.292623018739861 1
force O  -0.687242855405556   0.689779455127732  -0.167537847976317 1
force O  -0.314293246279321  -0.682340249996140  -0.247293323357177 1
force O  -0.142069042531102  -0.372438508904773  -0.402228810661254 1
force O   0.516047016876480  -1.148014889500112  -0.093385683951638 1
force O   0.147405982338746  -0.448673817650544  -0.382904160311722 1
force O   0.046002220557865  -0.836791364336270  -0.327032473462207 1
force O   0.275147059789903  -0.396424100947276  -0.255341127844960 1

# Energy components:
   Eewald =    -2379.4755014465417844
       EH =      684.1207293324326884
     Eloc =    -2231.3567175618445617
      Enl =      865.8350156026531295
      Exc =    -1196.3111731277717809
 Exc_core =      661.9337892628570899
       KE =      541.2163705057529342
-------------------------------------
     Etot =    -3054.0374874324616030
       TS =        0.1435748129165334
-------------------------------------
        F =    -3054.1810622453781434

IonicMinimize: Iter:   1  F: -3054.181062245378143  |grad|_K:  2.733e-02  alpha:  3.065e-01  linmin: -9.736e-01  t[s]:   5255.96

#--- Lowdin population analysis ---
# oxidation-state Bi +1.116 +1.250 +1.279 +1.225 +1.294 +1.269 +1.266 +1.304 +1.095 +1.359 +1.425 +1.324 +1.055 +1.289 +1.158 +1.172 +1.091 +1.316 +1.307 +1.356 +1.294 +1.224 +1.223 +1.258 +1.326 +1.261 +1.269 +1.201 +1.315 +1.234 +0.983 +1.216
# oxidation-state O -0.751 -0.772 -0.774 -0.771 -0.807 -0.785 -0.807 -0.761 -0.780 -0.758 -0.769 -0.803 -0.784 -0.794 -0.791 -0.745 -0.743 -0.752 -0.755 -0.796 -0.786 -0.783 -0.813 -0.785 -0.744 -0.782 -0.771 -0.769 -0.779 -0.766 -0.757 -0.751 -0.747 -0.792 -0.771 -0.754 -0.754 -0.742 -0.771 -0.792 -0.780 -0.754 -0.766 -0.803 -0.792 -0.798 -0.778


-------- Electronic minimization -----------
Will mix electronic density at each iteration.
	FillingsUpdate:  mu: +0.395347115  nElectrons: 762.000000
	FillingsUpdate:  mu: +0.394976590  nElectrons: 762.000000
SCF: Cycle:  0   F: -3053.837025976943096   dF: -1.905e-01   |Residual|: 4.002e-01   |deigs|: 1.244e-03  t[s]:   5449.13
	FillingsUpdate:  mu: +0.396847685  nElectrons: 762.000000
SCF: Cycle:  1   F: -3054.157819230608766   dF: -3.208e-01   |Residual|: 2.947e-01   |deigs|: 3.979e-03  t[s]:   5589.53
	FillingsUpdate:  mu: +0.394885024  nElectrons: 762.000000
SCF: Cycle:  2   F: -3054.209284198009755   dF: -5.146e-02   |Residual|: 1.415e-01   |deigs|: 1.879e-03  t[s]:   5731.50
	FillingsUpdate:  mu: +0.396062485  nElectrons: 762.000000
SCF: Cycle:  3   F: -3054.263083820686461   dF: -5.380e-02   |Residual|: 8.360e-02   |deigs|: 1.296e-03  t[s]:   5871.85
	FillingsUpdate:  mu: +0.395512652  nElectrons: 762.000000
SCF: Cycle:  4   F: -3054.279023393178704   dF: -1.594e-02   |Residual|: 3.174e-02   |deigs|: 6.048e-04  t[s]:   5999.24
	FillingsUpdate:  mu: +0.395488826  nElectrons: 762.000000
SCF: Cycle:  5   F: -3054.279531312474774   dF: -5.079e-04   |Residual|: 2.522e-02   |deigs|: 2.995e-04  t[s]:   6126.32
	FillingsUpdate:  mu: +0.395480521  nElectrons: 762.000000
SCF: Cycle:  6   F: -3054.281084689159798   dF: -1.553e-03   |Residual|: 7.268e-03   |deigs|: 1.553e-04  t[s]:   6220.44
	FillingsUpdate:  mu: +0.395510478  nElectrons: 762.000000
SCF: Cycle:  7   F: -3054.281199769866362   dF: -1.151e-04   |Residual|: 4.163e-03   |deigs|: 6.740e-05  t[s]:   6311.10
	FillingsUpdate:  mu: +0.395497075  nElectrons: 762.000000
SCF: Cycle:  8   F: -3054.281247690908003   dF: -4.792e-05   |Residual|: 2.559e-03   |deigs|: 4.423e-05  t[s]:   6402.38
	FillingsUpdate:  mu: +0.395486544  nElectrons: 762.000000
SCF: Cycle:  9   F: -3054.281258974603134   dF: -1.128e-05   |Residual|: 1.328e-03   |deigs|: 2.190e-05  t[s]:   6494.03
	FillingsUpdate:  mu: +0.395480790  nElectrons: 762.000000
SCF: Cycle: 10   F: -3054.281262227727893   dF: -3.253e-06   |Residual|: 4.848e-04   |deigs|: 1.158e-05  t[s]:   6586.96
	FillingsUpdate:  mu: +0.395484767  nElectrons: 762.000000
SCF: Cycle: 11   F: -3054.281262599277852   dF: -3.715e-07   |Residual|: 2.396e-04   |deigs|: 3.711e-06  t[s]:   6681.58
	FillingsUpdate:  mu: +0.395484025  nElectrons: 762.000000
SCF: Cycle: 12   F: -3054.281262704085748   dF: -1.048e-07   |Residual|: 1.440e-04   |deigs|: 1.318e-06  t[s]:   6774.13
	FillingsUpdate:  mu: +0.395483598  nElectrons: 762.000000
SCF: Cycle: 13   F: -3054.281262727115973   dF: -2.303e-08   |Residual|: 8.873e-05   |deigs|: 8.461e-07  t[s]:   6867.54
	FillingsUpdate:  mu: +0.395483717  nElectrons: 762.000000
SCF: Cycle: 14   F: -3054.281262745476852   dF: -1.836e-08   |Residual|: 3.551e-05   |deigs|: 5.411e-07  t[s]:   6960.54
	FillingsUpdate:  mu: +0.395483659  nElectrons: 762.000000
SCF: Cycle: 15   F: -3054.281262749721463   dF: -4.245e-09   |Residual|: 1.873e-05   |deigs|: 2.173e-07  t[s]:   7054.11
	FillingsUpdate:  mu: +0.395483603  nElectrons: 762.000000
SCF: Cycle: 16   F: -3054.281262751417671   dF: -1.696e-09   |Residual|: 1.117e-05   |deigs|: 1.194e-07  t[s]:   7145.56
SCF: Converged (|Delta E|<1.000000e-08 for 2 iters).

Setting wave functions to eigenvectors of Hamiltonian

# Ionic positions in lattice coordinates:
ion Bi   0.247996889770596   0.066554326835629   0.310013827241745 1
ion Bi   0.248938246471500   0.572362138941389   0.309620223787396 1
ion Bi   0.753460084299810   0.080110039038731   0.314868548474989 1
ion Bi   0.755056894443820   0.560887195936371   0.317617035305478 1
ion Bi   0.035136456312974   0.128542315446366   0.559625076689435 1
ion Bi   0.011800007694398   0.632632977827392   0.535414051879273 1
ion Bi   0.519623007656686   0.121396809423703   0.534105726585696 1
ion Bi   0.516776664836446   0.644586399035524   0.536126639627988 1
ion Bi   0.265634566958252   0.176429688581220   0.816628270476852 1
ion Bi   0.244445605092829   0.696337150145542   0.810962984199391 1
ion Bi   0.761471101632659   0.189928584704028   0.812302104613331 1
ion Bi   0.757925057323006   0.680030552951293   0.804315712371293 1
ion Bi   0.456925525250994   0.110426534730061   0.053441516087349 1
ion Bi   0.477317561981069   0.608969266931506   0.040063593353952 1
ion Bi   0.974838207293580   0.091892294436801   0.031334710911864 1
ion Bi   0.972387352177458   0.604817321655977   0.044278763063805 1
ion Bi   0.251616913238633   0.304440033495448   0.186767329838944 1
ion Bi   0.243594690433819   0.815295465773770   0.173625386579876 1
ion Bi   0.734383118742558   0.331217734816145   0.190039814596699 1
ion Bi   0.749980565289651   0.825689541836745   0.184483405834472 1
ion Bi   0.250446380750518   0.425166249363570   0.684018115057624 1
ion Bi   0.255250640387175   0.928981556650310   0.683993848599405 1
ion Bi   0.747911352918347   0.435101350631326   0.687299942801275 1
ion Bi   0.779170113793371   0.929293157208515   0.676094850586139 1
ion Bi   0.483744764904856   0.361570747780795   0.466971221720398 1
ion Bi   0.483054224782957   0.855367085972301   0.451909728629369 1
ion Bi   0.968615988448613   0.364253740133015   0.457983580288135 1
ion Bi   0.977916068517932   0.868081814014478   0.451243950338441 1
ion Bi   0.027679831790351   0.379330386043336   0.958539480592256 1
ion Bi   0.017816750724781   0.896749316926325   0.957522149338455 1
ion Bi   0.519415417418894   0.394696977586883   0.954124956840056 1
ion Bi   0.540195051024208   0.888535273735042   0.949873878979349 1
ion O   0.388359229240775   0.090684960918644   0.782098486215598 1
ion O   0.405408592216735   0.584879109022636   0.748679200343957 1
ion O   0.879710093848352   0.087310091249217   0.787031323139835 1
ion O   0.902021082347039   0.610714502231707   0.786987658665014 1
ion O   0.382753025199027   0.731165816991647   0.077697029785478 1
ion O   0.852388533877891   0.236781315572157   0.075068622829313 1
ion O   0.877759199277228   0.757048134331084   0.082477894111928 1
ion O   0.338201629965710   0.432087088606067   0.964483227846855 1
ion O   0.345276308979028   0.935103233206416   0.971952437250128 1
ion O   0.849378967569049   0.424020629430142   0.961597543695778 1
ion O   0.837767598538766   0.917198056350616   0.985702962926902 1
ion O   0.380106559616979   0.482233735716937   0.420931732696532 1
ion O   0.362004539448593   0.968156608039613   0.411398941693319 1
ion O   0.873248456273822   0.476418809534230   0.419426093829809 1
ion O   0.869343658873030   0.991761314952848   0.428742940468263 1
ion O   0.110611209759989   0.156439778131336   0.288130312780422 1
ion O   0.123002791133896   0.667111284025039   0.286506233546938 1
ion O   0.605494710413703   0.146196694894362   0.269823986177909 1
ion O   0.605776407983965   0.642856314568825   0.271016510901018 1
ion O   0.123473815388639   0.258868841152749   0.907865516874196 1
ion O   0.135865773890857   0.747762617898137   0.919535185769769 1
ion O   0.630462513423783   0.263811486050153   0.927025850498062 1
ion O   0.623807186675382   0.765870739657162   0.901958236729222 1
ion O   0.345475432258174   0.184126179530763   0.520463698350661 1
ion O   0.341418693761489   0.686474475808260   0.530213635792079 1
ion O   0.818114998142355   0.194692377411397   0.543314333878048 1
ion O   0.848731990898897   0.693503804628874   0.513145791234534 1
ion O   0.100903238643945   0.405439107505137   0.215574241434050 1
ion O   0.091437440552461   0.896865760520671   0.207401329875816 1
ion O   0.607576046104349   0.401311260195153   0.220950084979597 1
ion O   0.615625577894579   0.886878201919369   0.240652393017967 1
ion O   0.162175243862443   0.289139026837318   0.479356383520582 1
ion O   0.161483896749450   0.789769237848158   0.469778317144066 1
ion O   0.643915588143412   0.326221656673400   0.475343962940662 1
ion O   0.657149705709353   0.818250173372526   0.483957375356594 1
ion O   0.383116772879421   0.335095362177239   0.706170383969034 1
ion O   0.379647434316706   0.853198491956404   0.721187747065312 1
ion O   0.882815477863048   0.341562688908712   0.727379341677037 1
ion O   0.903971698449263   0.826793516425608   0.721844901928637 1
ion O   0.169740512048220   0.075545216006951   0.035099547582296 1
ion O   0.154983790302806   0.552831581503175   0.001087009319779 1
ion O   0.668794936515983   0.069392158824115   0.027677352692309 1
ion O   0.653886735313157   0.570873410572702   0.020154339112561 1
ion O   0.113662659986631   0.021882572597654   0.581640416207629 1
ion O   0.113356914176735   0.511032885940872   0.577015250512670 1
ion O   0.629439395762800   0.027008072740216   0.591524762856686 1
ion O   0.630378833359346   0.518677588974067   0.571849045484416 1

# Forces in Lattice coordinates:
force Bi  -0.665777468419694   0.508731922987398   0.226089968859205 1
force Bi  -0.591991784634069   0.085366840526795   0.036576557866388 1
force Bi  -0.613697932185448   0.786149664064900   0.021623372428463 1
force Bi  -1.316070633242220   1.367399578935900   0.029159024648425 1
force Bi  -0.413832463181437   1.310974593769221  -0.335149072886461 1
force Bi   0.374306017854277   0.418678241582985  -0.066117497567697 1
force Bi   0.002240261573974   0.273087002824917  -0.131945220074146 1
force Bi   0.186649826820236  -0.492241355891880  -0.138504384177405 1
force Bi   0.082387375638782   0.451053610397029  -0.294926856163528 1
force Bi   2.321478620850626  -2.640067624226509  -0.557288887389613 1
force Bi   0.001171383906980  -0.461096559258474   0.295208268795871 1
force Bi   0.178806413476339  -0.008321453939355   0.012881821420319 1
force Bi   0.989109338911027  -0.731619507796125  -0.412896641447329 1
force Bi   0.135952403080319   0.085500800734366  -0.292191377456051 1
force Bi  -0.154676427990507   1.051925302193436   0.034201556278614 1
force Bi   0.492634458993995  -0.598915402996557  -0.228073852609701 1
force Bi  -0.960208590842605   0.681574304671827   0.130511414624556 1
force Bi  -0.190828714927705   0.398443009965149   0.259284922848530 1
force Bi   0.586368056447956  -1.088125169618165  -0.374824907871504 1
force Bi  -0.092705140503549  -1.139538417485386   0.454244625563282 1
force Bi   0.754645376477257  -0.277722964243623  -0.143314642283325 1
force Bi   0.480027304897625  -0.426147784242081  -0.038087208865671 1
force Bi   0.536067065686025  -0.739649510344996   0.165925885639405 1
force Bi  -0.511162686694345   0.049425449224300   0.020197991114555 1
force Bi  -0.763066351637559   0.198179026528857  -0.044110001417700 1
force Bi  -0.141763193964945   0.147835244569102   0.285684891386214 1
force Bi   0.318566482231632  -0.360882812448846   0.201716385719037 1
force Bi   0.352692692466450  -0.793138033674278   0.018675247675349 1
force Bi  -0.273006427380613   0.232895778471997   0.205455852841251 1
force Bi   0.215831167711542  -0.833053963367933   0.003818341805081 1
force Bi  -0.244424547152296   0.173056735985131  -0.101555812011958 1
force Bi  -0.302950696342765   0.329784574754250   0.269121731159055 1
force O   0.096800146709782  -0.219173383151905  -0.004055436658768 1
force O  -0.020163425500515  -0.453198145209996   0.427560749226068 1
force O   0.326920960112483  -0.114391755959614   0.077077893762101 1
force O  -0.074438387376113  -0.188151975163331   0.204708227999034 1
force O  -0.311151373419003   0.572705324368294  -0.213499836327137 1
force O   0.557300808692608   0.005660170946082  -0.202082084543932 1
force O   0.457084771327430  -0.648626724998314  -0.530377231917585 1
force O   0.474904319038613  -0.184182178500611   0.406366474726579 1
force O   0.165521524882844   0.206911446198257   0.443381572900477 1
force O   0.046259635609266   0.744794718525362   0.681820614488315 1
force O   0.378038564624431   0.864276052432985  -0.081770383956814 1
force O  -0.423718077068713   0.553479970766542   0.215439952603372 1
force O  -0.038560249879064   0.637568550138130   0.335404250731591 1
force O  -0.122620702689734   0.235681196495904   0.136562291305254 1
force O   0.280648834819350  -0.139802650434226   0.200697868219521 1
force O   0.054498415556198  -0.545355077108922  -0.103210293754378 1
force O   0.007292910298924  -0.979284377303545  -0.381840851235289 1
force O  -0.338771199383852   0.283957769076039   0.295796637950938 1
force O  -0.075226145578635   0.289395303861927   0.084814770342964 1
force O   0.053287929440407  -0.444322466829875   0.390217750336930 1
force O  -1.781098026469166   1.859010155824619   0.876895591746823 1
force O  -0.431728828574687   0.182137438624110   0.333736181189495 1
force O  -0.043544466579898  -0.111596292900188   0.332922118136620 1
force O   0.346188549526775  -0.504938087323817  -0.481811272410930 1
force O   0.635878897622833  -0.184161959612902  -0.628825656825315 1
force O   0.328291815879218  -0.258351321506609  -0.768181283381884 1
force O   0.388659917791511  -0.641799369020623  -0.495931197911437 1
force O   0.177435572495920  -0.181545056015691   0.193982280341496 1
force O   0.311039445522563  -0.009040291795937   0.183034469186715 1
force O  -0.407836513444549   0.722944707086123  -0.382795876161090 1
force O  -0.736161898909858   1.170326080655728  -0.719673172795182 1
force O  -0.284896688884710   0.921969722459540   0.273589355798465 1
force O  -0.648569802341488   1.112669956834166   0.616559897078315 1
force O   0.230431065755281  -0.370187112989002   0.652964620439131 1
force O  -0.288738343563642  -0.018582449830201   0.564518373570499 1
force O   0.154495567650417   0.373329819578601   0.181196434798487 1
force O   0.386379886195587  -0.401660756866505  -0.093132691416009 1
force O   0.160813979041969   0.197554155477674  -0.296526760791013 1
force O  -0.202044477154611   0.609998033121567  -0.006764309157697 1
force O  -0.267915595419451  -0.064518394225640  -0.306911314677572 1
force O  -0.677436679065663   0.663942248531648  -0.176220971868324 1
force O  -0.353602156378209  -0.605885634107105  -0.249792200535958 1
force O  -0.160556776396986  -0.338821826456590  -0.401408756467072 1
force O   0.412168325262319  -0.951756151146305  -0.126156621583112 1
force O   0.179034842985553  -0.424151402821784  -0.373910050061080 1
force O   0.046937210986872  -0.815913034909053  -0.332065356164298 1
force O   0.260532823234244  -0.376660605151122  -0.263296677968824 1

# Energy components:
   Eewald =    -2381.4219428187479934
       EH =      682.4921224167211449
     Eloc =    -2227.7104215361732713
      Enl =      865.7499261413197473
      Exc =    -1196.2864870783585047
 Exc_core =      661.9337914017019102
       KE =      541.0960457015505654
-------------------------------------
     Etot =    -3054.1469657719871975
       TS =        0.1342969794305324
-------------------------------------
        F =    -3054.2812627514176711

IonicMinimize: Iter:   2  F: -3054.281262751417671  |grad|_K:  2.217e-02  alpha:  3.613e-01  linmin: -9.987e-01  t[s]:   7196.48

#--- Lowdin population analysis ---
# oxidation-state Bi +1.131 +1.257 +1.281 +1.237 +1.290 +1.272 +1.270 +1.304 +1.092 +1.340 +1.413 +1.324 +1.066 +1.289 +1.174 +1.192 +1.095 +1.319 +1.307 +1.345 +1.294 +1.237 +1.231 +1.267 +1.322 +1.265 +1.272 +1.207 +1.314 +1.248 +0.996 +1.225
# oxidation-state O -0.754 -0.778 -0.776 -0.772 -0.806 -0.789 -0.808 -0.764 -0.781 -0.765 -0.770 -0.805 -0.786 -0.795 -0.792 -0.749 -0.750 -0.755 -0.760 -0.797 -0.786 -0.785 -0.813 -0.788 -0.753 -0.785 -0.775 -0.770 -0.781 -0.769 -0.761 -0.759 -0.755 -0.792 -0.777 -0.757 -0.757 -0.746 -0.773 -0.793 -0.782 -0.761 -0.768 -0.803 -0.794 -0.799 -0.781


-------- Electronic minimization -----------
Will mix electronic density at each iteration.
	FillingsUpdate:  mu: +0.395483603  nElectrons: 762.000000
	FillingsUpdate:  mu: +0.394865025  nElectrons: 762.000000
SCF: Cycle:  0   F: -3053.516184376120691   dF: -4.259e-01   |Residual|: 5.805e-01   |deigs|: 2.402e-03  t[s]:   7387.31
	FillingsUpdate:  mu: +0.397306410  nElectrons: 762.000000
SCF: Cycle:  1   F: -3054.168040539965205   dF: -6.519e-01   |Residual|: 4.032e-01   |deigs|: 5.386e-03  t[s]:   7523.42
	FillingsUpdate:  mu: +0.395066807  nElectrons: 762.000000
SCF: Cycle:  2   F: -3054.264754633466509   dF: -9.671e-02   |Residual|: 1.967e-01   |deigs|: 2.649e-03  t[s]:   7663.30
	FillingsUpdate:  mu: +0.396473397  nElectrons: 762.000000
SCF: Cycle:  3   F: -3054.378916260112419   dF: -1.142e-01   |Residual|: 9.283e-02   |deigs|: 1.853e-03  t[s]:   7801.78
	FillingsUpdate:  mu: +0.395793258  nElectrons: 762.000000
SCF: Cycle:  4   F: -3054.397381582919934   dF: -1.847e-02   |Residual|: 4.255e-02   |deigs|: 6.674e-04  t[s]:   7927.43
	FillingsUpdate:  mu: +0.395841582  nElectrons: 762.000000
SCF: Cycle:  5   F: -3054.399204020559864   dF: -1.822e-03   |Residual|: 2.820e-02   |deigs|: 3.763e-04  t[s]:   8055.09
	FillingsUpdate:  mu: +0.395840254  nElectrons: 762.000000
SCF: Cycle:  6   F: -3054.401049876486468   dF: -1.846e-03   |Residual|: 7.885e-03   |deigs|: 1.691e-04  t[s]:   8146.05
	FillingsUpdate:  mu: +0.395869791  nElectrons: 762.000000
SCF: Cycle:  7   F: -3054.401188846988589   dF: -1.390e-04   |Residual|: 6.324e-03   |deigs|: 8.676e-05  t[s]:   8236.98
	FillingsUpdate:  mu: +0.395846489  nElectrons: 762.000000
SCF: Cycle:  8   F: -3054.401293429772068   dF: -1.046e-04   |Residual|: 2.876e-03   |deigs|: 5.145e-05  t[s]:   8327.65
	FillingsUpdate:  mu: +0.395832306  nElectrons: 762.000000
SCF: Cycle:  9   F: -3054.401307297231597   dF: -1.387e-05   |Residual|: 1.408e-03   |deigs|: 3.023e-05  t[s]:   8420.03
	FillingsUpdate:  mu: +0.395831002  nElectrons: 762.000000
SCF: Cycle: 10   F: -3054.401311513099245   dF: -4.216e-06   |Residual|: 5.181e-04   |deigs|: 9.949e-06  t[s]:   8511.58
	FillingsUpdate:  mu: +0.395837130  nElectrons: 762.000000
SCF: Cycle: 11   F: -3054.401311936793718   dF: -4.237e-07   |Residual|: 3.338e-04   |deigs|: 6.040e-06  t[s]:   8601.91
	FillingsUpdate:  mu: +0.395833419  nElectrons: 762.000000
SCF: Cycle: 12   F: -3054.401312084503843   dF: -1.477e-07   |Residual|: 2.019e-04   |deigs|: 3.243e-06  t[s]:   8693.16
	FillingsUpdate:  mu: +0.395833754  nElectrons: 762.000000
SCF: Cycle: 13   F: -3054.401312167395190   dF: -8.289e-08   |Residual|: 9.854e-05   |deigs|: 1.449e-06  t[s]:   8784.55
	FillingsUpdate:  mu: +0.395833839  nElectrons: 762.000000
SCF: Cycle: 14   F: -3054.401312185423649   dF: -1.803e-08   |Residual|: 4.547e-05   |deigs|: 6.360e-07  t[s]:   8875.79
	FillingsUpdate:  mu: +0.395833751  nElectrons: 762.000000
SCF: Cycle: 15   F: -3054.401312193593640   dF: -8.170e-09   |Residual|: 2.254e-05   |deigs|: 2.558e-07  t[s]:   8967.97
	FillingsUpdate:  mu: +0.395833660  nElectrons: 762.000000
SCF: Cycle: 16   F: -3054.401312196268009   dF: -2.674e-09   |Residual|: 1.451e-05   |deigs|: 1.481e-07  t[s]:   9060.02
SCF: Converged (|Delta E|<1.000000e-08 for 2 iters).

Setting wave functions to eigenvectors of Hamiltonian

# Ionic positions in lattice coordinates:
ion Bi   0.246481483194075   0.066915790054526   0.311181818600260 1
ion Bi   0.247198940981656   0.571986204550563   0.309778912223780 1
ion Bi   0.752356580681053   0.080982299692412   0.315074616603599 1
ion Bi   0.752362149733129   0.562190069528889   0.317817810563803 1
ion Bi   0.035131224905758   0.130436170729341   0.557834404611500 1
ion Bi   0.013267186686790   0.633743424348506   0.535035794785198 1
ion Bi   0.519864252387725   0.121927529614556   0.533431834252561 1
ion Bi   0.516886213922730   0.643804629106684   0.535459902572739 1
ion Bi   0.266256766182784   0.177280369957235   0.815077925100908 1
ion Bi   0.247271902925118   0.694323739570745   0.809825711115408 1
ion Bi   0.761101351143254   0.189065494560577   0.813752446974579 1
ion Bi   0.758496853081926   0.680180064764648   0.804413256829870 1
ion Bi   0.459173664901418   0.109904389943994   0.051207169857558 1
ion Bi   0.477797968877636   0.609256668776899   0.038459787939983 1
ion Bi   0.975335278467671   0.093698872967624   0.031511729643085 1
ion Bi   0.973455416563291   0.604225490144299   0.043014871468290 1
ion Bi   0.249319561244107   0.304865952591299   0.187448598269052 1
ion Bi   0.243289748762799   0.815791748914151   0.174829743092666 1
ion Bi   0.734975613412267   0.329848347948790   0.188069720770520 1
ion Bi   0.748720854593230   0.823680755672207   0.186602345503197 1
ion Bi   0.252410124745481   0.425320484468863   0.683246479642624 1
ion Bi   0.256244511971271   0.928568508174355   0.683803090110115 1
ion Bi   0.748873524871881   0.434180176447923   0.688062764045218 1
ion Bi   0.777760568938970   0.928980226512169   0.676190087487182 1
ion Bi   0.481900215839759   0.361239003235606   0.466628778333515 1
ion Bi   0.482852572298619   0.855569071300326   0.453382695940148 1
ion Bi   0.969183884440037   0.363874662921245   0.459108789185575 1
ion Bi   0.978293654548609   0.866949459766448   0.451403970090511 1
ion Bi   0.027072276095508   0.379535595454229   0.959584836447093 1
ion Bi   0.017680433997272   0.895353815038293   0.957562795009361 1
ion Bi   0.518872887084277   0.394821232859670   0.953675882385673 1
ion Bi   0.539603345344502   0.888896223574854   0.951445012256428 1
ion O   0.388477445469076   0.090387093659457   0.782070456529189 1
ion O   0.404941973597225   0.584071320753811   0.750987688198417 1
ion O   0.880603430285131   0.087427041434045   0.787415632974494 1
ion O   0.901609776463726   0.610286117464759   0.788011534439494 1
ion O   0.382333691531001   0.731956139969824   0.076422086309561 1
ion O   0.854052160395995   0.237287134076568   0.073947108679557 1
ion O   0.878485794024552   0.756258320300039   0.079554556305991 1
ion O   0.339489911956992   0.432163097403488   0.966754520932435 1
ion O   0.346034912005495   0.935653204582012   0.974407190773081 1
ion O   0.850210803373118   0.425419929027425   0.965348393314848 1
ion O   0.839635009821057   0.919014364310736   0.985692027454968 1
ion O   0.379336962414583   0.482891027840241   0.422191432159784 1
ion O   0.362472805957997   0.969353328228116   0.413306987144725 1
ion O   0.873074450548610   0.476782372563909   0.420216886439010 1
ion O   0.870025737330161   0.991751283250793   0.429881912525295 1
ion O   0.110288538912151   0.155475835430234   0.287629821105276 1
ion O   0.122162567768143   0.665316794973438   0.284562386158416 1
ion O   0.604762694931740   0.146419295791943   0.271411529322967 1
ion O   0.605860390473471   0.643353021115358   0.271475023575938 1
ion O   0.123233000399518   0.258074146869379   0.910065124918460 1
ion O   0.133925250771869   0.748813972158719   0.922668976563868 1
ion O   0.629353291143571   0.263741490218396   0.928904125354166 1
ion O   0.623585539752028   0.765593940305753   0.903834155308478 1
ion O   0.346075245793140   0.183505708410636   0.517831578406236 1
ion O   0.343133186471911   0.686694205510213   0.526856807360248 1
ion O   0.818879886391684   0.194481405123500   0.539154754175835 1
ion O   0.849333535032919   0.692650748493087   0.510445100399321 1
ion O   0.101308364532731   0.405253382321036   0.216581934669564 1
ion O   0.092372487763329   0.897130494813936   0.208428040042294 1
ion O   0.607112995066333   0.402191467266378   0.218954000032562 1
ion O   0.614519590894502   0.888332639530195   0.236797034305567 1
ion O   0.162144715105178   0.290631073801168   0.480848564217171 1
ion O   0.160490759729564   0.791265436226465   0.473135861407401 1
ion O   0.644104190667251   0.325769617128889   0.478855967014377 1
ion O   0.656216976746419   0.817959698637946   0.486900549590882 1
ion O   0.383904231077986   0.335946085545603   0.707102652988344 1
ion O   0.380464438584122   0.852756787886623   0.720688072442489 1
ion O   0.883457301257574   0.342081880385415   0.725797240118230 1
ion O   0.903874179171275   0.827736320143878   0.721732214112191 1
ion O   0.168796195146312   0.075184486583891   0.033330193239613 1
ion O   0.153515531886865   0.553461903678730   0.000068626906064 1
ion O   0.667116081281826   0.067963980990683   0.026268386785195 1
ion O   0.653063866425084   0.570100509290886   0.017906430356624 1
ion O   0.113967964516397   0.020599527992698   0.580821337529007 1
ion O   0.113590252323771   0.510427201240238   0.574950498017081 1
ion O   0.628843741220006   0.025501939092507   0.589645770307823 1
ion O   0.630817130762011   0.518206754985031   0.570345247375464 1

# Forces in Lattice coordinates:
force Bi  -0.597736031756050   0.460074086167376   0.183264925261750 1
force Bi  -0.564366461611102   0.083708987832871   0.029754455554230 1
force Bi  -0.520751746108028   0.647717271739294   0.059055502679125 1
force Bi  -1.158299473952630   1.154267816134339   0.036971617909554 1
force Bi  -0.309638777496950   1.004186615553598  -0.293628795873522 1
force Bi   0.320899699278151   0.366606018553743  -0.069156712885764 1
force Bi  -0.020048499367711   0.276550824424508  -0.099762850962612 1
force Bi   0.158528079828498  -0.474680154679280  -0.092495163563278 1
force Bi   0.078962847309519   0.336127441476059  -0.245938507945020 1
force Bi   1.515023899926535  -1.779732997316620  -0.235650271244003 1
force Bi   0.036300537745505  -0.450815756383479   0.219478614172613 1
force Bi   0.197863469905340  -0.021225876305039   0.024582020320583 1
force Bi   0.889608985810600  -0.705696727499536  -0.374586013688107 1
force Bi   0.114352105283046   0.094011186190116  -0.278174423848947 1
force Bi  -0.112465991514082   0.921692022074805   0.026957984125840 1
force Bi   0.481023799547460  -0.524113589966561  -0.193747428268253 1
force Bi  -0.925154579069903   0.668337363275548   0.107204619260802 1
force Bi  -0.208568815391535   0.335610792707891   0.198012456108578 1
force Bi   0.382079862285524  -0.790391400550409  -0.322871175812940 1
force Bi  -0.143171713872177  -0.840045531705230   0.318298826350470 1
force Bi   0.655617646447697  -0.227928939558229  -0.130805741535048 1
force Bi   0.420382920688590  -0.411053228116939  -0.036540668712607 1
force Bi   0.517791371695075  -0.701195122366968   0.097668285270807 1
force Bi  -0.430823592686578   0.089946725774138   0.013951962674553 1
force Bi  -0.526344673956689   0.086378682198832  -0.076383292012998 1
force Bi  -0.086431912899199   0.162337470178208   0.237882724448469 1
force Bi   0.241183689991146  -0.289969874532899   0.190434860513782 1
force Bi   0.336613388834762  -0.697864030225556   0.037633868493964 1
force Bi  -0.255588002193039   0.228572393351902   0.161436821621713 1
force Bi   0.177436793387079  -0.759921140598017   0.011604810375749 1
force Bi  -0.206993996829528   0.176547524551122  -0.056300657823313 1
force Bi  -0.273805050727776   0.309901882146839   0.281942195356773 1
force O   0.099610127374016  -0.180021715641883  -0.007158148360811 1
force O  -0.031080611153643  -0.346401103192301   0.385446555570123 1
force O   0.295847525601248  -0.057121134747571   0.057211267122812 1
force O  -0.072614743572926  -0.177454367359592   0.151975040412624 1
force O  -0.305363710447728   0.540294864241282  -0.241013384197185 1
force O   0.504941858391444   0.001530396328494  -0.200590139649498 1
force O   0.360436697366762  -0.558281285493887  -0.502258281393251 1
force O   0.471551202952836  -0.192548038280069   0.401187669090056 1
force O   0.214404499690688   0.161891509533262   0.427619410713703 1
force O   0.085703671179920   0.623247042514025   0.639705289221995 1
force O   0.391761761326640   0.670082072225202   0.046108426799630 1
force O  -0.390371686527647   0.510928426333650   0.235977296925833 1
force O  -0.044199513066623   0.630393582897224   0.343686267021091 1
force O  -0.136406415265869   0.257207416591323   0.154017401813101 1
force O   0.230399210025743  -0.118460838600716   0.207268096586720 1
force O   0.048720616387321  -0.484972234095055  -0.066044262674410 1
force O   0.002197263099003  -0.852056588959553  -0.295426915340848 1
force O  -0.287134826252784   0.242256025367546   0.261786305884422 1
force O  -0.037970387621202   0.273814715984317   0.076191083201191 1
force O   0.053142051230793  -0.423676916707663   0.395248056750683 1
force O  -0.995123683779427   1.061052875115942   0.593586805893947 1
force O  -0.364093220620208   0.120811122548202   0.331554635235586 1
force O  -0.014299583545684  -0.152890691064381   0.339227237666470 1
force O   0.333385360872580  -0.449493494431470  -0.447728456380160 1
force O   0.585903351448845  -0.181961222011345  -0.563912244183885 1
force O   0.327902424965346  -0.274278996863413  -0.705545795796317 1
force O   0.378653770585776  -0.594243889874629  -0.456845767784506 1
force O   0.200227738390685  -0.197175651554331   0.154059521249156 1
force O   0.299119377128763  -0.015578883954687   0.176139500180577 1
force O  -0.291799221297321   0.524153988738840  -0.322268297087196 1
force O  -0.611010082713295   0.954182016279041  -0.638812064001915 1
force O  -0.276584564274360   0.874362550673137   0.248709723653614 1
force O  -0.642145344617319   1.044133337141979   0.563787883907682 1
force O   0.094257035064612  -0.266553415224607   0.591948827857363 1
force O  -0.312165218448655   0.006408514115302   0.473691456932255 1
force O   0.134000986247339   0.362213012312399   0.139772493795433 1
force O   0.374146293461646  -0.404175533585456  -0.084214560810413 1
force O   0.127334722644197   0.201652657909498  -0.257670100015436 1
force O  -0.214441808510037   0.559400188148761  -0.036228416429537 1
force O  -0.321806847118131  -0.024047335792537  -0.322923915592431 1
[...]
force Bi   0.004876888498148  -0.003593160460396   0.002315878604715 1
force Bi  -0.005192418910758  -0.003552192607201   0.002188739177222 1
force Bi  -0.000859641623850   0.002605669031535  -0.001782399932690 1
force Bi   0.004018613479919  -0.003372153591433  -0.000922675785218 1
force Bi   0.004609797852690  -0.001483746949443  -0.003694849142638 1
force Bi   0.009986187928421  -0.006701334277604   0.002088397372037 1
force Bi   0.004875364314374   0.001030148045308  -0.000476900283532 1
force Bi  -0.007980832939763   0.002928922027361  -0.002601379251855 1
force Bi  -0.003667514484968  -0.001615073965551  -0.000341721540903 1
force Bi  -0.004946208082916  -0.003472946626847   0.000438309419754 1
force Bi   0.005378702671804  -0.006474537312510  -0.000067406361503 1
force Bi   0.005977996932900  -0.003696099065554  -0.000453719541173 1
force Bi  -0.005657010913465   0.004972643417825   0.001696343381972 1
force O   0.000565297220266  -0.004662323836836  -0.002977302271693 1
force O  -0.002085657241283   0.001986412420611   0.001317327049470 1
force O   0.000703517661787  -0.003712742475287  -0.000816284717667 1
force O  -0.001445712496848   0.001143400082164   0.001819382874437 1
force O  -0.001933056335391   0.005652894984236   0.002071283802679 1
force O  -0.000722165192276  -0.001876344898262  -0.004474762224244 1
force O  -0.000807232126371   0.001654598433383  -0.000059560613737 1
force O  -0.003881295838351   0.004366724881415   0.001884537721828 1
force O   0.004237774470530  -0.007220648072692  -0.001768107443319 1
force O   0.004516342128132   0.000706140267873  -0.001460138605806 1
force O  -0.001289818750577  -0.002455591562432  -0.002058591851134 1
force O   0.000708130683396  -0.000622874526169  -0.003265436047167 1
force O   0.002497890432826  -0.005151275354156   0.000525168372475 1
force O  -0.000375258339901   0.001557845478386   0.003304977164310 1
force O  -0.000525372344197  -0.002044675005823   0.004194721768168 1
force O   0.000978899312890  -0.000448356711671  -0.000005868105563 1
force O   0.003159547140451   0.001709887272479   0.001373615278550 1
force O   0.000522971715039  -0.002616676159589   0.000856763203749 1
force O  -0.005425012184286   0.002704084302153  -0.000526509282130 1
force O   0.002187196887362  -0.002155054730052   0.004016221979052 1
force O   0.005304270247234  -0.000016474711825   0.000044917349523 1
force O  -0.001539842328965  -0.001735769616364  -0.002874391416293 1
force O  -0.005086643625748   0.004285208565487  -0.001705683336884 1
force O   0.003207336073897   0.001234407172804  -0.001203717897585 1
force O  -0.006275196119885   0.006330307995615   0.000860509808505 1
force O   0.000278574239188  -0.004480994125826  -0.001207290876957 1
force O   0.001922268922312   0.002231786527302   0.003843858937467 1
force O   0.005935096804865   0.000582901432580  -0.000274421979127 1
force O   0.001053388161089  -0.002166902859822  -0.000029201280562 1
force O  -0.005570633242283   0.003504070904869  -0.000068271164924 1
force O  -0.003831691459353   0.004634002901467  -0.004050576665715 1
force O   0.008005003296790  -0.004138220875628  -0.000190153759021 1
force O   0.000933825408445   0.002282892864772   0.001169985658659 1
force O  -0.006666880598539   0.004160423929775  -0.001648973070912 1
force O  -0.003473745427022   0.005181896833146   0.001743742405615 1
force O   0.000065137002409  -0.001388454295978  -0.001088262485476 1
force O  -0.000082337853452   0.000751190399032  -0.001071867824245 1
force O  -0.000924764151306   0.000478723238969   0.001433995987421 1
force O  -0.002433950188434  -0.000790491506995   0.001711855340867 1
force O   0.004840993381809  -0.005472820254480   0.000085395898338 1
force O   0.004362858591130   0.001346837360716   0.000352953906531 1
force O   0.003536581899334  -0.010545552283041  -0.001546756290591 1
force O  -0.003905316809458   0.004052908925932   0.002716766781076 1
force O  -0.002403549996178   0.001609961185026   0.003519444084413 1
force O   0.003898611857734   0.002412515097556  -0.001368365029463 1
force O   0.000252979589906  -0.003990116433799   0.001931780806136 1
force O  -0.004608748168063   0.001522824052091   0.002475383923750 1

# Energy components:
   Eewald =    -2346.1150265086707805
       EH =      717.8510282478825957
     Eloc =    -2301.8502119416143614
      Enl =      866.6320075663428497
      Exc =    -1198.1610698841823250
 Exc_core =      661.9337904342179399
       KE =      544.4775587393448859
-------------------------------------
     Etot =    -3055.2319233466787409
       TS =        0.0234247650548209
-------------------------------------
        F =    -3055.2553481117333831

IonicMinimize: Iter:  28  F: -3055.255348111733383  |grad|_K:  1.705e-04  alpha:  1.000e+00  linmin:  7.766e-02  t[s]:  56948.24

#--- Lowdin population analysis ---
# oxidation-state Bi +1.297 +1.312 +1.311 +1.313 +1.326 +1.333 +1.335 +1.335 +0.798 +1.315 +1.317 +1.319 +1.276 +1.329 +1.331 +1.334 +1.261 +1.320 +1.310 +1.314 +1.313 +1.320 +1.313 +1.313 +1.331 +1.334 +1.332 +1.333 +1.334 +1.332 +1.150 +1.334
# oxidation-state O -0.814 -0.813 -0.809 -0.812 -0.805 -0.807 -0.806 -0.824 -0.819 -0.820 -0.822 -0.806 -0.804 -0.806 -0.807 -0.813 -0.813 -0.816 -0.814 -0.798 -0.805 -0.809 -0.804 -0.821 -0.821 -0.825 -0.823 -0.796 -0.811 -0.816 -0.814 -0.813 -0.826 -0.822 -0.823 -0.804 -0.815 -0.809 -0.811 -0.814 -0.823 -0.814 -0.813 -0.796 -0.808 -0.804 -0.802


-------- Electronic minimization -----------
Will mix electronic density at each iteration.
	FillingsUpdate:  mu: +0.413241802  nElectrons: 762.000000
	FillingsUpdate:  mu: +0.413209871  nElectrons: 762.000000
SCF: Cycle:  0   F: -3055.255288460324664   dF: +4.485e-05   |Residual|: 3.402e-03   |deigs|: 1.162e-07  t[s]:  57099.22
	FillingsUpdate:  mu: +0.413223011  nElectrons: 762.000000
SCF: Cycle:  1   F: -3055.255349433220545   dF: -6.097e-05   |Residual|: 2.222e-03   |deigs|: 2.048e-05  t[s]:  57190.63
	FillingsUpdate:  mu: +0.413224191  nElectrons: 762.000000
SCF: Cycle:  2   F: -3055.255353687806746   dF: -4.255e-06   |Residual|: 7.125e-04   |deigs|: 6.685e-06  t[s]:  57282.65
	FillingsUpdate:  mu: +0.413230764  nElectrons: 762.000000
SCF: Cycle:  3   F: -3055.255363099932310   dF: -9.412e-06   |Residual|: 4.117e-04   |deigs|: 1.274e-05  t[s]:  57373.80
	FillingsUpdate:  mu: +0.413232535  nElectrons: 762.000000
SCF: Cycle:  4   F: -3055.255364421246668   dF: -1.321e-06   |Residual|: 2.882e-04   |deigs|: 3.405e-06  t[s]:  57465.27
	FillingsUpdate:  mu: +0.413234916  nElectrons: 762.000000
SCF: Cycle:  5   F: -3055.255365094466470   dF: -6.732e-07   |Residual|: 1.272e-04   |deigs|: 4.391e-06  t[s]:  57556.91
	FillingsUpdate:  mu: +0.413236340  nElectrons: 762.000000
SCF: Cycle:  6   F: -3055.255365188499127   dF: -9.403e-08   |Residual|: 6.249e-05   |deigs|: 1.805e-06  t[s]:  57647.77
	FillingsUpdate:  mu: +0.413237106  nElectrons: 762.000000
SCF: Cycle:  7   F: -3055.255365207714021   dF: -1.921e-08   |Residual|: 3.752e-05   |deigs|: 6.968e-07  t[s]:  57740.52
	FillingsUpdate:  mu: +0.413237569  nElectrons: 762.000000
SCF: Cycle:  8   F: -3055.255365213981804   dF: -6.268e-09   |Residual|: 1.209e-05   |deigs|: 4.237e-07  t[s]:  57832.57
	FillingsUpdate:  mu: +0.413237714  nElectrons: 762.000000
SCF: Cycle:  9   F: -3055.255365215304209   dF: -1.322e-09   |Residual|: 7.572e-06   |deigs|: 2.056e-07  t[s]:  57919.16
SCF: Converged (|Delta E|<1.000000e-08 for 2 iters).

Setting wave functions to eigenvectors of Hamiltonian

# Ionic positions in lattice coordinates:
ion Bi   0.237728614620176   0.063622632642511   0.307075017950578 1
ion Bi   0.238849092521464   0.566379153281807   0.308242843861180 1
ion Bi   0.744125348700773   0.064944460073149   0.313760010452398 1
ion Bi   0.739936199946285   0.563252775173924   0.307180025398104 1
ion Bi   0.027197548179773   0.137761618944910   0.551912181460650 1
ion Bi   0.019258227697758   0.636762142395376   0.543551859863336 1
ion Bi   0.519557712099469   0.135756066101856   0.539366499425288 1
ion Bi   0.519490316391226   0.635804554590447   0.540912790208136 1
ion Bi   0.270335655149476   0.189282560368928   0.833219077807413 1
ion Bi   0.259993284176665   0.683425960114727   0.807310589843684 1
ion Bi   0.761754371899025   0.181818648573292   0.805496782633466 1
ion Bi   0.759719517951662   0.682726359509333   0.806069380950775 1
ion Bi   0.482924682187369   0.107543661556376   0.039503478120154 1
ion Bi   0.477349739616519   0.608501544671364   0.041421457322741 1
ion Bi   0.978972458473409   0.109321770966737   0.046449694625648 1
ion Bi   0.979508092579705   0.611670549395613   0.041854774515945 1
ion Bi   0.230911781612015   0.317691747050198   0.201192144209698 1
ion Bi   0.239017649819611   0.814031104619374   0.190104681765830 1
ion Bi   0.738717245212309   0.313159766707070   0.183570867212224 1
ion Bi   0.738594788678779   0.812480031586527   0.188236720151735 1
ion Bi   0.259047201240391   0.433246655656077   0.683611349182074 1
ion Bi   0.260336805493616   0.934351535322128   0.687192567260337 1
ion Bi   0.757412254328173   0.433191461534485   0.687813685599306 1
ion Bi   0.760941910002285   0.932209954910880   0.688827119926111 1
ion Bi   0.480160012040848   0.360247610686585   0.449711991702897 1
ion Bi   0.480674078573510   0.861402528657062   0.453666547297577 1
ion Bi   0.975554170455086   0.359911497423247   0.453600471622980 1
ion Bi   0.978586888766898   0.860074383882985   0.451949651996211 1
ion Bi   0.018381447337758   0.386915695418380   0.948955840415437 1
ion Bi   0.020087523680481   0.886126887559366   0.952734750237567 1
ion Bi   0.515064263602932   0.385184581368896   0.951420157540397 1
ion Bi   0.520798510349524   0.884473710155892   0.953807670104261 1
ion O   0.391008117711234   0.097718987190071   0.786402168550320 1
ion O   0.386647673829554   0.600916775118796   0.790125440830516 1
ion O   0.890496914555100   0.101536482019961   0.795893079354717 1
ion O   0.887892210676065   0.602284190042781   0.791180894282810 1
ion O   0.364144570358886   0.740378760067076   0.031451788655731 1
ion O   0.864940224369716   0.241539438047386   0.029956233858689 1
ion O   0.863697524252275   0.739902758010718   0.029995267539654 1
ion O   0.375941418239150   0.433902364193694   1.051967233630647 1
ion O   0.385281831201412   0.937896335407566   1.052833076728220 1
ion O   0.881720333347394   0.437031887437123   1.048935254498977 1
ion O   0.881078443127646   0.935597210872297   1.050007509963981 1
ion O   0.361819059481925   0.491416338304791   0.459236628555235 1
ion O   0.362314320228823   0.991034108593616   0.461122223819865 1
ion O   0.862984707847325   0.490643801304901   0.463946358736671 1
ion O   0.866682579764219   0.991126038168996   0.468472426556089 1
ion O   0.112493093162266   0.147620897781621   0.297044732444561 1
ion O   0.110800204220833   0.647203952441433   0.291717698714870 1
ion O   0.611608900856667   0.142061779706825   0.286803728458902 1
ion O   0.609797403264917   0.643326169618902   0.289778024189081 1
ion O   0.134974271102505   0.256404670955368   0.973529334387989 1
ion O   0.136183533555170   0.756277136071084   0.964892374518607 1
ion O   0.636256366703037   0.255357588391949   0.959447852133095 1
ion O   0.634453467984586   0.752920362068869   0.964515642359231 1
ion O   0.386340880383742   0.187894526449114   0.433468006435838 1
ion O   0.381503225101296   0.687638657322214   0.446447469672870 1
ion O   0.881911420795376   0.186873281266456   0.456069238710269 1
ion O   0.879703894581044   0.685936368173967   0.447123064548673 1
ion O   0.109166400994124   0.396573202338496   0.205938350468645 1
ion O   0.110367925606213   0.893376342613708   0.203331278038471 1
ion O   0.611517015937687   0.395024554882955   0.201218313981607 1
ion O   0.612093961968462   0.893754206855844   0.204299834100579 1
ion O   0.119614958912451   0.311406392526517   0.539147121860743 1
ion O   0.116803907057359   0.809520851607358   0.547962057043606 1
ion O   0.617516947999377   0.310040099389987   0.549076966676905 1
ion O   0.617853376579423   0.809352097964234   0.550195818812475 1
ion O   0.390759309773667   0.356127969263571   0.699804429359447 1
ion O   0.388968933135402   0.853431615498150   0.704380706524503 1
ion O   0.888526689588857   0.352740669746637   0.705493489069373 1
ion O   0.886401982800276   0.848705048882803   0.703977087542952 1
ion O   0.118166871299403   0.059567422330480  -0.046889174898292 1
ion O   0.116858764976713   0.560283998514144  -0.056057343023495 1
ion O   0.620933144806793   0.058732559474807  -0.054363931184078 1
ion O   0.611823531197557   0.554253485319344  -0.059691824841845 1
ion O   0.133370627741576   0.004696867712353   0.529618389917610 1
ion O   0.133731686237261   0.506213293523591   0.530352653739507 1
ion O   0.636707788057907   0.005567012052576   0.534102535350108 1
ion O   0.635702191242355   0.505637833575369   0.530147808660933 1

# Forces in Lattice coordinates:
force Bi   0.002330356258371  -0.000527857797314  -0.003669205552605 1
force Bi  -0.001907789091799   0.000655998883524   0.001010388831356 1
force Bi  -0.001515421058194   0.005660836969351   0.000590401053218 1
force Bi  -0.000173899764786   0.000971805676119  -0.000183867086482 1
force Bi   0.000146363085902   0.001266774223483  -0.000799564180395 1
force Bi  -0.003443419994403  -0.000888030685635   0.001506054042186 1
force Bi   0.004547820153265   0.000054290929324  -0.000379323262837 1
force Bi   0.001393334731103  -0.000202721579003  -0.000028930100822 1
force Bi   0.000901875665465  -0.002367934106232  -0.001008143717504 1
force Bi  -0.002303695539795   0.001929845814059   0.001691323367372 1
force Bi   0.000316486293912   0.002240603570055  -0.000004662542787 1
force Bi   0.001434395528501  -0.002539467986066   0.001013222860401 1
force Bi  -0.001602007709995   0.002033989015505   0.001403100866470 1
force Bi  -0.000682821685031  -0.001102450640159  -0.000094296906301 1
force Bi   0.002773266087436  -0.000209952885424  -0.000176840978985 1
force Bi  -0.002780269525039  -0.003131981869883  -0.000362771317150 1
force Bi  -0.002865122286726  -0.001592207827958  -0.000432549212182 1
force Bi  -0.000292966570917   0.002394778389361  -0.003772057921981 1
force Bi  -0.000197154040698  -0.001115962832014  -0.001270976192711 1
force Bi   0.001114117123863  -0.001151443502025   0.000140089514741 1
force Bi  -0.000557726582135  -0.002203859337126  -0.000160708475412 1
force Bi   0.002026232765442   0.000339966640382  -0.000970090265552 1
force Bi   0.000741407099533  -0.002652902510674   0.000726103075906 1
force Bi   0.000279385717223  -0.000076770568650  -0.001139149571844 1
force Bi   0.002607089310228  -0.001448763262097   0.001131627448650 1
force Bi   0.002190015082074   0.000208384067871  -0.000523249890494 1
force Bi  -0.001710884982851  -0.000084309548156  -0.000227752528359 1
force Bi  -0.002051938952339  -0.000163879499977   0.000014354801237 1
force Bi  -0.000228807226739  -0.002067584949412  -0.000360917734345 1
force Bi   0.002286700468988  -0.001050893506657  -0.000284449498579 1
force Bi   0.001726887188063  -0.002183687655947  -0.000980934088833 1
force Bi  -0.002723327601037   0.002599482690990  -0.000399833283405 1
force O  -0.000455682653466  -0.001596360164338  -0.001238765720268 1
force O  -0.001947773396026   0.001127920056692   0.000766114984834 1
force O   0.001918767812421  -0.002495810166965   0.000293976035159 1
force O  -0.000248575904159  -0.001208285574105   0.002224118397582 1
force O  -0.002217825098061   0.002754299607027   0.001034777960387 1
force O  -0.000452979281937   0.000621297345296  -0.000845526065935 1
force O   0.000120738365400  -0.000451226920010   0.000424173264983 1
force O  -0.001433482428201   0.000942342128984   0.001197322442369 1
force O   0.001610548610474  -0.001446684552302  -0.001039117556185 1
force O   0.002394225399128   0.000818964356620  -0.000507237246786 1
force O   0.000033329807467  -0.001321174888187  -0.001643462963463 1
force O   0.000095636842119  -0.001504885621246  -0.000649252786530 1
force O   0.001388407295869  -0.001842008022463  -0.000392261770777 1
force O   0.000891943891420  -0.000706493057059   0.001703533901086 1
force O   0.000860530295537  -0.001220975503252   0.002055064286354 1
force O  -0.000003960996043  -0.000168195846550  -0.000425583043022 1
force O  -0.000333270431270   0.002351651717988   0.001129873946019 1
force O   0.000419546952239   0.000291547064547  -0.000102003980742 1
force O  -0.002294374857770   0.000624978827403   0.000833908291222 1
force O   0.000213072087229  -0.001893642818390   0.000987841276578 1
force O   0.002384890133040  -0.001484457620593  -0.000772069897303 1
force O   0.000531421045174  -0.000125972657027  -0.000515736112638 1
force O  -0.002221898656591   0.001797117582678  -0.000808186243521 1
force O   0.000625792513959   0.002611580464315  -0.001960036624378 1
force O  -0.003046576662439   0.002313171783094   0.001444634957206 1
force O   0.001049491293827  -0.001173649654866  -0.000949333992681 1
force O  -0.000305279416270   0.000439894316584   0.002668219948882 1
force O   0.001573599037525   0.001667046850539  -0.000704191639282 1
force O  -0.000976501350789  -0.000508360124139  -0.000709147047196 1
force O  -0.001805404887828   0.001176489388746   0.000022946896566 1
force O  -0.001290980747912   0.003222517370396  -0.002578708662343 1
force O   0.002823636787062  -0.000543222825600  -0.001018881382285 1
force O  -0.000019708229065   0.000501444495821   0.000729359117691 1
force O  -0.002658531160514   0.002944461394031  -0.000991969314131 1
force O  -0.001428443262328   0.001147470563383   0.000822603266434 1
force O   0.000151364626825  -0.001255860934484  -0.000927474131868 1
force O  -0.001503114792277   0.000784609688829  -0.001466731838383 1
force O   0.000074624730253  -0.000318457605342   0.000014835223175 1
force O  -0.001070613793957  -0.002456220849276   0.000430243471662 1
force O   0.002604493556180  -0.003245076863807   0.001396783062991 1
force O   0.000364493602642   0.000048566508473   0.001217851928432 1
force O   0.001130641676886  -0.003471227195119  -0.001029387670322 1
force O  -0.001481507929316   0.001089690275619   0.001916129883818 1
force O  -0.001111623256798   0.002456848411490   0.001210440843002 1
force O   0.001374333823401  -0.000303534582552   0.000564846265261 1
force O   0.002185840793926  -0.001553762707363  -0.000169544277004 1
force O  -0.002075695500142   0.000715957178377   0.001624954698892 1

# Energy components:
   Eewald =    -2346.1091297395441870
       EH =      717.8573707060552351
     Eloc =    -2301.8629727347129119
      Enl =      866.6321720572286722
      Exc =    -1198.1612796980361964
 Exc_core =      661.9337909915840328
       KE =      544.4781041765830878
-------------------------------------
     Etot =    -3055.2319442408420400
       TS =        0.0234209744623944
-------------------------------------
        F =    -3055.2553652153042094

IonicMinimize: Iter:  29  F: -3055.255365215304209  |grad|_K:  7.314e-05  alpha:  1.000e+00  linmin: -4.822e-01  t[s]:  57968.62
IonicMinimize: Converged (|grad|_K<1.000000e-04).

#--- Lowdin population analysis ---
# oxidation-state Bi +1.297 +1.312 +1.312 +1.313 +1.326 +1.333 +1.335 +1.335 +0.797 +1.315 +1.317 +1.319 +1.276 +1.329 +1.331 +1.334 +1.261 +1.320 +1.310 +1.314 +1.313 +1.320 +1.313 +1.313 +1.331 +1.334 +1.332 +1.333 +1.334 +1.332 +1.150 +1.334
# oxidation-state O -0.814 -0.813 -0.809 -0.812 -0.805 -0.807 -0.806 -0.824 -0.819 -0.820 -0.822 -0.806 -0.804 -0.806 -0.807 -0.813 -0.813 -0.815 -0.814 -0.798 -0.805 -0.809 -0.804 -0.821 -0.821 -0.825 -0.823 -0.796 -0.811 -0.815 -0.814 -0.813 -0.826 -0.822 -0.823 -0.804 -0.815 -0.809 -0.811 -0.814 -0.823 -0.814 -0.813 -0.796 -0.808 -0.804 -0.802


Dumping '/data/rc652/Bi2O3/vac/Bi2O3_vac36.Ecomponents' ... done
End date and time: Fri Nov 22 09:11:25 2024  (Duration: 0-16:06:19.21)
Done!
