
*************** JDFTx 1.7.0 (git hash e155c65d) ***************

Start date and time: Tue Nov 19 21:19:08 2024
Executable jdftx with command-line: -i Bi2O3_vac40.in
Running on hosts (process indices):  node3303 (0-15)
Divided in process groups (process indices):  0 (0)  1 (1)  2 (2)  3 (3)  4 (4)  5 (5)  6 (6)  7 (7)  8 (8)  9 (9)  10 (10)  11 (11)  12 (12)  13 (13)  14 (14)  15 (15)
Resource initialization completed at t[s]:      0.00
Run totals: 16 processes, 64 threads, 0 GPUs


Input parsed successfully to the following command list (including defaults):

basis kpoint-dependent
coords-type Lattice
core-overlap-check vector
coulomb-interaction Periodic
davidson-band-ratio 1.1
dump End Ecomponents
dump-name /data/rc652/Bi2O3/vac/Bi2O3_vac40.$VAR
elec-cutoff 20 100
elec-eigen-algo Davidson
elec-ex-corr gga-PBEsol
elec-smearing Fermi 0.01
electronic-minimize  \
	dirUpdateScheme      FletcherReeves \
	linminMethod         DirUpdateRecommended \
	nIterations          100 \
	history              15 \
	knormThreshold       0 \
	maxThreshold         no \
	energyDiffThreshold  1e-08 \
	nEnergyDiff          2 \
	alphaTstart          1 \
	alphaTmin            1e-10 \
	updateTestStepSize   yes \
	alphaTreduceFactor   0.1 \
	alphaTincreaseFactor 3 \
	nAlphaAdjustMax      3 \
	wolfeEnergy          0.0001 \
	wolfeGradient        0.9 \
	fdTest               no
electronic-scf  \
	nIterations	50 \
	energyDiffThreshold	1e-08 \
	residualThreshold	1e-07 \
	mixFraction	0.5 \
	qMetric	0.8 \
	history	10 \
	nEigSteps	2 \
	eigDiffThreshold	1e-08 \
	mixedVariable	Density \
	qKerker	0.8 \
	qKappa	-1 \
	verbose	no \
	mixFractionMag	1.5
exchange-regularization WignerSeitzTruncated
fluid None
fluid-ex-corr lda-TF lda-PZ
fluid-gummel-loop 10 1.000000e-05
fluid-minimize  \
	dirUpdateScheme      PolakRibiere \
	linminMethod         DirUpdateRecommended \
	nIterations          100 \
	history              15 \
	knormThreshold       0 \
	maxThreshold         no \
	energyDiffThreshold  0 \
	nEnergyDiff          2 \
	alphaTstart          1 \
	alphaTmin            1e-10 \
	updateTestStepSize   yes \
	alphaTreduceFactor   0.1 \
	alphaTincreaseFactor 3 \
	nAlphaAdjustMax      3 \
	wolfeEnergy          0.0001 \
	wolfeGradient        0.9 \
	fdTest               no
fluid-solvent H2O 55.338 ScalarEOS \
	epsBulk 78.4 \
	pMol 0.92466 \
	epsInf 1.77 \
	Pvap 1.06736e-10 \
	sigmaBulk 4.62e-05 \
	Rvdw 2.61727 \
	Res 1.42 \
	tauNuc 343133 \
	poleEl 15 7 1
forces-output-coords Positions
ion Bi   0.241570000000000   0.074730000000000   0.304870000000000 1
ion Bi   0.233280000000000   0.566240000000000   0.315520000000000 1
ion Bi   0.722340000000000   0.076660000000000   0.294930000000000 1
ion Bi   0.731480000000000   0.571080000000000   0.309990000000000 1
ion Bi   0.013020000000000   0.138380000000000   0.544740000000000 1
ion Bi   0.023690000000000   0.639950000000000   0.552200000000000 1
ion Bi   0.515900000000000   0.140740000000000   0.528890000000000 1
ion Bi   0.519490000000000   0.624320000000000   0.536330000000000 1
ion Bi   0.242020000000000   0.172220000000000   0.826050000000000 1
ion Bi   0.270310000000000   0.674250000000000   0.808700000000000 1
ion Bi   0.766020000000000   0.192540000000000   0.817020000000000 1
ion Bi   0.755810000000000   0.696110000000000   0.812590000000000 1
ion Bi   0.467190000000000   0.099730000000000   0.050320000000000 1
ion Bi   0.483100000000000   0.608550000000000   0.034430000000000 1
ion Bi   0.995570000000000   0.110470000000000   0.037040000000000 1
ion Bi   0.980320000000000   0.605100000000000   0.034800000000000 1
ion Bi   0.246750000000000   0.315490000000000   0.189540000000000 1
ion Bi   0.248520000000000   0.806920000000000   0.198730000000000 1
ion Bi   0.743830000000000   0.321460000000000   0.185100000000000 1
ion Bi   0.754980000000000   0.816820000000000   0.186600000000000 1
ion Bi   0.256050000000000   0.432820000000000   0.694800000000000 1
ion Bi   0.273040000000000   0.930710000000000   0.685300000000000 1
ion Bi   0.739740000000000   0.423360000000000   0.675730000000000 1
ion Bi   0.760510000000000   0.930620000000000   0.684870000000000 1
ion Bi   0.482210000000000   0.365310000000000   0.464100000000000 1
ion Bi   0.461180000000000   0.861810000000000   0.453790000000000 1
ion Bi   0.969640000000000   0.358080000000000   0.460040000000000 1
ion Bi   0.973140000000000   0.840780000000000   0.465520000000000 1
ion Bi   0.003730000000000   0.408010000000000   0.978460000000000 1
ion Bi   0.017270000000000   0.868670000000000   0.964830000000000 1
ion Bi   0.517150000000000   0.395310000000000   0.948990000000000 1
ion Bi   0.525510000000000   0.875410000000000   0.943200000000000 1
ion O   0.377700000000000   0.092500000000000   0.785250000000000 1
ion O   0.381120000000000   0.581520000000000   0.793890000000000 1
ion O   0.880860000000000   0.080680000000000   0.783160000000000 1
ion O   0.877210000000000   0.583840000000000   0.784600000000000 1
ion O   0.365430000000000   0.224030000000000   0.073510000000000 1
ion O   0.373690000000000   0.723470000000000   0.083050000000000 1
ion O   0.882410000000000   0.237900000000000   0.089370000000000 1
ion O   0.854770000000000   0.734260000000000   0.087500000000000 1
ion O   0.335260000000000   0.940290000000000   0.973920000000000 1
ion O   0.843100000000000   0.462430000000000   0.984710000000000 1
ion O   0.843560000000000   0.952860000000000   0.971890000000000 1
ion O   0.375140000000000   0.483450000000000   0.417410000000000 1
ion O   0.379510000000000   0.982340000000000   0.411000000000000 1
ion O   0.879470000000000   0.477810000000000   0.411500000000000 1
ion O   0.867830000000000   0.963270000000000   0.419450000000000 1
ion O   0.096520000000000   0.156130000000000   0.267400000000000 1
ion O   0.105800000000000   0.652780000000000   0.275180000000000 1
ion O   0.608890000000000   0.170140000000000   0.283190000000000 1
ion O   0.623840000000000   0.652860000000000   0.272890000000000 1
ion O   0.126450000000000   0.251690000000000   0.927280000000000 1
ion O   0.137170000000000   0.755040000000000   0.916960000000000 1
ion O   0.614640000000000   0.272750000000000   0.907700000000000 1
ion O   0.621770000000000   0.778340000000000   0.915590000000000 1
ion O   0.347520000000000   0.189510000000000   0.540880000000000 1
ion O   0.341150000000000   0.699500000000000   0.519590000000000 1
ion O   0.837500000000000   0.192720000000000   0.533660000000000 1
ion O   0.846530000000000   0.688620000000000   0.529170000000000 1
ion O   0.131190000000000   0.406230000000000   0.220180000000000 1
ion O   0.105100000000000   0.906250000000000   0.205020000000000 1
ion O   0.628580000000000   0.388720000000000   0.222360000000000 1
ion O   0.607580000000000   0.914310000000000   0.217630000000000 1
ion O   0.170610000000000   0.290940000000000   0.474190000000000 1
ion O   0.152560000000000   0.798390000000000   0.481640000000000 1
ion O   0.667480000000000   0.303200000000000   0.470250000000000 1
ion O   0.659670000000000   0.818820000000000   0.467960000000000 1
ion O   0.389120000000000   0.346040000000000   0.729830000000000 1
ion O   0.373860000000000   0.848530000000000   0.735050000000000 1
ion O   0.875820000000000   0.341620000000000   0.707810000000000 1
ion O   0.880430000000000   0.827980000000000   0.717030000000000 1
ion O   0.156140000000000   0.055750000000000   0.026780000000000 1
ion O   0.160980000000000   0.556200000000000   0.020600000000000 1
ion O   0.662700000000000   0.063520000000000   0.011120000000000 1
ion O   0.670670000000000   0.545170000000000   0.014400000000000 1
ion O   0.126360000000000   0.022550000000000   0.591140000000000 1
ion O   0.140280000000000   0.517540000000000   0.609760000000000 1
ion O   0.619920000000000   0.031020000000000   0.586230000000000 1
ion O   0.619120000000000   0.517210000000000   0.590070000000000 1
ion-species GBRV/$ID_pbesol.uspp
ion-width 0
ionic-minimize  \
	dirUpdateScheme      L-BFGS \
	linminMethod         DirUpdateRecommended \
	nIterations          50 \
	history              15 \
	knormThreshold       0.0001 \
	maxThreshold         no \
	energyDiffThreshold  1e-05 \
	nEnergyDiff          2 \
	alphaTstart          1 \
	alphaTmin            1e-10 \
	updateTestStepSize   yes \
	alphaTreduceFactor   0.1 \
	alphaTincreaseFactor 3 \
	nAlphaAdjustMax      3 \
	wolfeEnergy          0.0001 \
	wolfeGradient        0.9 \
	fdTest               no
kpoint   0.500000000000   0.500000000000   0.500000000000  1.00000000000000
kpoint-folding 3 3 4 
latt-move-scale 1 1 1
latt-scale 1 1 1 
lattice  \
	  22.078756736136054  -10.797991864405642   -0.000000000000000  \
	   0.198108228965560   25.717610123310134   -0.000000000000000  \
	  -0.000000000000000   -0.000000000000000   15.143990300894858 
lattice-minimize  \
	dirUpdateScheme      L-BFGS \
	linminMethod         DirUpdateRecommended \
	nIterations          0 \
	history              15 \
	knormThreshold       0 \
	maxThreshold         no \
	energyDiffThreshold  1e-06 \
	nEnergyDiff          2 \
	alphaTstart          1 \
	alphaTmin            1e-10 \
	updateTestStepSize   yes \
	alphaTreduceFactor   0.1 \
	alphaTincreaseFactor 3 \
	nAlphaAdjustMax      3 \
	wolfeEnergy          0.0001 \
	wolfeGradient        0.9 \
	fdTest               no
lcao-params -1 1e-06 0.01
pcm-variant GLSSA13
perturb-minimize  \
	nIterations            0 \
	algorithm              MINRES \
	residualTol            0.0001 \
	residualDiffThreshold  0.0001 \
	CGBypass               no \
	recomputeResidual      no
spintype no-spin
subspace-rotation-factor 1 yes
symmetries automatic
symmetry-threshold 0.0001



---------- Setting up symmetries ----------

Found 4 point-group symmetries of the bravais lattice
Found 1 space-group symmetries with basis
Applied RMS atom displacement 0 bohrs to make symmetries exact.

---------- Initializing the Grid ----------
R = 
[      22.0788      -10.798            0  ]
[     0.198108      25.7176            0  ]
[            0            0       15.144  ]
unit cell volume = 8631.35
G =
[   0.283512   0.119038          0  ]
[ -0.00218396   0.243398          0  ]
[          0          0   0.414896  ]
Minimum fftbox size, Smin = [  100  128  72  ]
Chosen fftbox size, S = [  100  128  72  ]

---------- Initializing tighter grid for wavefunction operations ----------
R = 
[      22.0788      -10.798            0  ]
[     0.198108      25.7176            0  ]
[            0            0       15.144  ]
unit cell volume = 8631.35
G =
[   0.283512   0.119038          0  ]
[ -0.00218396   0.243398          0  ]
[          0          0   0.414896  ]
Minimum fftbox size, Smin = [  92  116  64  ]
Chosen fftbox size, S = [  96  120  64  ]

---------- Exchange Correlation functional ----------
Initalized PBEsol GGA exchange.
Initalized PBEsol GGA correlation.

---------- Setting up pseudopotentials ----------
Width of ionic core gaussian charges (only for fluid interactions / plotting) set to 0

Reading pseudopotential file '/home/rc652/JDFTx/build/pseudopotentials/GBRV/bi_pbesol.uspp':
  Title: Bi.  Created by USPP 7.3.6 on 16-12-2017
  Reference state energy: -92.043361.  15 valence electrons in orbitals:
    |520>  occupation: 10  eigenvalue: -1.293232
    |600>  occupation: 2  eigenvalue: -0.815623
    |610>  occupation: 2  eigenvalue: -0.421990
  lMax: 2  lLocal: 3  QijEcut: 5
  6 projectors sampled on a log grid with 747 points:
    l: 0  eig: -0.815622  rCut: 2.5
    l: 0  eig: 0.500000  rCut: 2.5
    l: 1  eig: -0.421989  rCut: 2.5
    l: 1  eig: 1.000000  rCut: 2.5
    l: 2  eig: -1.293232  rCut: 2.3
    l: 2  eig: -0.500000  rCut: 2.3
  Partial core density with radius 1
  Transforming core density to a uniform radial grid of dG=0.02 with 1492 points.
  Transforming local potential to a uniform radial grid of dG=0.02 with 1492 points.
  Transforming nonlocal projectors to a uniform radial grid of dG=0.02 with 432 points.
  Transforming density augmentations to a uniform radial grid of dG=0.02 with 1492 points.
  Transforming atomic orbitals to a uniform radial grid of dG=0.02 with 432 points.
  Core radius for overlap checks: 2.50 bohrs.

Reading pseudopotential file '/home/rc652/JDFTx/build/pseudopotentials/GBRV/o_pbesol.uspp':
  Title: O.  Created by USPP 7.3.6 on 3-2-2014
  Reference state energy: -15.849885.  6 valence electrons in orbitals:
    |200>  occupation: 2  eigenvalue: -0.873214
    |210>  occupation: 4  eigenvalue: -0.330058
  lMax: 2  lLocal: 2  QijEcut: 6
  5 projectors sampled on a log grid with 511 points:
    l: 0  eig: -0.873214  rCut: 1.25
    l: 0  eig: 0.000000  rCut: 1.25
    l: 1  eig: -0.330058  rCut: 1.25
    l: 1  eig: 0.000000  rCut: 1.25
    l: 2  eig: 1.000000  rCut: 1.25
  Partial core density with radius 0.7
  Transforming core density to a uniform radial grid of dG=0.02 with 1492 points.
  Transforming local potential to a uniform radial grid of dG=0.02 with 1492 points.
  Transforming nonlocal projectors to a uniform radial grid of dG=0.02 with 432 points.
  Transforming density augmentations to a uniform radial grid of dG=0.02 with 1492 points.
  Transforming atomic orbitals to a uniform radial grid of dG=0.02 with 432 points.
  Core radius for overlap checks: 1.25 bohrs.

Initialized 2 species with 79 total atoms.

Folded 1 k-points by 3x3x4 to 36 k-points.

---------- Setting up k-points, bands, fillings ----------
Adding inversion symmetry to k-mesh for non-inversion-symmetric unit cell.
Reduced to 18 k-points under symmetry. 
Computing the number of bands and number of electrons
Calculating initial fillings.
nElectrons: 762.000000   nBands: 476   nStates: 18

----- Setting up reduced wavefunction bases (one per k-point) -----
average nbasis = 36878.222 , ideal nbasis = 36873.776

---------- Setting up ewald sum ----------
Optimum gaussian width for ewald sums = 3.950618 bohr.
Real space sum over 441 unit cells with max indices [  3  3  4  ]
Reciprocal space sum over 7875 terms with max indices [  10  12  7  ]

---------- Allocating electronic variables ----------
Initializing wave functions:  linear combination of atomic orbitals
Bi pseudo-atom occupations:   s ( 2 )  p ( 3 )  d ( 10 )
O pseudo-atom occupations:   s ( 2 )  p ( 4 )
	FillingsUpdate:  mu: +0.730443305  nElectrons: 762.000000
LCAOMinimize: Iter:   0  F: -3037.5990391974146405  |grad|_K:  3.585e-03  alpha:  1.000e+00
	FillingsUpdate:  mu: +0.663023802  nElectrons: 762.000000
LCAOMinimize: Iter:   1  F: -3043.5338557408781526  |grad|_K:  3.056e-03  alpha:  1.107e-01  linmin: -3.913e-01  cgtest:  8.278e-01  t[s]:    156.11
LCAOMinimize: 	Predicted alpha/alphaT>3.000000, increasing alphaT to 3.320446e-01.
	FillingsUpdate:  mu: +0.540787746  nElectrons: 762.000000
LCAOMinimize: Iter:   2  F: -3049.1329285778401754  |grad|_K:  2.016e-03  alpha:  1.699e-01  linmin: -1.802e-01  cgtest:  5.506e-01  t[s]:    227.96
	FillingsUpdate:  mu: +0.502133923  nElectrons: 762.000000
LCAOMinimize: Iter:   3  F: -3050.4880563209972024  |grad|_K:  1.407e-03  alpha:  1.486e-01  linmin:  2.518e-02  cgtest: -2.354e-01  t[s]:    285.97
	FillingsUpdate:  mu: +0.455555462  nElectrons: 762.000000
LCAOMinimize: Iter:   4  F: -3050.9070315921258043  |grad|_K:  7.736e-04  alpha:  1.074e-01  linmin:  5.644e-03  cgtest:  5.925e-01  t[s]:    342.98
LCAOMinimize: Encountered beta<0, resetting CG.
	FillingsUpdate:  mu: +0.438373523  nElectrons: 762.000000
LCAOMinimize: Iter:   5  F: -3050.9854805874465455  |grad|_K:  1.996e-04  alpha:  6.280e-02  linmin: -1.167e-02  cgtest:  6.040e-02  t[s]:    400.01
	FillingsUpdate:  mu: +0.441795004  nElectrons: 762.000000
LCAOMinimize: Iter:   6  F: -3050.9967190175580072  |grad|_K:  1.247e-04  alpha:  1.357e-01  linmin: -9.415e-03  cgtest: -1.045e-02  t[s]:    457.07
	FillingsUpdate:  mu: +0.443221497  nElectrons: 762.000000
LCAOMinimize: Iter:   7  F: -3051.0015248690956469  |grad|_K:  7.355e-05  alpha:  1.481e-01  linmin: -3.552e-03  cgtest: -3.384e-02  t[s]:    514.60
	FillingsUpdate:  mu: +0.443436261  nElectrons: 762.000000
LCAOMinimize: Iter:   8  F: -3051.0032727412026361  |grad|_K:  5.563e-05  alpha:  1.565e-01  linmin:  2.914e-04  cgtest: -1.158e-03  t[s]:    571.48
	FillingsUpdate:  mu: +0.442557761  nElectrons: 762.000000
LCAOMinimize: Iter:   9  F: -3051.0041248158358940  |grad|_K:  3.174e-05  alpha:  1.344e-01  linmin:  1.319e-03  cgtest:  1.095e-02  t[s]:    628.48
	FillingsUpdate:  mu: +0.442505805  nElectrons: 762.000000
LCAOMinimize: Iter:  10  F: -3051.0044352771715239  |grad|_K:  2.247e-05  alpha:  1.510e-01  linmin:  6.773e-04  cgtest:  2.460e-03  t[s]:    685.93
	FillingsUpdate:  mu: +0.442215109  nElectrons: 762.000000
LCAOMinimize: Iter:  11  F: -3051.0045497752512347  |grad|_K:  9.672e-06  alpha:  1.108e-01  linmin:  3.662e-04  cgtest:  6.317e-03  t[s]:    743.79
	FillingsUpdate:  mu: +0.442220132  nElectrons: 762.000000
LCAOMinimize: Iter:  12  F: -3051.0045805459872099  |grad|_K:  6.291e-06  alpha:  1.608e-01  linmin:  2.415e-04  cgtest: -1.322e-04  t[s]:    801.94
	FillingsUpdate:  mu: +0.442281452  nElectrons: 762.000000
LCAOMinimize: Iter:  13  F: -3051.0045931471045151  |grad|_K:  4.795e-06  alpha:  1.556e-01  linmin: -1.215e-05  cgtest:  9.939e-04  t[s]:    860.06
	FillingsUpdate:  mu: +0.442311754  nElectrons: 762.000000
LCAOMinimize: Iter:  14  F: -3051.0045983251843609  |grad|_K:  1.868e-06  alpha:  1.100e-01  linmin: -2.988e-06  cgtest: -1.194e-03  t[s]:    918.06
	FillingsUpdate:  mu: +0.442317195  nElectrons: 762.000000
LCAOMinimize: Iter:  15  F: -3051.0045994619804333  |grad|_K:  1.058e-06  alpha:  1.591e-01  linmin: -1.288e-05  cgtest: -2.121e-05  t[s]:    976.74
	FillingsUpdate:  mu: +0.442322646  nElectrons: 762.000000
LCAOMinimize: Iter:  16  F: -3051.0045998498198969  |grad|_K:  9.723e-07  alpha:  1.692e-01  linmin:  5.604e-05  cgtest: -4.823e-04  t[s]:   1034.44
	FillingsUpdate:  mu: +0.442312761  nElectrons: 762.000000
LCAOMinimize: Iter:  17  F: -3051.0046001501273167  |grad|_K:  6.081e-07  alpha:  1.552e-01  linmin:  1.378e-06  cgtest:  1.032e-03  t[s]:   1091.06
LCAOMinimize: Converged (|Delta F|<1.000000e-06 for 2 iters).


---- Citations for features of the code used in this run ----

   Software package:
      R. Sundararaman, K. Letchworth-Weaver, K.A. Schwarz, D. Gunceler, Y. Ozhabes and T.A. Arias, 'JDFTx: software for joint density-functional theory', SoftwareX 6, 278 (2017)

   gga-PBEsol exchange-correlation functional:
      J.P. Perdew et al., Phys. Rev. Lett. 100, 136406 (2008)

   Pseudopotentials:
      KF Garrity, JW Bennett, KM Rabe and D Vanderbilt, Comput. Mater. Sci. 81, 446 (2014)

This list may not be complete. Please suggest additional citations or
report any other bugs at https://github.com/shankar1729/jdftx/issues

Initialization completed successfully at t[s]:   1109.10


-------- Electronic minimization -----------
Will mix electronic density at each iteration.
	FillingsUpdate:  mu: +0.442312761  nElectrons: 762.000000
	FillingsUpdate:  mu: +0.425753407  nElectrons: 762.000000
SCF: Cycle:  0   F: -3052.432632323210328   dF: -1.428e+00   |Residual|: 1.437e+00   |deigs|: 1.240e-02  t[s]:   1302.34
	FillingsUpdate:  mu: +0.390402075  nElectrons: 762.000000
SCF: Cycle:  1   F: -3053.395752023907335   dF: -9.631e-01   |Residual|: 5.960e-01   |deigs|: 3.229e-02  t[s]:   1459.20
	FillingsUpdate:  mu: +0.401228180  nElectrons: 762.000000
SCF: Cycle:  2   F: -3054.195571546799783   dF: -7.998e-01   |Residual|: 2.609e-01   |deigs|: 1.501e-02  t[s]:   1615.09
	FillingsUpdate:  mu: +0.397810726  nElectrons: 762.000000
SCF: Cycle:  3   F: -3054.216947736405473   dF: -2.138e-02   |Residual|: 1.514e-01   |deigs|: 3.805e-03  t[s]:   1773.27
	FillingsUpdate:  mu: +0.397053320  nElectrons: 762.000000
SCF: Cycle:  4   F: -3054.252601152869374   dF: -3.565e-02   |Residual|: 5.102e-02   |deigs|: 2.590e-03  t[s]:   1929.88
	FillingsUpdate:  mu: +0.396817618  nElectrons: 762.000000
SCF: Cycle:  5   F: -3054.255803642156934   dF: -3.202e-03   |Residual|: 2.771e-02   |deigs|: 3.431e-04  t[s]:   2075.70
	FillingsUpdate:  mu: +0.396805076  nElectrons: 762.000000
SCF: Cycle:  6   F: -3054.256566952729372   dF: -7.633e-04   |Residual|: 1.430e-02   |deigs|: 1.962e-04  t[s]:   2187.44
	FillingsUpdate:  mu: +0.396767604  nElectrons: 762.000000
SCF: Cycle:  7   F: -3054.256973285972890   dF: -4.063e-04   |Residual|: 4.047e-03   |deigs|: 8.781e-05  t[s]:   2287.94
	FillingsUpdate:  mu: +0.396729431  nElectrons: 762.000000
SCF: Cycle:  8   F: -3054.256994515269071   dF: -2.123e-05   |Residual|: 2.348e-03   |deigs|: 9.824e-05  t[s]:   2388.49
	FillingsUpdate:  mu: +0.396707249  nElectrons: 762.000000
SCF: Cycle:  9   F: -3054.257003687137967   dF: -9.172e-06   |Residual|: 1.313e-03   |deigs|: 5.120e-05  t[s]:   2488.56
	FillingsUpdate:  mu: +0.396706824  nElectrons: 762.000000
SCF: Cycle: 10   F: -3054.257005345019934   dF: -1.658e-06   |Residual|: 6.459e-04   |deigs|: 5.341e-06  t[s]:   2588.67
	FillingsUpdate:  mu: +0.396707984  nElectrons: 762.000000
SCF: Cycle: 11   F: -3054.257006316699062   dF: -9.717e-07   |Residual|: 2.809e-04   |deigs|: 2.350e-06  t[s]:   2689.25
	FillingsUpdate:  mu: +0.396707065  nElectrons: 762.000000
SCF: Cycle: 12   F: -3054.257006566590462   dF: -2.499e-07   |Residual|: 1.840e-04   |deigs|: 1.707e-06  t[s]:   2790.49
	FillingsUpdate:  mu: +0.396706142  nElectrons: 762.000000
SCF: Cycle: 13   F: -3054.257006730133526   dF: -1.635e-07   |Residual|: 1.106e-04   |deigs|: 1.245e-06  t[s]:   2891.41
	FillingsUpdate:  mu: +0.396706023  nElectrons: 762.000000
SCF: Cycle: 14   F: -3054.257006826279849   dF: -9.615e-08   |Residual|: 6.125e-05   |deigs|: 1.398e-06  t[s]:   2991.81
	FillingsUpdate:  mu: +0.396705614  nElectrons: 762.000000
SCF: Cycle: 15   F: -3054.257006871402609   dF: -4.512e-08   |Residual|: 3.024e-05   |deigs|: 3.886e-07  t[s]:   3092.03
	FillingsUpdate:  mu: +0.396705582  nElectrons: 762.000000
SCF: Cycle: 16   F: -3054.257006895095856   dF: -2.369e-08   |Residual|: 2.516e-05   |deigs|: 1.688e-07  t[s]:   3192.30
	FillingsUpdate:  mu: +0.396705542  nElectrons: 762.000000
SCF: Cycle: 17   F: -3054.257006910999735   dF: -1.590e-08   |Residual|: 1.720e-05   |deigs|: 1.597e-07  t[s]:   3293.44
	FillingsUpdate:  mu: +0.396705623  nElectrons: 762.000000
SCF: Cycle: 18   F: -3054.257006918647221   dF: -7.647e-09   |Residual|: 1.090e-05   |deigs|: 1.257e-07  t[s]:   3386.69
	FillingsUpdate:  mu: +0.396705660  nElectrons: 762.000000
SCF: Cycle: 19   F: -3054.257006922112851   dF: -3.466e-09   |Residual|: 4.914e-06   |deigs|: 9.538e-08  t[s]:   3477.09
SCF: Converged (|Delta E|<1.000000e-08 for 2 iters).

Setting wave functions to eigenvectors of Hamiltonian

# Ionic positions in lattice coordinates:
ion Bi   0.241570000000000   0.074730000000000   0.304870000000000 1
ion Bi   0.233280000000000   0.566240000000000   0.315520000000000 1
ion Bi   0.722340000000000   0.076660000000000   0.294930000000000 1
ion Bi   0.731480000000000   0.571080000000000   0.309990000000000 1
ion Bi   0.013020000000000   0.138380000000000   0.544740000000000 1
ion Bi   0.023690000000000   0.639950000000000   0.552200000000000 1
ion Bi   0.515900000000000   0.140740000000000   0.528890000000000 1
ion Bi   0.519490000000000   0.624320000000000   0.536330000000000 1
ion Bi   0.242020000000000   0.172220000000000   0.826050000000000 1
ion Bi   0.270310000000000   0.674250000000000   0.808700000000000 1
ion Bi   0.766020000000000   0.192540000000000   0.817020000000000 1
ion Bi   0.755810000000000   0.696110000000000   0.812590000000000 1
ion Bi   0.467190000000000   0.099730000000000   0.050320000000000 1
ion Bi   0.483100000000000   0.608550000000000   0.034430000000000 1
ion Bi   0.995570000000000   0.110470000000000   0.037040000000000 1
ion Bi   0.980320000000000   0.605100000000000   0.034800000000000 1
ion Bi   0.246750000000000   0.315490000000000   0.189540000000000 1
ion Bi   0.248520000000000   0.806920000000000   0.198730000000000 1
ion Bi   0.743830000000000   0.321460000000000   0.185100000000000 1
ion Bi   0.754980000000000   0.816820000000000   0.186600000000000 1
ion Bi   0.256050000000000   0.432820000000000   0.694800000000000 1
ion Bi   0.273040000000000   0.930710000000000   0.685300000000000 1
ion Bi   0.739740000000000   0.423360000000000   0.675730000000000 1
ion Bi   0.760510000000000   0.930620000000000   0.684870000000000 1
ion Bi   0.482210000000000   0.365310000000000   0.464100000000000 1
ion Bi   0.461180000000000   0.861810000000000   0.453790000000000 1
ion Bi   0.969640000000000   0.358080000000000   0.460040000000000 1
ion Bi   0.973140000000000   0.840780000000000   0.465520000000000 1
ion Bi   0.003730000000000   0.408010000000000   0.978460000000000 1
ion Bi   0.017270000000000   0.868670000000000   0.964830000000000 1
ion Bi   0.517150000000000   0.395310000000000   0.948990000000000 1
ion Bi   0.525510000000000   0.875410000000000   0.943200000000000 1
ion O   0.377700000000000   0.092500000000000   0.785250000000000 1
ion O   0.381120000000000   0.581520000000000   0.793890000000000 1
ion O   0.880860000000000   0.080680000000000   0.783160000000000 1
ion O   0.877210000000000   0.583840000000000   0.784600000000000 1
ion O   0.365430000000000   0.224030000000000   0.073510000000000 1
ion O   0.373690000000000   0.723470000000000   0.083050000000000 1
ion O   0.882410000000000   0.237900000000000   0.089370000000000 1
ion O   0.854770000000000   0.734260000000000   0.087500000000000 1
ion O   0.335260000000000   0.940290000000000   0.973920000000000 1
ion O   0.843100000000000   0.462430000000000   0.984710000000000 1
ion O   0.843560000000000   0.952860000000000   0.971890000000000 1
ion O   0.375140000000000   0.483450000000000   0.417410000000000 1
ion O   0.379510000000000   0.982340000000000   0.411000000000000 1
ion O   0.879470000000000   0.477810000000000   0.411500000000000 1
ion O   0.867830000000000   0.963270000000000   0.419450000000000 1
ion O   0.096520000000000   0.156130000000000   0.267400000000000 1
ion O   0.105800000000000   0.652780000000000   0.275180000000000 1
ion O   0.608890000000000   0.170140000000000   0.283190000000000 1
ion O   0.623840000000000   0.652860000000000   0.272890000000000 1
ion O   0.126450000000000   0.251690000000000   0.927280000000000 1
ion O   0.137170000000000   0.755040000000000   0.916960000000000 1
ion O   0.614640000000000   0.272750000000000   0.907700000000000 1
ion O   0.621770000000000   0.778340000000000   0.915590000000000 1
ion O   0.347520000000000   0.189510000000000   0.540880000000000 1
ion O   0.341150000000000   0.699500000000000   0.519590000000000 1
ion O   0.837500000000000   0.192720000000000   0.533660000000000 1
ion O   0.846530000000000   0.688620000000000   0.529170000000000 1
ion O   0.131190000000000   0.406230000000000   0.220180000000000 1
ion O   0.105100000000000   0.906250000000000   0.205020000000000 1
ion O   0.628580000000000   0.388720000000000   0.222360000000000 1
ion O   0.607580000000000   0.914310000000000   0.217630000000000 1
ion O   0.170610000000000   0.290940000000000   0.474190000000000 1
ion O   0.152560000000000   0.798390000000000   0.481640000000000 1
ion O   0.667480000000000   0.303200000000000   0.470250000000000 1
ion O   0.659670000000000   0.818820000000000   0.467960000000000 1
ion O   0.389120000000000   0.346040000000000   0.729830000000000 1
ion O   0.373860000000000   0.848530000000000   0.735050000000000 1
ion O   0.875820000000000   0.341620000000000   0.707810000000000 1
ion O   0.880430000000000   0.827980000000000   0.717030000000000 1
ion O   0.156140000000000   0.055750000000000   0.026780000000000 1
ion O   0.160980000000000   0.556200000000000   0.020600000000000 1
ion O   0.662700000000000   0.063520000000000   0.011120000000000 1
ion O   0.670670000000000   0.545170000000000   0.014400000000000 1
ion O   0.126360000000000   0.022550000000000   0.591140000000000 1
ion O   0.140280000000000   0.517540000000000   0.609760000000000 1
ion O   0.619920000000000   0.031020000000000   0.586230000000000 1
ion O   0.619120000000000   0.517210000000000   0.590070000000000 1

# Forces in Lattice coordinates:
force Bi  -0.626933747734903   0.020528597664192   0.232789017426908 1
force Bi  -0.013211341188313   0.126874218566535  -0.053391784510327 1
force Bi   0.197823131802751  -0.505123540443716  -0.092265471090376 1
force Bi   0.782142406072435  -0.959065294713883  -0.235244306335282 1
force Bi   0.040991446397220  -0.399850832832056  -0.206080528733345 1
force Bi  -0.154909490091793  -0.382242531017713  -0.071494189437066 1
force Bi   0.010786240175734   0.021166240983158   0.409984008326438 1
force Bi  -0.246368702557552   0.698575511513717  -0.182409416374117 1
force Bi   1.092536963858145  -0.803863082201005  -0.320678977457773 1
force Bi  -0.502591841594808   0.456813744734072  -0.097755786788434 1
force Bi   0.228531143404975  -0.969830459788145   0.003188988484312 1
force Bi   0.309571976385174  -1.663173643946418  -0.117828471733167 1
force Bi  -0.024622418188190  -0.141513318522266  -0.619022137464784 1
force Bi   0.189452735940109   0.068432656217617   0.250719637597490 1
force Bi  -0.814951722058372  -0.023139710143433  -0.034953214101927 1
force Bi  -0.309916619991393   1.235881957796991  -0.067297188416308 1
force Bi  -0.647125370389197   0.112299577311974   0.338646310181570 1
force Bi  -0.770797392195557   0.674700105919922  -0.294370953348939 1
force Bi   0.123637411662436  -0.334697347384113   0.109983000640199 1
force Bi  -1.308278079248992   2.013934498014808   0.418714586130392 1
force Bi  -0.056571631720083  -0.804334315896321  -0.302489489852295 1
force Bi  -0.983562115641001   1.201144432096087   0.235179151024368 1
force Bi   0.772622593552068  -0.440538181511087   0.087091520768758 1
force Bi   0.112136756363577   0.099190162313865  -0.330341991070221 1
force Bi  -0.256758731517148  -0.483485031191279   0.090284421772047 1
force Bi   1.038313751837955  -0.490457069814227   0.121775894982819 1
force Bi  -0.167600022146510  -0.049133279412247   0.192690922444638 1
force Bi   0.088798461126417   1.004099610332287  -0.095985828244801 1
force Bi   0.679304050970997  -1.249948264070215  -0.141599971827288 1
force Bi   0.416889612691456   0.544548879789901   0.094130382011445 1
force Bi   0.623643276091010  -0.725074030623301   0.431790624865476 1
force Bi  -0.316776134170152   1.124547844806850   0.587324362349126 1
force O   0.463907980418968  -0.248723460528274   0.152746920808968 1
force O   0.487832550320597  -0.461184752221196  -0.137457496567081 1
force O   0.086229390103147   0.681697670908991  -0.302154019435576 1
force O   0.136959927717057   0.650377517670468  -0.248512251199979 1
force O  -0.129236435316405   0.119104292485852  -0.120261866339525 1
force O   0.171965619818169   0.167660974418924  -0.243289571354267 1
force O  -0.034238281670729   0.049962434643302  -0.325136526962914 1
force O   0.621662121290242  -0.385339258526491  -0.420772469492931 1
force O   0.318873406067643  -0.173546313984458   0.507180433193499 1
force O   0.644466049380204  -1.507730096278481   0.346378063950283 1
force O   0.609162446166531  -1.300481458130596   0.438602123314835 1
force O   0.070185980149010   0.200578198781673   0.369526773691077 1
force O  -0.254828135482255   0.407594200484736   0.176252274069191 1
force O   0.114535512676677   0.059418899664088   0.317591091317459 1
force O   0.036214217233572   0.453797836530913   0.331871778437291 1
force O   0.455736807386530  -0.083982971017633   0.275807471521111 1
force O   0.125783059614186  -0.109782194709300   0.160406434920975 1
force O   0.079370581556146  -0.643903068846073  -0.308830622185844 1
force O  -0.728837200544684   0.572413122439174   0.120025498319266 1
force O  -0.015119198549080   0.430480794172428   0.244377747366617 1
force O  -0.308818932530516   0.038356418939827   0.268870027925145 1
force O   0.212708120099240  -0.053211828075764   0.170152954324172 1
force O   0.439357297207937  -0.981235763634103   0.141163676618757 1
force O   0.379027301067346   0.043545355086965  -0.709627600711236 1
force O   0.379407116942269  -0.492041406146919  -0.190943930321552 1
force O   0.606836869768440  -0.193159983325936  -0.411938336474766 1
force O   0.383029955949702  -0.666862332243580  -0.447804252724506 1
force O  -0.319797827523873   0.164517983150885  -0.074925698242837 1
force O   0.144402243538111  -0.476745458254202   0.280470999366667 1
force O  -1.549747386145611   1.643247225910538  -0.044387348308938 1
force O  -0.375121686483075   0.024936143397567  -0.052831658510705 1
force O  -0.243777961993046   0.639532949065332   0.338807812540530 1
force O  -0.429422596437222   0.355542600832661   0.234777762690901 1
force O  -0.434964471477147   0.581453536638023   0.607467105753020 1
force O  -0.441784037461235  -0.272512806412786   0.333143362075940 1
force O   0.053397242742907   0.304916487682434  -0.100736463694620 1
force O   1.063391960505685  -1.147754900404075  -0.271583413144011 1
force O   0.121061856720951   0.747258534604366   0.219686578169172 1
force O   0.001240631968445   0.928873478849122   0.090729705994267 1
force O  -0.470988142157494   0.309023303526057  -0.419595399023964 1
force O  -0.559300361011973   0.342432205734519  -0.270721286952547 1
force O  -0.637089209010179   0.425132926079497  -0.082268575288858 1
force O  -0.612174254670880   0.578949642642610  -0.094623074099075 1
force O  -0.101305747610761  -0.019062674845703  -0.312899294459856 1
force O  -0.044419268179118  -0.151928473651241  -0.295049725059157 1
force O   0.093502056693619  -0.452759431981130  -0.258764602329232 1
force O  -0.114441089736736  -0.078007912288035  -0.327498568702847 1

# Energy components:
   Eewald =    -2381.6075282305573637
       EH =      682.3923989550156648
     Eloc =    -2227.4288452502946711
      Enl =      865.7539797538590847
      Exc =    -1196.2703999954494520
 Exc_core =      661.9337981957496595
       KE =      541.1081381623985180
-------------------------------------
     Etot =    -3054.1184584092784462
       TS =        0.1385485128345411
-------------------------------------
        F =    -3054.2570069221128506

IonicMinimize: Iter:   0  F: -3054.257006922112851  |grad|_K:  2.088e-02  t[s]:   3526.31

#--- Lowdin population analysis ---
# oxidation-state Bi +1.258 +1.244 +1.304 +1.274 +1.245 +1.242 +1.307 +1.192 +1.341 +1.314 +1.326 +1.258 +1.237 +0.997 +1.361 +1.266 +1.184 +1.250 +1.323 +1.286 +1.195 +1.338 +1.266 +1.308 +1.175 +1.219 +1.207 +1.250 +1.164 +1.254 +1.054 +1.281
# oxidation-state O -0.749 -0.781 -0.747 -0.759 -0.807 -0.795 -0.806 -0.782 -0.779 -0.718 -0.763 -0.787 -0.816 -0.811 -0.781 -0.742 -0.768 -0.751 -0.765 -0.810 -0.805 -0.793 -0.798 -0.745 -0.820 -0.763 -0.776 -0.781 -0.775 -0.774 -0.760 -0.766 -0.790 -0.753 -0.776 -0.771 -0.761 -0.770 -0.766 -0.766 -0.783 -0.776 -0.764 -0.802 -0.810 -0.809 -0.794


-------- Electronic minimization -----------
Will mix electronic density at each iteration.
	FillingsUpdate:  mu: +0.396705660  nElectrons: 762.000000
	FillingsUpdate:  mu: +0.397297172  nElectrons: 762.000000
SCF: Cycle:  0   F: -3053.460048640108653   dF: -2.166e-02   |Residual|: 4.991e-01   |deigs|: 1.603e-03  t[s]:   3743.18
	FillingsUpdate:  mu: +0.398565810  nElectrons: 762.000000
SCF: Cycle:  1   F: -3054.092090944264783   dF: -6.320e-01   |Residual|: 4.222e-01   |deigs|: 4.275e-03  t[s]:   3899.38
	FillingsUpdate:  mu: +0.396813718  nElectrons: 762.000000
SCF: Cycle:  2   F: -3054.224271362392301   dF: -1.322e-01   |Residual|: 1.652e-01   |deigs|: 2.526e-03  t[s]:   4058.32
	FillingsUpdate:  mu: +0.397735509  nElectrons: 762.000000
SCF: Cycle:  3   F: -3054.324327866872864   dF: -1.001e-01   |Residual|: 1.039e-01   |deigs|: 1.539e-03  t[s]:   4215.68
	FillingsUpdate:  mu: +0.397180955  nElectrons: 762.000000
SCF: Cycle:  4   F: -3054.349415572984071   dF: -2.509e-02   |Residual|: 3.800e-02   |deigs|: 6.714e-04  t[s]:   4362.30
	FillingsUpdate:  mu: +0.397036971  nElectrons: 762.000000
SCF: Cycle:  5   F: -3054.351095900542532   dF: -1.680e-03   |Residual|: 2.782e-02   |deigs|: 3.513e-04  t[s]:   4506.43
	FillingsUpdate:  mu: +0.397056037  nElectrons: 762.000000
SCF: Cycle:  6   F: -3054.353067800076587   dF: -1.972e-03   |Residual|: 7.871e-03   |deigs|: 1.685e-04  t[s]:   4606.57
	FillingsUpdate:  mu: +0.397101482  nElectrons: 762.000000
SCF: Cycle:  7   F: -3054.353235547801887   dF: -1.677e-04   |Residual|: 4.947e-03   |deigs|: 8.941e-05  t[s]:   4707.02
	FillingsUpdate:  mu: +0.397077116  nElectrons: 762.000000
SCF: Cycle:  8   F: -3054.353312914438902   dF: -7.737e-05   |Residual|: 2.862e-03   |deigs|: 5.460e-05  t[s]:   4807.32
	FillingsUpdate:  mu: +0.397059705  nElectrons: 762.000000
SCF: Cycle:  9   F: -3054.353326733330505   dF: -1.382e-05   |Residual|: 1.508e-03   |deigs|: 2.468e-05  t[s]:   4907.88
	FillingsUpdate:  mu: +0.397058407  nElectrons: 762.000000
SCF: Cycle: 10   F: -3054.353331665373844   dF: -4.932e-06   |Residual|: 4.212e-04   |deigs|: 9.550e-06  t[s]:   5007.51
	FillingsUpdate:  mu: +0.397060807  nElectrons: 762.000000
SCF: Cycle: 11   F: -3054.353331951899236   dF: -2.865e-07   |Residual|: 2.841e-04   |deigs|: 3.906e-06  t[s]:   5107.08
	FillingsUpdate:  mu: +0.397059521  nElectrons: 762.000000
SCF: Cycle: 12   F: -3054.353332085463080   dF: -1.336e-07   |Residual|: 1.646e-04   |deigs|: 1.710e-06  t[s]:   5207.57
	FillingsUpdate:  mu: +0.397059189  nElectrons: 762.000000
SCF: Cycle: 13   F: -3054.353332144962678   dF: -5.950e-08   |Residual|: 7.400e-05   |deigs|: 1.075e-06  t[s]:   5307.97
	FillingsUpdate:  mu: +0.397059009  nElectrons: 762.000000
SCF: Cycle: 14   F: -3054.353332157630575   dF: -1.267e-08   |Residual|: 3.833e-05   |deigs|: 3.929e-07  t[s]:   5408.59
	FillingsUpdate:  mu: +0.397058986  nElectrons: 762.000000
SCF: Cycle: 15   F: -3054.353332162508650   dF: -4.878e-09   |Residual|: 2.013e-05   |deigs|: 2.002e-07  t[s]:   5509.30
	FillingsUpdate:  mu: +0.397058924  nElectrons: 762.000000
SCF: Cycle: 16   F: -3054.353332164642325   dF: -2.134e-09   |Residual|: 1.023e-05   |deigs|: 1.041e-07  t[s]:   5610.18
SCF: Converged (|Delta E|<1.000000e-08 for 2 iters).

Setting wave functions to eigenvectors of Hamiltonian

# Ionic positions in lattice coordinates:
ion Bi   0.240083247291361   0.074310556328321   0.305885340180205 1
ion Bi   0.233339468836687   0.566420943763653   0.315287497457177 1
ion Bi   0.722450973019379   0.076044044606436   0.294527995357149 1
ion Bi   0.732664363928193   0.570202464243304   0.308964560459002 1
ion Bi   0.012830976410565   0.137809392225319   0.543841724152060 1
ion Bi   0.023044447851019   0.639265117286142   0.551888564998731 1
ion Bi   0.515941020228639   0.140779538410446   0.530677968806774 1
ion Bi   0.519401674876274   0.625191463992714   0.535534938012331 1
ion Bi   0.244059216809374   0.171798316052106   0.824652037103372 1
ion Bi   0.269434391410279   0.674574615319211   0.808274055769152 1
ion Bi   0.765870754350552   0.191248692127774   0.817034208296503 1
ion Bi   0.755356869046784   0.693836364568753   0.812076532239725 1
ion Bi   0.467029377651268   0.099499966180994   0.047621162486138 1
ion Bi   0.483602867473802   0.608788795738207   0.035523523600434 1
ion Bi   0.993601587856289   0.109849982404088   0.036887895708043 1
ion Bi   0.980465385874832   0.606732183644513   0.034506865308000 1
ion Bi   0.245280801152894   0.315193779295757   0.191016912904683 1
ion Bi   0.247158540368481   0.807378976312595   0.197446748768932 1
ion Bi   0.743885705064238   0.321046529376183   0.185579865426644 1
ion Bi   0.753293163586957   0.818902797805047   0.188426037006691 1
ion Bi   0.255336807245424   0.431572292666681   0.693481349271031 1
ion Bi   0.271547081402659   0.931806223729574   0.686325761951325 1
ion Bi   0.741273982422219   0.423253805086453   0.676110051021263 1
ion Bi   0.760849789408620   0.930849424871880   0.683429903175669 1
ion Bi   0.481247808126639   0.364400027408117   0.464493973123148 1
ion Bi   0.463314449687051   0.861819714938607   0.454321286337094 1
ion Bi   0.969203301226762   0.357885915481242   0.460880499255545 1
ion Bi   0.974073821831498   0.842350703228522   0.465101773372408 1
ion Bi   0.004459151174334   0.406622061529512   0.977842880655806 1
ion Bi   0.018659527696032   0.869786676287088   0.965240742778783 1
ion Bi   0.518122822476722   0.394669788297751   0.950873052850071 1
ion Bi   0.525558994884123   0.876870172608849   0.945761231264522 1
ion O   0.378632388475099   0.092459944595884   0.785916330228719 1
ion O   0.381957092325601   0.581178277050897   0.793290943214768 1
ion O   0.881556112527832   0.081765014206438   0.781842812032738 1
ion O   0.878005115370769   0.584914446406604   0.783516707841577 1
ion O   0.365206012636873   0.224115951180549   0.072985921836332 1
ion O   0.374222254556793   0.723845152725417   0.081989480448949 1
ion O   0.882363870309378   0.237950416576194   0.087952600716742 1
ion O   0.855982083002142   0.734128221445857   0.085665596451822 1
ion O   0.335899030172710   0.940258599337323   0.976131777289571 1
ion O   0.843560570661811   0.460630174675107   0.986220625902240 1
ion O   0.844084870614487   0.951345846661053   0.973802753230793 1
ion O   0.375452138121105   0.483801452688067   0.419021561914726 1
ion O   0.379192425398152   0.982768698802244   0.411768821324625 1
ion O   0.879786969704010   0.477981461096717   0.412885105203176 1
ion O   0.868242645207970   0.963977072088137   0.420897373710992 1
ion O   0.097551139231219   0.156331309724857   0.268602914834179 1
ion O   0.106022383036818   0.652705611249204   0.275879728237536 1
ion O   0.608617609050021   0.169230696255072   0.281843699841773 1
ion O   0.622505568561216   0.653195606166443   0.273413654030090 1
ion O   0.126722956806264   0.252325210260513   0.928345870866494 1
ion O   0.136457924451027   0.754875788749669   0.918132665291062 1
ion O   0.615111195366748   0.272822940651707   0.908442226278040 1
ion O   0.622117483370009   0.777182995833549   0.916205823462108 1
ion O   0.348459016671558   0.189847602993251   0.537786092770722 1
ion O   0.341705255604338   0.699034095373033   0.518757724715521 1
ion O   0.838814604660929   0.192865986147764   0.531864116186642 1
ion O   0.846968371761226   0.687894335337615   0.527217728957680 1
ion O   0.130542242550377   0.406247240088336   0.219853602488097 1
ion O   0.105103413826593   0.905638264829318   0.206243249354337 1
ion O   0.626048617725641   0.390073061062126   0.222166759770068 1
ion O   0.606699493142448   0.914078028146175   0.217399939791352 1
ion O   0.170485473876519   0.291724716752943   0.475667617108257 1
ion O   0.151786893691190   0.798615184750562   0.482664011765752 1
ion O   0.666855875534699   0.303760239686921   0.472899060271948 1
ion O   0.658416204696156   0.818093753991561   0.469412918235221 1
ion O   0.389466867892702   0.346535980041895   0.729391059034354 1
ion O   0.375582424640313   0.847571288706472   0.733866109963072 1
ion O   0.876646622270352   0.342828421976358   0.708768209221836 1
ion O   0.881100095046065   0.829374921767363   0.717425914709281 1
ion O   0.155233934572148   0.055875517708906   0.024950728867446 1
ion O   0.159886425228269   0.556312228166689   0.019419869117729 1
ion O   0.661479521470665   0.063700471316545   0.010761585121362 1
ion O   0.669619666531126   0.545599205838717   0.013987715430130 1
ion O   0.126103670876144   0.022448657931787   0.589775959088183 1
ion O   0.140064484549514   0.517280117112233   0.608473789100312 1
ion O   0.619818737141825   0.030407704111570   0.585102004207846 1
ion O   0.618789876411194   0.517010761918522   0.588642301435390 1

# Forces in Lattice coordinates:
force Bi  -0.553544357411287   0.023922165704342   0.214252329536332 1
force Bi  -0.025210006158435   0.146661007707947  -0.040435405152943 1
force Bi   0.144497892719231  -0.394845679054415  -0.070071989948226 1
force Bi   0.563026296459649  -0.703189461879624  -0.219846945056219 1
force Bi   0.024127792295554  -0.336542460184678  -0.185132552442529 1
force Bi  -0.172876839209370  -0.309060387048841  -0.077865613890831 1
force Bi   0.043163217786474   0.002450685648201   0.320736870951937 1
force Bi  -0.226998077212692   0.630023380956406  -0.166372829274703 1
force Bi   0.886700312096544  -0.589484246095624  -0.245560399165227 1
force Bi  -0.365606034863974   0.330546944389065  -0.096050109203593 1
force Bi   0.245327847295683  -0.899892963990943  -0.006399008148561 1
force Bi   0.396704289571520  -1.412848442337935  -0.107581282024604 1
force Bi  -0.017481445857922  -0.093626730745394  -0.517891192086941 1
force Bi   0.162914743609771   0.125004697101350   0.205611689998328 1
force Bi  -0.696446566469660   0.004994249944533  -0.041575291880920 1
force Bi  -0.290495162450914   0.975601190192581  -0.075415713011151 1
force Bi  -0.622547760438435   0.065758761992742   0.297367718331413 1
force Bi  -0.691989767011474   0.646134626775352  -0.243334219685393 1
force Bi  -0.135520048992318  -0.074890213008858   0.130118366816464 1
force Bi  -1.052754370113238   1.645596334890622   0.312220194337221 1
force Bi  -0.020861405952009  -0.741166117048457  -0.294579091696150 1
force Bi  -0.637622249431427   0.753516024776808   0.215488074556670 1
force Bi   0.693808067817565  -0.383418254373811   0.089150390479682 1
force Bi   0.122975944401108   0.011274935496042  -0.288397778345423 1
force Bi  -0.228451038885356  -0.415324780644944   0.095206506474513 1
force Bi   0.893911993362992  -0.431038343601593   0.146097697588063 1
force Bi  -0.142246224675752  -0.060048847267835   0.188574990599630 1
force Bi   0.076350404208629   0.836694575485955  -0.054412986576943 1
force Bi   0.616794621664527  -1.088009578733345  -0.135670043322879 1
force Bi   0.266092227070081   0.537685000110210   0.062347986034955 1
force Bi   0.581936201460824  -0.709232456836428   0.411444722124473 1
force Bi  -0.242442832178737   0.908607055801461   0.494691991302773 1
force O   0.427606633784660  -0.233109332996063   0.117868479329966 1
force O   0.418518627371564  -0.400315775124514  -0.119049393467573 1
force O   0.083076780219979   0.625595682854922  -0.252147770734618 1
force O   0.136740815150251   0.591507191444029  -0.191592454316723 1
force O  -0.117693163049925   0.104432580397075  -0.131828094532749 1
force O   0.146729560479254   0.184792452881647  -0.242235692760778 1
force O  -0.079611625725214   0.085593269079077  -0.323635735211860 1
force O   0.435367701252362  -0.149847235727577  -0.378980649000738 1
force O   0.326129247969328  -0.221165265379604   0.467503631340473 1
force O   0.675755189041018  -1.343414901967909   0.339232727531898 1
force O   0.589362386392975  -1.208299349314763   0.437641176892901 1
force O   0.028772799667003   0.211862318206042   0.359861063050312 1
force O  -0.255722075797221   0.396416806506843   0.201509615097248 1
force O   0.070786620308917   0.091996853104243   0.314117984561178 1
force O   0.012616490988852   0.472472798639163   0.313099301202110 1
force O   0.425256858245298  -0.097709201625978   0.225738361119678 1
force O   0.105417678001967  -0.105621262558445   0.139951705767893 1
force O   0.072125384393755  -0.593423151801472  -0.234567421111029 1
force O  -0.562189612099653   0.380489371975399   0.120473248075345 1
force O   0.033231339905785   0.323214369003312   0.239878978180644 1
force O  -0.273406227165002   0.038995878582647   0.278198099105460 1
force O   0.196967095422693  -0.043775731505681   0.175894955029769 1
force O   0.334593853022235  -0.849885116813679   0.174438947927711 1
force O   0.367493904198607   0.015862456395954  -0.677289148866851 1
force O   0.391069099012943  -0.496170743946664  -0.205001134297014 1
force O   0.583594741442171  -0.169729403575943  -0.400346397597234 1
force O   0.398594444236471  -0.571475903167027  -0.433927658934175 1
force O  -0.308402511327826   0.146503116603734  -0.073718080144971 1
force O   0.156392420526004  -0.447193504324209   0.270369020280419 1
force O  -1.208659150709478   1.280236133523792  -0.056596260641207 1
force O  -0.303339756621559  -0.012839298756577  -0.048071838104134 1
force O  -0.243724473458055   0.642363312463658   0.333514391253371 1
force O  -0.437501321372200   0.376405308368660   0.237292944592366 1
force O  -0.445296834306838   0.563680239129341   0.545912661872715 1
force O  -0.460066174707939  -0.211895055128075   0.319149159927756 1
force O   0.066002706686032   0.272787735934706  -0.085725449699582 1
force O   0.788818123896166  -0.789315950693673  -0.270063575472350 1
force O   0.128451979580827   0.636568875282689   0.199391012437324 1
force O  -0.028496702692121   0.725985451590131   0.092273202394128 1
force O  -0.464746203547562   0.273191347853156  -0.400474476322328 1
force O  -0.569303251860720   0.345167685790705  -0.259243175682923 1
force O  -0.606488822465702   0.395086864088133  -0.101072517825995 1
force O  -0.592906299331903   0.585603528288715  -0.116409184649813 1
force O  -0.050201115214373  -0.072190682919101  -0.316092303964484 1
force O  -0.033996469512415  -0.167537928965548  -0.306597214398324 1
force O   0.123273197769139  -0.479341552546523  -0.263608239533384 1
force O  -0.072620141803397  -0.114963948334575  -0.336917459255984 1

# Energy components:
   Eewald =    -2383.8242628203756794
       EH =      680.5106110700005502
     Eloc =    -2223.2582881418229590
      Enl =      865.6783712729240960
      Exc =    -1196.2451675142128806
 Exc_core =      661.9337848847346777
       KE =      540.9802669624179998
-------------------------------------
     Etot =    -3054.2246842863351048
       TS =        0.1286478783074344
-------------------------------------
        F =    -3054.3533321646423246

IonicMinimize: Iter:   1  F: -3054.353332164642325  |grad|_K:  1.824e-02  alpha:  1.000e+00  linmin: -9.920e-01  t[s]:   5659.99

#--- Lowdin population analysis ---
# oxidation-state Bi +1.263 +1.248 +1.302 +1.278 +1.252 +1.248 +1.306 +1.206 +1.338 +1.317 +1.322 +1.264 +1.247 +1.016 +1.352 +1.268 +1.192 +1.254 +1.315 +1.287 +1.205 +1.328 +1.271 +1.309 +1.190 +1.228 +1.209 +1.253 +1.178 +1.257 +1.066 +1.283
# oxidation-state O -0.754 -0.784 -0.754 -0.762 -0.809 -0.797 -0.808 -0.785 -0.784 -0.727 -0.771 -0.790 -0.816 -0.811 -0.787 -0.744 -0.770 -0.753 -0.766 -0.812 -0.804 -0.794 -0.797 -0.755 -0.818 -0.768 -0.777 -0.783 -0.776 -0.774 -0.765 -0.769 -0.791 -0.758 -0.784 -0.775 -0.764 -0.771 -0.768 -0.771 -0.787 -0.782 -0.766 -0.807 -0.810 -0.811 -0.797


-------- Electronic minimization -----------
Will mix electronic density at each iteration.
	FillingsUpdate:  mu: +0.397058924  nElectrons: 762.000000
	FillingsUpdate:  mu: +0.397015785  nElectrons: 762.000000
SCF: Cycle:  0   F: -3053.127514830438486   dF: -5.782e-01   |Residual|: 7.069e-01   |deigs|: 3.496e-03  t[s]:   5877.68
	FillingsUpdate:  mu: +0.399355786  nElectrons: 762.000000
SCF: Cycle:  1   F: -3054.152560927332161   dF: -1.025e+00   |Residual|: 4.805e-01   |deigs|: 5.460e-03  t[s]:   6035.38
	FillingsUpdate:  mu: +0.397800952  nElectrons: 762.000000
SCF: Cycle:  2   F: -3054.250213033307318   dF: -9.765e-02   |Residual|: 2.392e-01   |deigs|: 2.879e-03  t[s]:   6193.32
	FillingsUpdate:  mu: +0.398515685  nElectrons: 762.000000
SCF: Cycle:  3   F: -3054.457852031329821   dF: -2.076e-01   |Residual|: 8.603e-02   |deigs|: 1.774e-03  t[s]:   6350.98
	FillingsUpdate:  mu: +0.398159967  nElectrons: 762.000000
SCF: Cycle:  4   F: -3054.469181514386491   dF: -1.133e-02   |Residual|: 4.787e-02   |deigs|: 4.658e-04  t[s]:   6495.41
	FillingsUpdate:  mu: +0.398131699  nElectrons: 762.000000
SCF: Cycle:  5   F: -3054.473750776520774   dF: -4.569e-03   |Residual|: 2.003e-02   |deigs|: 3.276e-04  t[s]:   6639.02
	FillingsUpdate:  mu: +0.398142157  nElectrons: 762.000000
SCF: Cycle:  6   F: -3054.474585710490373   dF: -8.349e-04   |Residual|: 7.919e-03   |deigs|: 1.151e-04  t[s]:   6739.07
	FillingsUpdate:  mu: +0.398139667  nElectrons: 762.000000
SCF: Cycle:  7   F: -3054.474849588221332   dF: -2.639e-04   |Residual|: 5.231e-03   |deigs|: 8.811e-05  t[s]:   6839.06
	FillingsUpdate:  mu: +0.398111405  nElectrons: 762.000000
SCF: Cycle:  8   F: -3054.474909859397030   dF: -6.027e-05   |Residual|: 2.736e-03   |deigs|: 4.445e-05  t[s]:   6939.05
	FillingsUpdate:  mu: +0.398105070  nElectrons: 762.000000
SCF: Cycle:  9   F: -3054.474929979171975   dF: -2.012e-05   |Residual|: 9.824e-04   |deigs|: 2.499e-05  t[s]:   7038.97
	FillingsUpdate:  mu: +0.398107682  nElectrons: 762.000000
SCF: Cycle: 10   F: -3054.474932230650666   dF: -2.251e-06   |Residual|: 4.699e-04   |deigs|: 6.211e-06  t[s]:   7139.62
	FillingsUpdate:  mu: +0.398108547  nElectrons: 762.000000
SCF: Cycle: 11   F: -3054.474932662094034   dF: -4.314e-07   |Residual|: 2.555e-04   |deigs|: 3.286e-06  t[s]:   7240.22
	FillingsUpdate:  mu: +0.398105621  nElectrons: 762.000000
SCF: Cycle: 12   F: -3054.474932739340602   dF: -7.725e-08   |Residual|: 1.732e-04   |deigs|: 3.117e-06  t[s]:   7342.30
	FillingsUpdate:  mu: +0.398105746  nElectrons: 762.000000
SCF: Cycle: 13   F: -3054.474932818186062   dF: -7.885e-08   |Residual|: 5.387e-05   |deigs|: 1.104e-06  t[s]:   7442.25
	FillingsUpdate:  mu: +0.398105730  nElectrons: 762.000000
SCF: Cycle: 14   F: -3054.474932828762576   dF: -1.058e-08   |Residual|: 3.072e-05   |deigs|: 3.800e-07  t[s]:   7543.53
	FillingsUpdate:  mu: +0.398105579  nElectrons: 762.000000
SCF: Cycle: 15   F: -3054.474932834378251   dF: -5.616e-09   |Residual|: 1.737e-05   |deigs|: 2.235e-07  t[s]:   7643.81
	FillingsUpdate:  mu: +0.398105507  nElectrons: 762.000000
SCF: Cycle: 16   F: -3054.474932837436427   dF: -3.058e-09   |Residual|: 1.113e-05   |deigs|: 1.149e-07  t[s]:   7744.25
SCF: Converged (|Delta E|<1.000000e-08 for 2 iters).

Setting wave functions to eigenvectors of Hamiltonian

# Ionic positions in lattice coordinates:
ion Bi   0.237944639731237   0.073744008440639   0.307541867541218 1
ion Bi   0.233389525431554   0.566887084243107   0.315090314996808 1
ion Bi   0.722441687395904   0.075414777399906   0.294182761592869 1
ion Bi   0.733413025785833   0.569523561472552   0.307221846095941 1
ion Bi   0.012474759057191   0.137058876576380   0.542471179129661 1
ion Bi   0.021790341195267   0.638351798794891   0.551128101341216 1
ion Bi   0.516331166127983   0.140836637907823   0.532410900373959 1
ion Bi   0.519210190265061   0.626519999388933   0.534269467631300 1
ion Bi   0.246538740912344   0.171784244695238   0.823408639561973 1
ion Bi   0.268810308074474   0.674791783723802   0.807452002481366 1
ion Bi   0.766004261417001   0.189210754678826   0.816862143101773 1
ion Bi   0.756308325933194   0.691361740363711   0.811256941433756 1
ion Bi   0.466953037612307   0.099406880042891   0.044302614687497 1
ion Bi   0.484505410392447   0.609586191981030   0.036781589310558 1
ion Bi   0.991096821140499   0.109213184979106   0.036443004640400 1
ion Bi   0.980084374206369   0.608212083152445   0.033746699451196 1
ion Bi   0.242444575923511   0.314347587460969   0.193127054956774 1
ion Bi   0.245224343369035   0.808369699719257   0.195930520105865 1
ion Bi   0.741915221241297   0.321192358805965   0.186967242342112 1
ion Bi   0.751563581285544   0.821325559581754   0.189874797434838 1
ion Bi   0.254528798444774   0.429638579505149   0.690991615240321 1
ion Bi   0.270973684426290   0.931983138270991   0.687979123342490 1
ion Bi   0.743653886645047   0.423180354810747   0.676918278477710 1
ion Bi   0.761355565644439   0.930716375405717   0.681407641221220 1
ion Bi   0.479870574342907   0.363156787836109   0.465390133176770 1
ion Bi   0.466157677399707   0.861770191872452   0.455899783195011 1
ion Bi   0.968577724092532   0.357504571237333   0.462486670464288 1
ion Bi   0.975234185966664   0.844265738835407   0.465129303530551 1
ion Bi   0.005767071015178   0.404778721353160   0.976724265200310 1
ion Bi   0.019700935985185   0.871466741630538   0.965402790244016 1
ion Bi   0.519656969138760   0.393351729319294   0.954238891742366 1
ion Bi   0.525767677118641   0.878512218362326   0.948980325264896 1
ion O   0.380146452976025   0.092367305794733   0.786528238427633 1
ion O   0.383055880095374   0.580690319058233   0.792469747721140 1
ion O   0.882728204438196   0.083535570664460   0.780236692561286 1
ion O   0.879400720773049   0.586653899744508   0.782526178857997 1
ion O   0.364837096773250   0.224223828943343   0.071688617546459 1
ion O   0.375063017829659   0.724637602448084   0.079876057745860 1
ion O   0.881872395988604   0.238152813420972   0.085129941352888 1
ion O   0.857093465239273   0.734917249354256   0.082846199833958 1
ion O   0.337105019872249   0.939878175664588   0.979755097672246 1
ion O   0.845413713092557   0.458297830482340   0.989112737136172 1
ion O   0.845231853880109   0.948893264331367   0.977633938953489 1
ion O   0.375643652349645   0.484448331835450   0.422064182685719 1
ion O   0.378504196294040   0.983549009872863   0.413845172867801 1
ion O   0.880034751342394   0.478411199747949   0.415601302487822 1
ion O   0.868866716730127   0.965454609320895   0.423418878632021 1
ion O   0.099229827313248   0.156533461328688   0.269977452190536 1
ion O   0.106250484179250   0.652516287930887   0.276860636474510 1
ion O   0.608159847140829   0.167738981687960   0.280686431546556 1
ion O   0.621072220500638   0.653064357084250   0.274477324215497 1
ion O   0.127458517867765   0.252999145463693   0.930397824320605 1
ion O   0.135433273260411   0.754672459745312   0.920688917414504 1
ion O   0.615911602417593   0.272984188012812   0.910056755951533 1
ion O   0.622065964285834   0.775438792242682   0.918141849635121 1
ion O   0.350121831475052   0.190288979293766   0.532232883858053 1
ion O   0.342943058054215   0.698107116837132   0.516787745114790 1
ion O   0.841275268203065   0.193249230832783   0.528490481243130 1
ion O   0.848358598737555   0.687174333229846   0.523577000671871 1
ion O   0.129306834326285   0.406192184144982   0.219221569339837 1
ion O   0.105349905437768   0.904661305421587   0.208494866008567 1
ion O   0.623620088572540   0.391359691140619   0.221522160682281 1
ion O   0.605621237954095   0.913586983347303   0.217036198334743 1
ion O   0.170245110061795   0.293326006423271   0.478532007426131 1
ion O   0.150209290343425   0.799191660764913   0.484778416730358 1
ion O   0.665419215510864   0.304725393268887   0.476945168191080 1
ion O   0.655890471204910   0.817005594981969   0.472045551441250 1
ion O   0.390199432273170   0.347347422393642   0.728821191735203 1
ion O   0.377130659026453   0.847276334635997   0.731514025806127 1
ion O   0.878014535632140   0.344490735466594   0.710272905227969 1
ion O   0.881408495984964   0.830620943595620   0.718255302197342 1
ion O   0.153357802512982   0.055892431328553   0.021667378359387 1
ion O   0.157578974049124   0.556524107765747   0.017283686888414 1
ion O   0.659270148477644   0.063953635518462   0.009646430912543 1
ion O   0.667749132953245   0.546578409314188   0.012701704580514 1
ion O   0.125991708510599   0.022038839900507   0.586962541145811 1
ion O   0.139696520433571   0.516681035915865   0.605642303357003 1
ion O   0.619865341067497   0.029086696048496   0.582729336990910 1
ion O   0.618478377838741   0.516488282400496   0.585570458214308 1

# Forces in Lattice coordinates:
force Bi  -0.434776514999707  -0.007081655214432   0.211679015242534 1
force Bi  -0.046997268213373   0.165152050176581  -0.019070496124058 1
force Bi   0.099483995671378  -0.273266046718832  -0.041564353052993 1
force Bi   0.409001706746966  -0.508642045611043  -0.169295356411081 1
force Bi   0.012155173437916  -0.277486883397312  -0.152961801298334 1
force Bi  -0.166898785954923  -0.236617072392549  -0.091916877534883 1
force Bi   0.049016255724778  -0.031458461273089   0.242015265967461 1
force Bi  -0.202988652095156   0.533274396661422  -0.118214591356569 1
force Bi   0.681464552398599  -0.396425761977943  -0.167455788262818 1
force Bi  -0.238627518362213   0.178510715135420  -0.073415188102146 1
force Bi   0.251193692018047  -0.784680018017582   0.008743757169411 1
force Bi   0.408253980130505  -1.199262752637729  -0.083906523349466 1
force Bi  -0.011435826172694  -0.045572509487669  -0.396626829658960 1
force Bi   0.131242718544845   0.188256087027927   0.133665624260101 1
force Bi  -0.575345605882227   0.021858831357264  -0.039202518130192 1
force Bi  -0.227175306771936   0.727567649858051  -0.052024927770479 1
force Bi  -0.566037599591040   0.027005876771515   0.247989290113215 1
force Bi  -0.599547364943341   0.604115306097475  -0.194067679847948 1
force Bi  -0.087183210247599  -0.113718192865516   0.108971659870492 1
force Bi  -0.828035884569932   1.322870983890211   0.205093470874028 1
force Bi   0.017340438421596  -0.647292212377333  -0.290163840216811 1
force Bi  -0.500215394286561   0.547983386844504   0.157500070138758 1
force Bi   0.568416896672462  -0.289765820828616   0.078568567410050 1
force Bi   0.111030067772631  -0.055185593908431  -0.250859650982522 1
force Bi  -0.203494283946853  -0.315697892028661   0.109651809401374 1
force Bi   0.737641503306143  -0.357686835882042   0.139015540771808 1
force Bi  -0.107599148273438  -0.050228216591068   0.161479528382192 1
force Bi   0.096940585931003   0.668511095576441  -0.029733548748549 1
force Bi   0.528655865986029  -0.932856449988501  -0.117546665487707 1
force Bi   0.129511418613408   0.548254992346603   0.049062439591493 1
force Bi   0.495403766031151  -0.658856381131148   0.354888974428678 1
force Bi  -0.189116108475938   0.692070470020397   0.398724673055852 1
force O   0.374364573061457  -0.206788049618549   0.076205136626575 1
force O   0.340223066291726  -0.319926052839212  -0.086366492740968 1
force O   0.071397143418954   0.530342665397878  -0.178892113736008 1
force O   0.118308976150461   0.528068104729636  -0.123027516023167 1
force O  -0.103812831509427   0.095981999568435  -0.148681240776679 1
force O   0.114759001654064   0.197774495670679  -0.242432471289936 1
force O  -0.124027630958305   0.118480942474786  -0.330092003501270 1
force O   0.300579857074448  -0.005456416610778  -0.352317239533242 1
force O   0.334600625670538  -0.266359655060861   0.418729997607100 1
force O   0.667771814010957  -1.166426561720615   0.316852833507946 1
force O   0.566281042082708  -1.081392830521453   0.422812932155944 1
force O  -0.028848278366155   0.215500940753723   0.344700282123668 1
force O  -0.244709379311373   0.373473685726414   0.229060482730566 1
force O   0.014121630261547   0.119778879761250   0.313646832150432 1
force O  -0.033061627614545   0.497990606350267   0.294750079923339 1
force O   0.372685923719908  -0.084272030944135   0.173776787133301 1
force O   0.080062490643665  -0.095504354598615   0.122769481115160 1
force O   0.056258518917237  -0.506601528135309  -0.154687129916945 1
force O  -0.454299552403167   0.278402283299924   0.109586657357918 1
force O   0.072684343140685   0.228792117351131   0.235678923708016 1
force O  -0.213323396538280   0.041157609894563   0.281308360051476 1
force O   0.168362128084880  -0.017886359681156   0.190576215791052 1
force O   0.253778433731372  -0.747548421796417   0.214400563741150 1
force O   0.348348887703620  -0.020030797335797  -0.616665724316593 1
force O   0.402370728676549  -0.489280451957050  -0.205864984021380 1
force O   0.538145436487309  -0.148635640189747  -0.378678795282501 1
force O   0.396943180872451  -0.488017235588442  -0.405963903965048 1
force O  -0.291392532025401   0.124401356687057  -0.073391682436403 1
force O   0.153494751710947  -0.409536066952421   0.220716159242550 1
force O  -1.052486256114970   1.120137617299176  -0.056121683778818 1
force O  -0.219908516436969  -0.044448539667789  -0.050582896642780 1
force O  -0.243926841853142   0.629092664257535   0.317919783789349 1
force O  -0.437102602358793   0.380527582021060   0.238437902811286 1
force O  -0.453879002149656   0.537798315589084   0.467258012999577 1
force O  -0.474809367988947  -0.118364119266689   0.309435656338879 1
force O   0.091229544294384   0.217524928483074  -0.073621475423491 1
force O   0.677359575563418  -0.644845873152109  -0.238275473475710 1
force O   0.137833388710433   0.484071701472637   0.165594625660027 1
force O  -0.020769361066557   0.563418326360309   0.067589967801319 1
force O  -0.450687461084350   0.228901695732556  -0.370037697858864 1
force O  -0.565850028961190   0.363294544722299  -0.251803370789992 1
force O  -0.556322708044501   0.344314869952033  -0.119604668750590 1
force O  -0.559931026644620   0.564269526007852  -0.127709762145255 1
force O  -0.009622681541514  -0.110659704484697  -0.330662662695609 1
force O  -0.010223643881505  -0.186568012850526  -0.317997910462801 1
force O   0.166480742077473  -0.514167518380841  -0.272716915637139 1
force O  -0.011261386039843  -0.157291838704891  -0.346510307994536 1

# Energy components:
   Eewald =    -2384.4147788490654420
       EH =      680.2505157260419537
     Eloc =    -2222.4827718559099594
      Enl =      865.6521924936719188
      Exc =    -1196.2962581841443352
 Exc_core =      661.9337739469873441
       KE =      540.9964524937827264
-------------------------------------
     Etot =    -3054.3608742286355664
       TS =        0.1140586088010054
-------------------------------------
        F =    -3054.4749328374364268

IonicMinimize: Iter:   2  F: -3054.474932837436427  |grad|_K:  1.591e-02  alpha:  1.440e-01  linmin: -9.848e-01  t[s]:   7794.02

#--- Lowdin population analysis ---
# oxidation-state Bi +1.272 +1.253 +1.300 +1.285 +1.261 +1.256 +1.307 +1.224 +1.334 +1.317 +1.317 +1.272 +1.259 +1.044 +1.340 +1.272 +1.203 +1.263 +1.313 +1.290 +1.218 +1.322 +1.279 +1.307 +1.209 +1.239 +1.216 +1.258 +1.202 +1.261 +1.082 +1.283
# oxidation-state O -0.761 -0.789 -0.763 -0.768 -0.813 -0.798 -0.811 -0.789 -0.792 -0.743 -0.783 -0.793 -0.817 -0.812 -0.794 -0.748 -0.773 -0.758 -0.768 -0.815 -0.805 -0.797 -0.796 -0.767 -0.817 -0.775 -0.782 -0.785 -0.778 -0.776 -0.770 -0.775 -0.793 -0.768 -0.796 -0.781 -0.768 -0.773 -0.771 -0.777 -0.791 -0.789 -0.773 -0.811 -0.811 -0.814 -0.800


-------- Electronic minimization -----------
Will mix electronic density at each iteration.
	FillingsUpdate:  mu: +0.398105507  nElectrons: 762.000000
	FillingsUpdate:  mu: +0.397708329  nElectrons: 762.000000
SCF: Cycle:  0   F: -3053.612701156389448   dF: -7.484e-01   |Residual|: 6.736e-01   |deigs|: 3.421e-03  t[s]:   8011.22
	FillingsUpdate:  mu: +0.399972097  nElectrons: 762.000000
SCF: Cycle:  1   F: -3054.364333155335771   dF: -7.516e-01   |Residual|: 3.846e-01   |deigs|: 4.968e-03  t[s]:   8168.74
	FillingsUpdate:  mu: +0.399216784  nElectrons: 762.000000
SCF: Cycle:  2   F: -3054.386268742283846   dF: -2.194e-02   |Residual|: 2.388e-01   |deigs|: 2.382e-03  t[s]:   8327.13
	FillingsUpdate:  mu: +0.399626048  nElectrons: 762.000000
SCF: Cycle:  3   F: -3054.566993071568959   dF: -1.807e-01   |Residual|: 6.249e-02   |deigs|: 1.307e-03  t[s]:   8484.43
	FillingsUpdate:  mu: +0.399629641  nElectrons: 762.000000
SCF: Cycle:  4   F: -3054.571098321676345   dF: -4.105e-03   |Residual|: 4.332e-02   |deigs|: 2.638e-04  t[s]:   8628.13
	FillingsUpdate:  mu: +0.399582133  nElectrons: 762.000000
SCF: Cycle:  5   F: -3054.574410591004835   dF: -3.312e-03   |Residual|: 1.183e-02   |deigs|: 1.844e-04  t[s]:   8750.04
	FillingsUpdate:  mu: +0.399571897  nElectrons: 762.000000
SCF: Cycle:  6   F: -3054.574724608947236   dF: -3.140e-04   |Residual|: 6.902e-03   |deigs|: 6.833e-05  t[s]:   8852.38
	FillingsUpdate:  mu: +0.399557329  nElectrons: 762.000000
SCF: Cycle:  7   F: -3054.574928507691311   dF: -2.039e-04   |Residual|: 3.677e-03   |deigs|: 6.576e-05  t[s]:   8952.25
	FillingsUpdate:  mu: +0.399554570  nElectrons: 762.000000
SCF: Cycle:  8   F: -3054.574963694761209   dF: -3.519e-05   |Residual|: 1.523e-03   |deigs|: 3.235e-05  t[s]:   9052.75
	FillingsUpdate:  mu: +0.399553246  nElectrons: 762.000000
SCF: Cycle:  9   F: -3054.574970145331008   dF: -6.451e-06   |Residual|: 5.166e-04   |deigs|: 9.411e-06  t[s]:   9152.93
	FillingsUpdate:  mu: +0.399552908  nElectrons: 762.000000
SCF: Cycle: 10   F: -3054.574970764657337   dF: -6.193e-07   |Residual|: 3.391e-04   |deigs|: 3.455e-06  t[s]:   9254.74
	FillingsUpdate:  mu: +0.399551261  nElectrons: 762.000000
SCF: Cycle: 11   F: -3054.574971019342684   dF: -2.547e-07   |Residual|: 1.290e-04   |deigs|: 2.021e-06  t[s]:   9356.23
	FillingsUpdate:  mu: +0.399550435  nElectrons: 762.000000
SCF: Cycle: 12   F: -3054.574971070636821   dF: -5.129e-08   |Residual|: 6.189e-05   |deigs|: 9.545e-07  t[s]:   9456.45
	FillingsUpdate:  mu: +0.399550492  nElectrons: 762.000000
SCF: Cycle: 13   F: -3054.574971087361519   dF: -1.672e-08   |Residual|: 4.089e-05   |deigs|: 5.689e-07  t[s]:   9556.37
	FillingsUpdate:  mu: +0.399550253  nElectrons: 762.000000
SCF: Cycle: 14   F: -3054.574971096518311   dF: -9.157e-09   |Residual|: 1.521e-05   |deigs|: 3.517e-07  t[s]:   9656.04
	FillingsUpdate:  mu: +0.399550174  nElectrons: 762.000000
SCF: Cycle: 15   F: -3054.574971100557832   dF: -4.040e-09   |Residual|: 1.189e-05   |deigs|: 1.384e-07  t[s]:   9756.43
SCF: Converged (|Delta E|<1.000000e-08 for 2 iters).

Setting wave functions to eigenvectors of Hamiltonian
IonicMinimize: 	Wolfe criterion not satisfied: alpha: 0.0877833  (E-E0)/|gdotd0|: -0.084403  gdotd/gdotd0: 0.921436 (taking cubic step)

-------- Electronic minimization -----------
Will mix electronic density at each iteration.
	FillingsUpdate:  mu: +0.399550174  nElectrons: 762.000000
	FillingsUpdate:  mu: +0.393912879  nElectrons: 762.000000
SCF: Cycle:  0   F: -3050.990584890506852   dF: -3.149e+00   |Residual|: 1.400e+00   |deigs|: 1.362e-02  t[s]:  10024.05
	FillingsUpdate:  mu: +0.402889780  nElectrons: 762.000000
SCF: Cycle:  1   F: -3053.921553497941659   dF: -2.931e+00   |Residual|: 7.481e-01   |deigs|: 1.372e-02  t[s]:  10181.21
	FillingsUpdate:  mu: +0.402599685  nElectrons: 762.000000
SCF: Cycle:  2   F: -3054.178635706928162   dF: -2.571e-01   |Residual|: 4.371e-01   |deigs|: 5.574e-03  t[s]:  10339.51
	FillingsUpdate:  mu: +0.403340840  nElectrons: 762.000000
SCF: Cycle:  3   F: -3054.719826214566183   dF: -5.412e-01   |Residual|: 1.188e-01   |deigs|: 3.437e-03  t[s]:  10496.85
	FillingsUpdate:  mu: +0.403668487  nElectrons: 762.000000
SCF: Cycle:  4   F: -3054.736127730826865   dF: -1.630e-02   |Residual|: 7.399e-02   |deigs|: 8.114e-04  t[s]:  10643.51
	FillingsUpdate:  mu: +0.403474873  nElectrons: 762.000000
SCF: Cycle:  5   F: -3054.745017834189184   dF: -8.890e-03   |Residual|: 2.296e-02   |deigs|: 3.018e-04  t[s]:  10788.00
	FillingsUpdate:  mu: +0.403383987  nElectrons: 762.000000
SCF: Cycle:  6   F: -3054.746950960204231   dF: -1.933e-03   |Residual|: 1.203e-02   |deigs|: 1.572e-04  t[s]:  10888.25
	FillingsUpdate:  mu: +0.403413707  nElectrons: 762.000000
SCF: Cycle:  7   F: -3054.747657534770951   dF: -7.066e-04   |Residual|: 6.895e-03   |deigs|: 1.204e-04  t[s]:  10989.18
	FillingsUpdate:  mu: +0.403402275  nElectrons: 762.000000
SCF: Cycle:  8   F: -3054.747851859423918   dF: -1.943e-04   |Residual|: 2.708e-03   |deigs|: 6.930e-05  t[s]:  11089.66
	FillingsUpdate:  mu: +0.403385114  nElectrons: 762.000000
SCF: Cycle:  9   F: -3054.747874081778718   dF: -2.222e-05   |Residual|: 1.187e-03   |deigs|: 2.647e-05  t[s]:  11190.03
	FillingsUpdate:  mu: +0.403376457  nElectrons: 762.000000
SCF: Cycle: 10   F: -3054.747879412661860   dF: -5.331e-06   |Residual|: 6.448e-04   |deigs|: 1.277e-05  t[s]:  11289.69
	FillingsUpdate:  mu: +0.403378138  nElectrons: 762.000000
SCF: Cycle: 11   F: -3054.747880306466868   dF: -8.938e-07   |Residual|: 2.510e-04   |deigs|: 5.575e-06  t[s]:  11389.80
	FillingsUpdate:  mu: +0.403377191  nElectrons: 762.000000
SCF: Cycle: 12   F: -3054.747880489382169   dF: -1.829e-07   |Residual|: 1.307e-04   |deigs|: 1.464e-06  t[s]:  11489.23
	FillingsUpdate:  mu: +0.403376337  nElectrons: 762.000000
SCF: Cycle: 13   F: -3054.747880553239611   dF: -6.386e-08   |Residual|: 7.353e-05   |deigs|: 1.518e-06  t[s]:  11589.83
	FillingsUpdate:  mu: +0.403376160  nElectrons: 762.000000
SCF: Cycle: 14   F: -3054.747880586427982   dF: -3.319e-08   |Residual|: 3.506e-05   |deigs|: 6.488e-07  t[s]:  11689.78
	FillingsUpdate:  mu: +0.403375981  nElectrons: 762.000000
SCF: Cycle: 15   F: -3054.747880602018085   dF: -1.559e-08   |Residual|: 2.106e-05   |deigs|: 4.276e-07  t[s]:  11789.74
	FillingsUpdate:  mu: +0.403375908  nElectrons: 762.000000
SCF: Cycle: 16   F: -3054.747880610817447   dF: -8.799e-09   |Residual|: 1.222e-05   |deigs|: 1.446e-07  t[s]:  11889.72
	FillingsUpdate:  mu: +0.403375893  nElectrons: 762.000000
SCF: Cycle: 17   F: -3054.747880616307611   dF: -5.490e-09   |Residual|: 1.140e-05   |deigs|: 7.996e-08  t[s]:  11989.94
SCF: Converged (|Delta E|<1.000000e-08 for 2 iters).

Setting wave functions to eigenvectors of Hamiltonian

# Ionic positions in lattice coordinates:
ion Bi   0.233626455128743   0.072062800444413   0.313541815588122 1
ion Bi   0.233040966987914   0.568567024459833   0.315536572618621 1
ion Bi   0.722362151422173   0.074858023807984   0.294376367251095 1
ion Bi   0.734342851446994   0.568727033048100   0.304238257473943 1
ion Bi   0.011428757117812   0.135241902664826   0.539397344846990 1
ion Bi   0.018430669945176   0.636405456350970   0.547700168631242 1
ion Bi   0.517164843996192   0.140334560465954   0.535238703901548 1
ion Bi   0.518378889774077   0.629621299707414   0.532758773352371 1
ion Bi   0.251524005592434   0.172974413649854   0.822568452414384 1
ion Bi   0.268357339005661   0.673922337819659   0.806095884298001 1
ion Bi   0.767465358585427   0.184258170452233   0.817520410966956 1
ion Bi   0.760249511557040   0.685467921216512   0.809772836316412 1
ion Bi   0.467163651270887   0.099840563733814   0.038575309700478 1
ion Bi   0.487282573710540   0.613094463083076   0.037356837832018 1
ion Bi   0.985433639408854   0.108042859130493   0.035222729247545 1
ion Bi   0.979136722499713   0.610351667201912   0.032893535949454 1
ion Bi   0.234164225555703   0.311436572815422   0.198081631888852 1
ion Bi   0.240568080324529   0.811768337513343   0.192780288456412 1
ion Bi   0.738875544500973   0.320197417050572   0.189844484572833 1
ion Bi   0.748405836273923   0.826743518397698   0.190217140371604 1
ion Bi   0.253473020847176   0.424890906680677   0.682487044826744 1
ion Bi   0.268990306371098   0.931690431833941   0.690249512977846 1
ion Bi   0.749090665146051   0.423545115952119   0.678944923334929 1
ion Bi   0.762127982868399   0.929263676830141   0.675934872209834 1
ion Bi   0.476497307811286   0.360770881690708   0.469343574750478 1
ion Bi   0.472686760308709   0.861643809377167   0.460287404883456 1
ion Bi   0.967517860844595   0.356787735927178   0.466305418389218 1
ion Bi   0.978972097071347   0.848645304695688   0.465883799092681 1
ion Bi   0.008930629293579   0.399931143801263   0.973935413320828 1
ion Bi   0.020381211687682   0.876657025034629   0.965831671243673 1
ion Bi   0.522801571730688   0.389034663618942   0.962543267639241 1
ion Bi   0.525931619134703   0.881245618253661   0.955862876026197 1
ion O   0.384118998383552   0.092078740979177   0.786668970844888 1
ion O   0.385522808904199   0.579768546445608   0.791391540707142 1
ion O   0.885553002908248   0.087788699280759   0.778422484761683 1
ion O   0.883073949285534   0.591475966076638   0.782355995361372 1
ion O   0.363888684100477   0.224628534118607   0.066340771909937 1
ion O   0.377195632509359   0.727279153213368   0.072526863889530 1
ion O   0.879352015479525   0.239004871503382   0.074894371655156 1
ion O   0.859078089078273   0.738282493160416   0.073885603569222 1
ion O   0.341180570585355   0.937970853654603   0.989943955824466 1
ion O   0.852425407679024   0.452766277808532   0.997770092413717 1
ion O   0.849650518321718   0.942417268285052   0.989899196153663 1
ion O   0.374713193469823   0.486196703312178   0.431791063783271 1
ion O   0.376335257165935   0.985930118106739   0.422273116804689 1
ion O   0.879549367325805   0.479813089139085   0.425042722283445 1
ion O   0.869852694906832   0.970584669960231   0.431348799232246 1
ion O   0.103692632565970   0.157193148899834   0.272426689288246 1
ion O   0.106465385218595   0.651858787405049   0.279583208466079 1
ion O   0.606850582148773   0.164030427053347   0.280284819757074 1
ion O   0.617535815202061   0.652368753262660   0.277405625712381 1
ion O   0.130201116916814   0.254270180871033   0.937315187057598 1
ion O   0.133672936884805   0.754539790056680   0.929509488298230 1
ion O   0.618077820018920   0.273807301258978   0.916490232513620 1
ion O   0.620896610228870   0.770209931499300   0.926729542431042 1
ion O   0.355025364715191   0.191040915275658   0.516344385053596 1
ion O   0.347581715234843   0.695173499407778   0.510255304383962 1
ion O   0.848547233431251   0.194454068045937   0.518006900484176 1
ion O   0.853447216444461   0.685749030026425   0.512540245798861 1
ion O   0.125341813379458   0.405779147177751   0.217026281046979 1
ion O   0.106237523583257   0.901830705308545   0.213165232094792 1
ion O   0.616152067445911   0.395484541801546   0.219618277919783 1
ion O   0.603836058004288   0.912108713386282   0.215490748363391 1
ion O   0.169247550163083   0.298525516801620   0.487507423070519 1
ion O   0.144840156702874   0.801141225955048   0.492103274541286 1
ion O   0.660053831793557   0.307551641194825   0.487105368099800 1
ion O   0.647653494154991   0.814820604285637   0.480827891135489 1
ion O   0.393015176554169   0.349363146848805   0.727302929419864 1
ion O   0.382176691282767   0.846482625141325   0.725490804304547 1
ion O   0.881738541155327   0.347684909704414   0.713679468542025 1
ion O   0.882156854602427   0.833039320404960   0.719414201177710 1
ion O   0.146960225336125   0.055348093935291   0.011906567880499 1
ion O   0.150053491597435   0.557731629314639   0.010119714032934 1
ion O   0.652641973067462   0.064332096624560   0.004990133045642 1
ion O   0.661986365659866   0.549700265513276   0.008015755908593 1
ion O   0.126216174723167   0.020414973894409   0.576323980914706 1
ion O   0.139019581638401   0.514517528237636   0.595357844917543 1
ion O   0.620954128692033   0.024290093932940   0.574024003329324 1
ion O   0.618800574129111   0.514518745719241   0.574525597441275 1

# Forces in Lattice coordinates:
force Bi  -0.103315520160790  -0.109629268934194   0.215565070943517 1
force Bi  -0.054117326384567   0.146767029820256   0.049120680256904 1
force Bi   0.066206196080079  -0.164012098205972   0.050457350964768 1
force Bi   0.130870866903135  -0.235379390973253  -0.050244364625119 1
force Bi  -0.023427062673505  -0.138339624297011  -0.077825769601946 1
force Bi  -0.090764418065282  -0.133107509616322  -0.092772051835190 1
force Bi   0.015973988458145  -0.071903431664083   0.153753408101572 1
force Bi  -0.154456467062193   0.308292736722347  -0.006624113240175 1
force Bi   0.353007300521682  -0.092336340822215  -0.023612495322167 1
force Bi  -0.105943803688424   0.002545603046946   0.001855187492108 1
force Bi   0.147030017391013  -0.452495760749493   0.030198758071661 1
force Bi   0.306643569267387  -0.772657577061825  -0.019151067609452 1
force Bi  -0.002791454419885   0.027534925275093  -0.158236527031829 1
force Bi   0.118395260261868   0.237378172072528   0.028117080290348 1
force Bi  -0.295424998082780   0.000523115371578  -0.007326731216929 1
force Bi  -0.020156153075167   0.317815152926084   0.039016193567734 1
force Bi  -0.339815324388039   0.030708772581669   0.141242088987150 1
force Bi  -0.384509869745479   0.447914028670162  -0.160618361023318 1
force Bi  -0.265318814985530   0.164851143360008   0.060582792930311 1
force Bi  -0.405835767483758   0.611985005283993   0.036791406328619 1
force Bi   0.044324411656016  -0.361665728877786  -0.240790286075893 1
force Bi  -0.160727365890908   0.102939767445701   0.044343711873162 1
force Bi   0.279011431944592  -0.087922443282428   0.026930261847457 1
[...]
force Bi   0.011463020616890  -0.006847320464656   0.002954139309142 1
force Bi  -0.005607928328469  -0.001440402770218  -0.001520391782261 1
force Bi  -0.011843718622425   0.007337749563781  -0.006059334795330 1
force Bi   0.006708736474679  -0.000062455185008  -0.005173352865506 1
force Bi   0.008752312812002  -0.004044842982878  -0.001842708880622 1
force Bi  -0.004526186439416   0.000801294546455   0.001569518953938 1
force Bi  -0.011120959135575   0.000442590731360   0.005963472402829 1
force Bi  -0.012793825642817   0.001243382865328  -0.004526186451676 1
force Bi  -0.002571994579041  -0.001396057166683  -0.002045814528670 1
force Bi   0.004514655217038  -0.004623316338777   0.002246736523582 1
force Bi   0.004441598463536  -0.003901773932157   0.002923957068115 1
force Bi   0.002415030275072  -0.000677152063210   0.002746272942423 1
force Bi  -0.003041697506502   0.004890727589856   0.001266937387513 1
force Bi   0.003689276199247  -0.007710442635511  -0.002891742966115 1
force Bi   0.004862854435538  -0.007447893629042  -0.000696359928335 1
force O  -0.003248950806068  -0.001449512447076  -0.000380365904333 1
force O  -0.003394623171759  -0.000194083842452   0.001108935521237 1
force O   0.002738191093863  -0.002926275679000  -0.001201609620516 1
force O   0.002412140804249  -0.004243519049201   0.001091205923403 1
force O  -0.001880473928150   0.003299510218119  -0.004840650083995 1
force O  -0.003579545626419  -0.002407162894228  -0.003412087427860 1
force O   0.002606329024037   0.001277126467651  -0.000389717492419 1
force O  -0.000743011030303   0.000066285248213   0.002930642798711 1
force O  -0.003054465588339   0.001796960105052   0.001192581503405 1
force O   0.000934093617079   0.001700972313593  -0.001360098385802 1
force O   0.004204692389803  -0.004261168263097   0.000488233836358 1
force O  -0.004036650388137   0.001646401789889   0.003509113992059 1
force O  -0.002486526336549   0.002238522842273   0.001154089602402 1
force O   0.001726795034825  -0.004033027647607  -0.000733842670662 1
force O   0.005349883353895  -0.002914023787646  -0.002695377439982 1
force O  -0.000566378891488   0.002932745191104   0.002086503239814 1
force O  -0.005643607479294   0.005065608452062   0.002275438457446 1
force O   0.004123370552249   0.001109196582865   0.001365433484477 1
force O   0.002373978894226  -0.001040970491827   0.001536917522847 1
force O  -0.001312624162613  -0.001016644943698  -0.002626412010367 1
force O  -0.003486263425200  -0.001346272962803  -0.003927811427899 1
force O   0.001911783677354   0.007136561666393   0.002790664256109 1
force O   0.004192836409243   0.002168847746456   0.001715641872419 1
force O   0.001021795297403  -0.005063877878586   0.001032237102977 1
force O   0.004264792336728  -0.005673307829163   0.001585787235285 1
force O   0.001015256892519   0.002775904098364   0.001122581186381 1
force O  -0.001781068804752   0.001974357748639   0.000865417376562 1
force O  -0.004338086596074   0.001679838279142  -0.002761315463127 1
force O  -0.006976662941905   0.004473724437430  -0.001855422104834 1
force O   0.001178067267387   0.003819311276462  -0.001329900236759 1
force O   0.005015225892115  -0.001989650271374   0.001118429709638 1
force O  -0.005895240828142   0.002926571793626  -0.000075558783052 1
force O  -0.005745838754542   0.001452244853921  -0.001625652849846 1
force O   0.007759865073211  -0.000205947181859   0.001028470140290 1
force O   0.005272986940542  -0.005986162910424  -0.001908485741364 1
force O  -0.000756557039632  -0.001181574203573  -0.000764351922983 1
force O  -0.003756496443574   0.001010305016013   0.000115973921943 1
force O  -0.002562424031892   0.000135276082043  -0.000789291815320 1
force O   0.006223604866509  -0.006260458741121  -0.001661109487994 1
force O   0.004738484528588  -0.005532926649071  -0.000908040468120 1
force O  -0.004243543174373  -0.000628159492307   0.002130232988492 1
force O   0.002480555576650   0.003795539235541  -0.000554004985007 1
force O   0.003340778778763  -0.001792783466594  -0.002741951532111 1
force O  -0.002891148225726  -0.000970434790838   0.002398716178623 1
force O  -0.004312321313162  -0.000029121116697   0.004097616748206 1
force O   0.002707599853122   0.004359508347488  -0.001468171379329 1
force O   0.000620093010141   0.003000787509147   0.001010354645313 1

# Energy components:
   Eewald =    -2345.2539597081340617
       EH =      718.7397736557504686
     Eloc =    -2303.5877480711760654
      Enl =      866.6246816169295926
      Exc =    -1198.1540665630393505
 Exc_core =      661.9337921974617984
       KE =      544.4724907486040593
-------------------------------------
     Etot =    -3055.2250361236028766
       TS =        0.0276950283084006
-------------------------------------
        F =    -3055.2527311519111208

IonicMinimize: Iter:  28  F: -3055.252731151911121  |grad|_K:  1.837e-04  alpha:  1.000e+00  linmin:  2.280e-01  t[s]:  57597.47

#--- Lowdin population analysis ---
# oxidation-state Bi +1.315 +1.302 +1.314 +1.311 +1.336 +1.331 +1.333 +1.332 +1.312 +1.309 +1.312 +1.315 +1.335 +1.224 +1.326 +1.332 +1.143 +1.313 +1.313 +1.317 +1.286 +1.312 +1.310 +1.311 +1.332 +1.334 +1.334 +1.329 +1.325 +1.331 +0.846 +1.331
# oxidation-state O -0.812 -0.820 -0.808 -0.808 -0.808 -0.806 -0.807 -0.806 -0.822 -0.820 -0.821 -0.808 -0.805 -0.808 -0.808 -0.797 -0.814 -0.814 -0.816 -0.803 -0.806 -0.794 -0.790 -0.820 -0.823 -0.820 -0.823 -0.816 -0.814 -0.804 -0.812 -0.817 -0.822 -0.815 -0.822 -0.808 -0.813 -0.812 -0.813 -0.821 -0.822 -0.826 -0.812 -0.809 -0.803 -0.806 -0.801


-------- Electronic minimization -----------
Will mix electronic density at each iteration.
	FillingsUpdate:  mu: +0.416618171  nElectrons: 762.000000
	FillingsUpdate:  mu: +0.416618947  nElectrons: 762.000000
SCF: Cycle:  0   F: -3055.252650665675446   dF: +7.956e-05   |Residual|: 3.647e-03   |deigs|: 7.716e-08  t[s]:  57759.65
	FillingsUpdate:  mu: +0.416622564  nElectrons: 762.000000
SCF: Cycle:  1   F: -3055.252728459884565   dF: -7.779e-05   |Residual|: 2.639e-03   |deigs|: 2.425e-05  t[s]:  57859.48
	FillingsUpdate:  mu: +0.416621920  nElectrons: 762.000000
SCF: Cycle:  2   F: -3055.252733912502663   dF: -5.453e-06   |Residual|: 6.414e-04   |deigs|: 8.521e-06  t[s]:  57959.07
	FillingsUpdate:  mu: +0.416624603  nElectrons: 762.000000
SCF: Cycle:  3   F: -3055.252744393876128   dF: -1.048e-05   |Residual|: 4.443e-04   |deigs|: 1.543e-05  t[s]:  58057.95
	FillingsUpdate:  mu: +0.416624638  nElectrons: 762.000000
SCF: Cycle:  4   F: -3055.252745733076608   dF: -1.339e-06   |Residual|: 3.052e-04   |deigs|: 3.819e-06  t[s]:  58158.29
	FillingsUpdate:  mu: +0.416624253  nElectrons: 762.000000
SCF: Cycle:  5   F: -3055.252746196730186   dF: -4.637e-07   |Residual|: 1.264e-04   |deigs|: 4.091e-06  t[s]:  58258.33
	FillingsUpdate:  mu: +0.416623660  nElectrons: 762.000000
SCF: Cycle:  6   F: -3055.252746242543708   dF: -4.581e-08   |Residual|: 5.123e-05   |deigs|: 1.248e-06  t[s]:  58358.45
	FillingsUpdate:  mu: +0.416623043  nElectrons: 762.000000
SCF: Cycle:  7   F: -3055.252746251809640   dF: -9.266e-09   |Residual|: 3.467e-05   |deigs|: 3.952e-07  t[s]:  58458.64
	FillingsUpdate:  mu: +0.416622467  nElectrons: 762.000000
SCF: Cycle:  8   F: -3055.252746256176124   dF: -4.366e-09   |Residual|: 9.427e-06   |deigs|: 3.550e-07  t[s]:  58559.27
SCF: Converged (|Delta E|<1.000000e-08 for 2 iters).

Setting wave functions to eigenvectors of Hamiltonian

# Ionic positions in lattice coordinates:
ion Bi   0.242350577239799   0.065343656146814   0.311496200976988 1
ion Bi   0.237276639341701   0.563065262011642   0.310563475953108 1
ion Bi   0.738658867619943   0.064852816935734   0.308994247699862 1
ion Bi   0.741048211624969   0.563273357152113   0.316645521980464 1
ion Bi   0.019651228151793   0.137354503138359   0.545607326043420 1
ion Bi   0.018533587941025   0.634567604449565   0.549125191351926 1
ion Bi   0.520464193796316   0.136289576903212   0.546926056617508 1
ion Bi   0.519028814159306   0.635592193195834   0.544714900076496 1
ion Bi   0.260548510676625   0.181182982825416   0.811011952389138 1
ion Bi   0.260101228216161   0.681408822642086   0.814058043180773 1
ion Bi   0.759115429467242   0.182682354480394   0.810599763237156 1
ion Bi   0.762740502734382   0.683444740588140   0.807555953939276 1
ion Bi   0.479640698873431   0.111064382510248   0.045537794442150 1
ion Bi   0.484066000623613   0.615780268814535   0.045464367567159 1
ion Bi   0.977747606559664   0.110352826804185   0.041877429584067 1
ion Bi   0.979251396251528   0.609933137484549   0.047907989312716 1
ion Bi   0.236143193082142   0.309254963585177   0.189863267169321 1
ion Bi   0.238629629762354   0.814048658129130   0.192419544722985 1
ion Bi   0.737905506820798   0.314363285901201   0.189890591757160 1
ion Bi   0.740938360443952   0.815040563653601   0.193224621994133 1
ion Bi   0.257280073006204   0.432091227570796   0.687660354337451 1
ion Bi   0.260410637805934   0.931773888050409   0.690319241598779 1
ion Bi   0.754275787894079   0.430288108028700   0.699813195273155 1
ion Bi   0.760152640473309   0.933066744689266   0.686905802368562 1
ion Bi   0.479528667786239   0.361075206415415   0.458992979234177 1
ion Bi   0.479370800749544   0.860310877986421   0.454862537756009 1
ion Bi   0.975794172853892   0.360193510256598   0.456498288358796 1
ion Bi   0.981269867638810   0.861075075337066   0.454759628255070 1
ion Bi   0.018539432579826   0.384784232013551   0.956131398006607 1
ion Bi   0.019847797861768   0.886564572589460   0.954420428770238 1
ion Bi   0.509272335128537   0.392964619510835   0.969463998973437 1
ion Bi   0.520603239208929   0.886856348665531   0.956253603763390 1
ion O   0.388398026334291   0.100351564079044   0.794466708078839 1
ion O   0.388752516459651   0.600196943234436   0.795766063968912 1
ion O   0.890397072828902   0.102850225121692   0.792583732759117 1
ion O   0.887050778350391   0.601892768237023   0.797016916906828 1
ion O   0.357420794670614   0.233023041004598   0.040175139482452 1
ion O   0.366890279459880   0.737197860569557   0.036865725705922 1
ion O   0.864702133377713   0.239422161834775   0.033227108601691 1
ion O   0.863286376996658   0.742109127429670   0.033723548147539 1
ion O   0.380518666166488   0.934787476626069   1.052821963359616 1
ion O   0.880381380160994   0.436540954828528   1.050839868607160 1
ion O   0.880745723732435   0.936752389956634   1.050455265932139 1
ion O   0.362828715946660   0.490470592686272   0.465298542843197 1
ion O   0.363517369178572   0.991301081796488   0.465732871774423 1
ion O   0.862027192535615   0.491529024186416   0.472087935411623 1
ion O   0.864028089636982   0.991686150053755   0.463414276309881 1
ion O   0.119601007708963   0.154636190640713   0.292558615605961 1
ion O   0.108332687519776   0.643159116943755   0.296932247393937 1
ion O   0.610089764075798   0.145253632960511   0.295694362329072 1
ion O   0.610885875941661   0.645389838799104   0.293784551042334 1
ion O   0.135193908968462   0.256027928008045   0.963334479694508 1
ion O   0.136933625397645   0.754557949346000   0.967895158438602 1
ion O   0.635198608752499   0.254125084929448   0.966801997241904 1
ion O   0.632105952558326   0.755151159188656   0.971002004898797 1
ion O   0.382113164814825   0.187003397106299   0.450588558136489 1
ion O   0.381138282777285   0.686087300293897   0.446341631905068 1
ion O   0.880880024881406   0.187276608301404   0.449441549930394 1
ion O   0.881002922609413   0.687195270101280   0.455540057492433 1
ion O   0.107174906337634   0.391537411122701   0.208010663655488 1
ion O   0.112349674079483   0.894862991405396   0.205374776598207 1
ion O   0.613703580275769   0.395837900697040   0.212616616494962 1
ion O   0.612232359908847   0.895528401993586   0.207236983153573 1
ion O   0.115848314200816   0.309989951070116   0.551562755891364 1
ion O   0.118948625825093   0.810108803971779   0.550180104217885 1
ion O   0.616961631165333   0.309636562401202   0.553870377838221 1
ion O   0.617638113833995   0.809733698495958   0.551439316824808 1
ion O   0.387415903641021   0.353050996456906   0.709845009607040 1
ion O   0.388383872529778   0.852008170674335   0.706318605819066 1
ion O   0.884636283968302   0.349303805435143   0.708661311502389 1
ion O   0.889920712288808   0.853414585683936   0.705127326746279 1
ion O   0.115037527361702   0.058926377262026  -0.054785188616102 1
ion O   0.117338490771094   0.559205748530369  -0.048828117934145 1
ion O   0.617644894757700   0.058508006415952  -0.049318860068868 1
ion O   0.619225000171892   0.562171843267469  -0.053801450464001 1
ion O   0.134730994950720   0.007158554578879   0.532139219593928 1
ion O   0.134446842795236   0.505023646818921   0.535848915277510 1
ion O   0.635163286146710   0.005498054097630   0.533028522149087 1
ion O   0.633962406774342   0.505949282890606   0.538286533022997 1

# Forces in Lattice coordinates:
force Bi   0.000765364897712  -0.001104982785335   0.000677518053477 1
force Bi   0.000745044295756   0.001132493829853  -0.000862963458949 1
force Bi  -0.000241615919738  -0.000943395056361   0.000291070294911 1
force Bi  -0.002517298011505   0.002382131142111  -0.000969498999851 1
force Bi  -0.000089192492820  -0.000129994197065   0.000610483288880 1
force Bi   0.000029158112072   0.001500040213022  -0.000643908742338 1
force Bi   0.002200603310305  -0.002566631092255   0.000963816449565 1
force Bi  -0.003002313750371   0.002515456473446  -0.000153181773687 1
force Bi   0.002438307611160  -0.002031111542681   0.000790805927286 1
force Bi  -0.000835623373048   0.004155106825971   0.000541557619480 1
force Bi   0.000290807812031   0.000139109948000   0.002266553491565 1
force Bi  -0.002759770157606   0.003184357909747  -0.000403311912258 1
force Bi   0.001222442246746  -0.002432946417013   0.000097458643666 1
force Bi  -0.001271705042183   0.002785400101583  -0.000028459383757 1
force Bi  -0.001962405202671  -0.000211273498497   0.001622116166882 1
force Bi  -0.000414770770060  -0.000254632768415   0.001038202509080 1
force Bi   0.002057308847105  -0.000904851819772  -0.000514056823588 1
force Bi   0.001912034531325  -0.001360934835622   0.000907767094531 1
force Bi  -0.001467332075182   0.000304203723823   0.000300695733236 1
force Bi  -0.002667257724012   0.002691358863652  -0.001300153001184 1
force Bi   0.000527051470996  -0.000084522301767  -0.001127082754251 1
force Bi   0.000855243927343  -0.001078840984893  -0.000954097560146 1
force Bi  -0.001492217258851   0.001193526540356   0.000153703538984 1
force Bi  -0.002383144434941  -0.000606604523689   0.001320536073594 1
force Bi  -0.003270779197226  -0.001930577889727  -0.001349761833890 1
force Bi  -0.000025933061731  -0.000913624891961  -0.001088569203795 1
force Bi  -0.000100312051990  -0.001209334285998   0.001392578447209 1
force Bi  -0.000004316567077   0.000526017787488   0.000474517896817 1
force Bi   0.002032411041139  -0.000117173001916   0.000680926371028 1
force Bi   0.000068575996752   0.001173671011667   0.000226663121173 1
force Bi   0.002525734454025  -0.003221486085648  -0.001893788418989 1
force Bi   0.002288853503845  -0.001363583546418   0.000752949944569 1
force O   0.000041185668775  -0.003863153663490   0.000378321600056 1
force O  -0.002191500329848   0.000828963191882   0.001309622086099 1
force O   0.001485837944734  -0.002886557987682  -0.000118056408279 1
force O  -0.000140528297934  -0.000643283992745   0.001018033072494 1
force O   0.000704384404666   0.002352079421896  -0.001333536680605 1
force O  -0.000810113326644  -0.000210829874818  -0.000818838354617 1
force O   0.001716779416867  -0.000731350634660  -0.000098250619107 1
force O  -0.002182943377829   0.000363786660492   0.000808148015022 1
force O   0.000235260665010   0.000597696226786   0.000243692691880 1
force O  -0.000052702127491   0.000111164526750  -0.000464185573994 1
force O   0.001200161241093  -0.000667749268761   0.000395562820639 1
force O  -0.002260253616604   0.000781967131143   0.000454065982008 1
force O  -0.000736478161191   0.000674009198843   0.000161839684387 1
force O  -0.000176569399222  -0.001803058904833  -0.000148424160554 1
force O   0.001149684811838  -0.001546882162973   0.000252664254759 1
force O   0.001178155519408   0.001307425794422   0.001235816371620 1
force O  -0.001147179414084   0.002570869326585   0.001189766308367 1
force O   0.001331827372337   0.000881500164673   0.001050517531092 1
force O  -0.000648798183398   0.000781831985555   0.000883900170881 1
force O   0.000366028352118  -0.001911137104342  -0.000120925785886 1
force O  -0.000345503710125  -0.000421144873068  -0.001436906306148 1
force O   0.000344586029039   0.003304896591033   0.001598374790929 1
force O   0.000568860966067   0.003451580900736  -0.000558660637318 1
force O   0.000860010449184  -0.002390565638107   0.000907641281833 1
force O   0.000818041648878  -0.000579174804629   0.000233865333975 1
force O   0.000064062414190  -0.000293390426683   0.000353303660073 1
force O  -0.001563893887150   0.000415462624678   0.000633944638987 1
force O  -0.000544480219355  -0.000121258584594  -0.001247173050448 1
force O  -0.001667644534869   0.001106396210713  -0.000934069870842 1
force O  -0.000720552760326   0.003306152970098  -0.001170670037918 1
force O   0.000092794854448   0.001171877958054  -0.000276920987131 1
force O  -0.002921570360494   0.001606136103099   0.000619104323831 1
force O  -0.001020793613693   0.000675858485684  -0.000287635230279 1
force O   0.001070074362888   0.000865706720003  -0.001207107791502 1
force O   0.002422019693124  -0.002634255654597  -0.001737844812609 1
force O   0.001065732155299  -0.002382686589509  -0.002045143038571 1
force O   0.000069560166403  -0.000803703906513  -0.000230561334913 1
force O  -0.002250723358093  -0.000380449884540  -0.000326021967328 1
force O   0.001827343549586  -0.001888606013326  -0.000261938063639 1
force O   0.002433067711750  -0.001815852762070   0.000050908645554 1
force O  -0.001633730235074   0.001527224755749   0.001441502354404 1
force O   0.000809876664963  -0.000204261053922   0.000725898285888 1
force O  -0.000698878908604  -0.000110258837112  -0.001441173646814 1
force O   0.000741079796063  -0.000438019706215   0.000005944298196 1
force O  -0.000896744048518   0.001277380205020   0.000801506217148 1
force O   0.000916173705144   0.001182615723389   0.000012548000306 1
force O  -0.001250185481686   0.000873562564771   0.000137367465184 1

# Energy components:
   Eewald =    -2345.2657303869368661
       EH =      718.7290079683948534
     Eloc =    -2303.5647913544717085
      Enl =      866.6244746135262176
      Exc =    -1198.1537970933595716
 Exc_core =      661.9337920064575655
       KE =      544.4720134257523796
-------------------------------------
     Etot =    -3055.2250308206371301
       TS =        0.0277154355387988
-------------------------------------
        F =    -3055.2527462561761240

IonicMinimize: Iter:  29  F: -3055.252746256176124  |grad|_K:  6.159e-05  alpha:  1.000e+00  linmin: -6.228e-01  t[s]:  58609.57
IonicMinimize: Converged (|grad|_K<1.000000e-04).

#--- Lowdin population analysis ---
# oxidation-state Bi +1.315 +1.302 +1.314 +1.311 +1.336 +1.331 +1.333 +1.333 +1.312 +1.309 +1.312 +1.315 +1.335 +1.223 +1.326 +1.332 +1.142 +1.313 +1.313 +1.318 +1.286 +1.312 +1.310 +1.311 +1.331 +1.333 +1.334 +1.329 +1.325 +1.331 +0.846 +1.330
# oxidation-state O -0.812 -0.820 -0.808 -0.808 -0.808 -0.806 -0.807 -0.806 -0.822 -0.820 -0.821 -0.808 -0.805 -0.809 -0.808 -0.797 -0.814 -0.814 -0.816 -0.803 -0.806 -0.794 -0.790 -0.820 -0.822 -0.820 -0.823 -0.816 -0.814 -0.804 -0.812 -0.817 -0.822 -0.815 -0.822 -0.808 -0.813 -0.812 -0.813 -0.821 -0.822 -0.826 -0.812 -0.809 -0.803 -0.806 -0.801


Dumping '/data/rc652/Bi2O3/vac/Bi2O3_vac40.Ecomponents' ... done
End date and time: Wed Nov 20 13:36:11 2024  (Duration: 0-16:17:02.56)
Done!
