
*************** JDFTx 1.7.0 (git hash e155c65d) ***************

Start date and time: Thu Nov 21 17:05:38 2024
Executable jdftx with command-line: -i Bi2O3_vac32.in
Running on hosts (process indices):  node3407 (0-17)
Divided in process groups (process indices):  0 (0)  1 (1)  2 (2)  3 (3)  4 (4)  5 (5)  6 (6)  7 (7)  8 (8)  9 (9)  10 (10)  11 (11)  12 (12)  13 (13)  14 (14)  15 (15)  16 (16)  17 (17)
Resource initialization completed at t[s]:      0.00
Run totals: 18 processes, 90 threads, 0 GPUs


Input parsed successfully to the following command list (including defaults):

basis kpoint-dependent
coords-type Lattice
core-overlap-check vector
coulomb-interaction Periodic
davidson-band-ratio 1.1
dump End Ecomponents
dump-name /data/rc652/Bi2O3/vac/Bi2O3_vac32.$VAR
elec-cutoff 20 100
elec-eigen-algo Davidson
elec-ex-corr gga-PBEsol
elec-smearing Fermi 0.01
electronic-minimize  \
	dirUpdateScheme      FletcherReeves \
	linminMethod         DirUpdateRecommended \
	nIterations          100 \
	history              15 \
	knormThreshold       0 \
	maxThreshold         no \
	energyDiffThreshold  1e-08 \
	nEnergyDiff          2 \
	alphaTstart          1 \
	alphaTmin            1e-10 \
	updateTestStepSize   yes \
	alphaTreduceFactor   0.1 \
	alphaTincreaseFactor 3 \
	nAlphaAdjustMax      3 \
	wolfeEnergy          0.0001 \
	wolfeGradient        0.9 \
	fdTest               no
electronic-scf  \
	nIterations	50 \
	energyDiffThreshold	1e-08 \
	residualThreshold	1e-07 \
	mixFraction	0.5 \
	qMetric	0.8 \
	history	10 \
	nEigSteps	2 \
	eigDiffThreshold	1e-08 \
	mixedVariable	Density \
	qKerker	0.8 \
	qKappa	-1 \
	verbose	no \
	mixFractionMag	1.5
exchange-regularization WignerSeitzTruncated
fluid None
fluid-ex-corr lda-TF lda-PZ
fluid-gummel-loop 10 1.000000e-05
fluid-minimize  \
	dirUpdateScheme      PolakRibiere \
	linminMethod         DirUpdateRecommended \
	nIterations          100 \
	history              15 \
	knormThreshold       0 \
	maxThreshold         no \
	energyDiffThreshold  0 \
	nEnergyDiff          2 \
	alphaTstart          1 \
	alphaTmin            1e-10 \
	updateTestStepSize   yes \
	alphaTreduceFactor   0.1 \
	alphaTincreaseFactor 3 \
	nAlphaAdjustMax      3 \
	wolfeEnergy          0.0001 \
	wolfeGradient        0.9 \
	fdTest               no
fluid-solvent H2O 55.338 ScalarEOS \
	epsBulk 78.4 \
	pMol 0.92466 \
	epsInf 1.77 \
	Pvap 1.06736e-10 \
	sigmaBulk 4.62e-05 \
	Rvdw 2.61727 \
	Res 1.42 \
	tauNuc 343133 \
	poleEl 15 7 1
forces-output-coords Positions
ion Bi   0.238570000000000   0.074140000000000   0.303040000000000 1
ion Bi   0.248910000000000   0.563890000000000   0.312980000000000 1
ion Bi   0.739860000000000   0.050230000000000   0.310430000000000 1
ion Bi   0.727920000000000   0.578810000000000   0.321680000000000 1
ion Bi   0.031650000000000   0.139980000000000   0.544790000000000 1
ion Bi   0.012150000000000   0.624850000000000   0.530560000000000 1
ion Bi   0.524030000000000   0.158680000000000   0.561730000000000 1
ion Bi   0.522680000000000   0.645960000000000   0.540170000000000 1
ion Bi   0.260010000000000   0.200390000000000   0.830830000000000 1
ion Bi   0.242620000000000   0.663120000000000   0.817680000000000 1
ion Bi   0.745290000000000   0.176850000000000   0.801880000000000 1
ion Bi   0.765550000000000   0.690620000000000   0.811640000000000 1
ion Bi   0.457120000000000   0.104920000000000   0.049770000000000 1
ion Bi   0.499510000000000   0.605420000000000   0.034830000000000 1
ion Bi   0.989610000000000   0.124020000000000   0.043550000000000 1
ion Bi   0.955580000000000   0.626430000000000   0.041000000000000 1
ion Bi   0.250650000000000   0.324080000000000   0.200000000000000 1
ion Bi   0.241880000000000   0.808530000000000   0.172670000000000 1
ion Bi   0.741490000000000   0.318530000000000   0.169220000000000 1
ion Bi   0.731820000000000   0.821340000000000   0.190580000000000 1
ion Bi   0.259130000000000   0.428370000000000   0.686550000000000 1
ion Bi   0.249460000000000   0.935820000000000   0.712350000000000 1
ion Bi   0.754730000000000   0.429980000000000   0.674580000000000 1
ion Bi   0.747750000000000   0.923050000000000   0.682160000000000 1
ion Bi   0.476760000000000   0.370220000000000   0.467870000000000 1
ion Bi   0.464400000000000   0.869740000000000   0.469470000000000 1
ion Bi   0.985370000000000   0.349250000000000   0.451500000000000 1
ion Bi   0.997340000000000   0.854090000000000   0.463860000000000 1
ion Bi   0.015440000000000   0.380680000000000   0.957640000000000 1
ion Bi   0.008840000000000   0.877800000000000   0.949360000000000 1
ion Bi   0.531640000000000   0.378170000000000   0.948390000000000 1
ion Bi   0.510560000000000   0.881500000000000   0.949360000000000 1
ion O   0.383660000000000   0.578450000000000   0.775670000000000 1
ion O   0.887180000000000   0.106020000000000   0.781740000000000 1
ion O   0.877600000000000   0.594900000000000   0.757740000000000 1
ion O   0.385370000000000   0.236140000000000   0.091820000000000 1
ion O   0.379190000000000   0.713030000000000   0.093390000000000 1
ion O   0.875800000000000   0.232270000000000   0.088880000000000 1
ion O   0.874740000000000   0.721080000000000   0.053840000000000 1
ion O   0.347510000000000   0.457940000000000   0.964720000000000 1
ion O   0.334580000000000   0.957390000000000   0.962430000000000 1
ion O   0.852780000000000   0.440850000000000   0.965170000000000 1
ion O   0.848950000000000   0.936000000000000   0.962320000000000 1
ion O   0.373170000000000   0.465660000000000   0.405390000000000 1
ion O   0.365860000000000   0.984850000000000   0.415110000000000 1
ion O   0.864870000000000   0.494540000000000   0.409730000000000 1
ion O   0.864550000000000   0.979600000000000   0.419350000000000 1
ion O   0.099890000000000   0.164150000000000   0.290250000000000 1
ion O   0.116970000000000   0.667830000000000   0.296050000000000 1
ion O   0.620020000000000   0.166250000000000   0.271170000000000 1
ion O   0.614240000000000   0.652300000000000   0.277590000000000 1
ion O   0.127680000000000   0.265850000000000   0.912850000000000 1
ion O   0.141510000000000   0.747060000000000   0.912620000000000 1
ion O   0.632850000000000   0.256540000000000   0.925040000000000 1
ion O   0.643670000000000   0.789610000000000   0.914730000000000 1
ion O   0.345630000000000   0.201200000000000   0.524350000000000 1
ion O   0.322560000000000   0.700060000000000   0.526450000000000 1
ion O   0.840760000000000   0.181360000000000   0.520820000000000 1
ion O   0.827120000000000   0.710220000000000   0.522420000000000 1
ion O   0.114110000000000   0.389310000000000   0.225460000000000 1
ion O   0.105420000000000   0.902460000000000   0.223150000000000 1
ion O   0.610550000000000   0.394880000000000   0.209580000000000 1
ion O   0.616730000000000   0.910600000000000   0.222540000000000 1
ion O   0.147420000000000   0.312610000000000   0.464690000000000 1
ion O   0.155410000000000   0.808780000000000   0.488920000000000 1
ion O   0.656900000000000   0.291380000000000   0.462950000000000 1
ion O   0.667900000000000   0.821460000000000   0.474650000000000 1
ion O   0.380320000000000   0.350560000000000   0.734460000000000 1
ion O   0.387280000000000   0.828440000000000   0.718290000000000 1
ion O   0.895280000000000   0.349990000000000   0.732350000000000 1
ion O   0.872890000000000   0.844780000000000   0.715740000000000 1
ion O   0.159930000000000   0.045410000000000   0.039680000000000 1
ion O   0.149320000000000   0.555600000000000   0.019500000000000 1
ion O   0.653100000000000   0.063930000000000   0.025970000000000 1
ion O   0.668610000000000   0.551990000000000   0.036570000000000 1
ion O   0.116360000000000   0.005860000000000   0.602010000000000 1
ion O   0.128280000000000   0.526380000000000   0.595340000000000 1
ion O   0.624630000000000   0.030070000000000   0.584720000000000 1
ion O   0.607360000000000   0.512480000000000   0.579260000000000 1
ion-species GBRV/$ID_pbesol.uspp
ion-width 0
ionic-minimize  \
	dirUpdateScheme      L-BFGS \
	linminMethod         DirUpdateRecommended \
	nIterations          50 \
	history              15 \
	knormThreshold       0.0001 \
	maxThreshold         no \
	energyDiffThreshold  1e-05 \
	nEnergyDiff          2 \
	alphaTstart          1 \
	alphaTmin            1e-10 \
	updateTestStepSize   yes \
	alphaTreduceFactor   0.1 \
	alphaTincreaseFactor 3 \
	nAlphaAdjustMax      3 \
	wolfeEnergy          0.0001 \
	wolfeGradient        0.9 \
	fdTest               no
kpoint   0.500000000000   0.500000000000   0.500000000000  1.00000000000000
kpoint-folding 3 3 4 
latt-move-scale 1 1 1
latt-scale 1 1 1 
lattice  \
	  22.078756736136054  -10.797991864405642   -0.000000000000000  \
	   0.198108228965560   25.717610123310134   -0.000000000000000  \
	  -0.000000000000000   -0.000000000000000   15.143990300894858 
lattice-minimize  \
	dirUpdateScheme      L-BFGS \
	linminMethod         DirUpdateRecommended \
	nIterations          0 \
	history              15 \
	knormThreshold       0 \
	maxThreshold         no \
	energyDiffThreshold  1e-06 \
	nEnergyDiff          2 \
	alphaTstart          1 \
	alphaTmin            1e-10 \
	updateTestStepSize   yes \
	alphaTreduceFactor   0.1 \
	alphaTincreaseFactor 3 \
	nAlphaAdjustMax      3 \
	wolfeEnergy          0.0001 \
	wolfeGradient        0.9 \
	fdTest               no
lcao-params -1 1e-06 0.01
pcm-variant GLSSA13
perturb-minimize  \
	nIterations            0 \
	algorithm              MINRES \
	residualTol            0.0001 \
	residualDiffThreshold  0.0001 \
	CGBypass               no \
	recomputeResidual      no
spintype no-spin
subspace-rotation-factor 1 yes
symmetries automatic
symmetry-threshold 0.0001



---------- Setting up symmetries ----------

Found 4 point-group symmetries of the bravais lattice
Found 1 space-group symmetries with basis
Applied RMS atom displacement 0 bohrs to make symmetries exact.

---------- Initializing the Grid ----------
R = 
[      22.0788      -10.798            0  ]
[     0.198108      25.7176            0  ]
[            0            0       15.144  ]
unit cell volume = 8631.35
G =
[   0.283512   0.119038          0  ]
[ -0.00218396   0.243398          0  ]
[          0          0   0.414896  ]
Minimum fftbox size, Smin = [  100  128  72  ]
Chosen fftbox size, S = [  100  128  72  ]

---------- Initializing tighter grid for wavefunction operations ----------
R = 
[      22.0788      -10.798            0  ]
[     0.198108      25.7176            0  ]
[            0            0       15.144  ]
unit cell volume = 8631.35
G =
[   0.283512   0.119038          0  ]
[ -0.00218396   0.243398          0  ]
[          0          0   0.414896  ]
Minimum fftbox size, Smin = [  92  116  64  ]
Chosen fftbox size, S = [  96  120  64  ]

---------- Exchange Correlation functional ----------
Initalized PBEsol GGA exchange.
Initalized PBEsol GGA correlation.

---------- Setting up pseudopotentials ----------
Width of ionic core gaussian charges (only for fluid interactions / plotting) set to 0

Reading pseudopotential file '/home/rc652/JDFTx/build/pseudopotentials/GBRV/bi_pbesol.uspp':
  Title: Bi.  Created by USPP 7.3.6 on 16-12-2017
  Reference state energy: -92.043361.  15 valence electrons in orbitals:
    |520>  occupation: 10  eigenvalue: -1.293232
    |600>  occupation: 2  eigenvalue: -0.815623
    |610>  occupation: 2  eigenvalue: -0.421990
  lMax: 2  lLocal: 3  QijEcut: 5
  6 projectors sampled on a log grid with 747 points:
    l: 0  eig: -0.815622  rCut: 2.5
    l: 0  eig: 0.500000  rCut: 2.5
    l: 1  eig: -0.421989  rCut: 2.5
    l: 1  eig: 1.000000  rCut: 2.5
    l: 2  eig: -1.293232  rCut: 2.3
    l: 2  eig: -0.500000  rCut: 2.3
  Partial core density with radius 1
  Transforming core density to a uniform radial grid of dG=0.02 with 1492 points.
  Transforming local potential to a uniform radial grid of dG=0.02 with 1492 points.
  Transforming nonlocal projectors to a uniform radial grid of dG=0.02 with 432 points.
  Transforming density augmentations to a uniform radial grid of dG=0.02 with 1492 points.
  Transforming atomic orbitals to a uniform radial grid of dG=0.02 with 432 points.
  Core radius for overlap checks: 2.50 bohrs.

Reading pseudopotential file '/home/rc652/JDFTx/build/pseudopotentials/GBRV/o_pbesol.uspp':
  Title: O.  Created by USPP 7.3.6 on 3-2-2014
  Reference state energy: -15.849885.  6 valence electrons in orbitals:
    |200>  occupation: 2  eigenvalue: -0.873214
    |210>  occupation: 4  eigenvalue: -0.330058
  lMax: 2  lLocal: 2  QijEcut: 6
  5 projectors sampled on a log grid with 511 points:
    l: 0  eig: -0.873214  rCut: 1.25
    l: 0  eig: 0.000000  rCut: 1.25
    l: 1  eig: -0.330058  rCut: 1.25
    l: 1  eig: 0.000000  rCut: 1.25
    l: 2  eig: 1.000000  rCut: 1.25
  Partial core density with radius 0.7
  Transforming core density to a uniform radial grid of dG=0.02 with 1492 points.
  Transforming local potential to a uniform radial grid of dG=0.02 with 1492 points.
  Transforming nonlocal projectors to a uniform radial grid of dG=0.02 with 432 points.
  Transforming density augmentations to a uniform radial grid of dG=0.02 with 1492 points.
  Transforming atomic orbitals to a uniform radial grid of dG=0.02 with 432 points.
  Core radius for overlap checks: 1.25 bohrs.

Initialized 2 species with 79 total atoms.

Folded 1 k-points by 3x3x4 to 36 k-points.

---------- Setting up k-points, bands, fillings ----------
Adding inversion symmetry to k-mesh for non-inversion-symmetric unit cell.
Reduced to 18 k-points under symmetry. 
Computing the number of bands and number of electrons
Calculating initial fillings.
nElectrons: 762.000000   nBands: 476   nStates: 18

----- Setting up reduced wavefunction bases (one per k-point) -----
average nbasis = 36878.222 , ideal nbasis = 36873.776

---------- Setting up ewald sum ----------
Optimum gaussian width for ewald sums = 3.950618 bohr.
Real space sum over 441 unit cells with max indices [  3  3  4  ]
Reciprocal space sum over 7875 terms with max indices [  10  12  7  ]

---------- Allocating electronic variables ----------
Initializing wave functions:  linear combination of atomic orbitals
Bi pseudo-atom occupations:   s ( 2 )  p ( 3 )  d ( 10 )
O pseudo-atom occupations:   s ( 2 )  p ( 4 )
	FillingsUpdate:  mu: +0.739786186  nElectrons: 762.000000
LCAOMinimize: Iter:   0  F: -3037.5975360592115067  |grad|_K:  3.562e-03  alpha:  1.000e+00
	FillingsUpdate:  mu: +0.638668064  nElectrons: 762.000000
LCAOMinimize: Iter:   1  F: -3045.2757192754093012  |grad|_K:  2.780e-03  alpha:  1.449e-01  linmin: -4.124e-01  cgtest:  7.844e-01  t[s]:    111.96
LCAOMinimize: Encountered beta<0, resetting CG.
LCAOMinimize: 	Predicted alpha/alphaT>3.000000, increasing alphaT to 4.346359e-01.
	FillingsUpdate:  mu: +0.511579356  nElectrons: 762.000000
LCAOMinimize: Iter:   2  F: -3050.0444669081825850  |grad|_K:  1.446e-03  alpha:  1.961e-01  linmin: -2.111e-01  cgtest:  5.241e-01  t[s]:    162.44
LCAOMinimize: Encountered beta<0, resetting CG.
	FillingsUpdate:  mu: +0.487188301  nElectrons: 762.000000
LCAOMinimize: Iter:   3  F: -3050.6771594231449853  |grad|_K:  9.364e-04  alpha:  1.475e-01  linmin: -5.212e-03  cgtest: -1.279e-01  t[s]:    203.14
	FillingsUpdate:  mu: +0.455175241  nElectrons: 762.000000
LCAOMinimize: Iter:   4  F: -3050.9204406683506932  |grad|_K:  5.161e-04  alpha:  1.314e-01  linmin:  2.805e-02  cgtest:  1.942e-01  t[s]:    244.00
	FillingsUpdate:  mu: +0.441179572  nElectrons: 762.000000
LCAOMinimize: Iter:   5  F: -3050.9594379796062640  |grad|_K:  1.572e-04  alpha:  7.146e-02  linmin: -2.274e-02  cgtest:  2.622e-01  t[s]:    284.74
	FillingsUpdate:  mu: +0.441757306  nElectrons: 762.000000
LCAOMinimize: Iter:   6  F: -3050.9670295186801923  |grad|_K:  9.719e-05  alpha:  1.489e-01  linmin: -5.339e-03  cgtest:  7.643e-03  t[s]:    325.55
	FillingsUpdate:  mu: +0.442884001  nElectrons: 762.000000
LCAOMinimize: Iter:   7  F: -3050.9705540449926957  |grad|_K:  6.389e-05  alpha:  1.802e-01  linmin: -3.459e-03  cgtest: -1.892e-02  t[s]:    366.83
	FillingsUpdate:  mu: +0.443379325  nElectrons: 762.000000
LCAOMinimize: Iter:   8  F: -3050.9715800764324740  |grad|_K:  4.097e-05  alpha:  1.219e-01  linmin: -3.181e-05  cgtest: -1.196e-02  t[s]:    407.56
	FillingsUpdate:  mu: +0.443234004  nElectrons: 762.000000
LCAOMinimize: Iter:   9  F: -3050.9721312791939454  |grad|_K:  3.397e-05  alpha:  1.606e-01  linmin:  1.312e-03  cgtest:  2.745e-03  t[s]:    448.47
	FillingsUpdate:  mu: +0.442502798  nElectrons: 762.000000
LCAOMinimize: Iter:  10  F: -3050.9724261793799087  |grad|_K:  1.539e-05  alpha:  1.251e-01  linmin:  8.242e-04  cgtest:  1.674e-02  t[s]:    489.97
	FillingsUpdate:  mu: +0.442438375  nElectrons: 762.000000
LCAOMinimize: Iter:  11  F: -3050.9724747135105645  |grad|_K:  8.721e-06  alpha:  1.002e-01  linmin:  1.010e-04  cgtest:  1.824e-03  t[s]:    531.07
	FillingsUpdate:  mu: +0.442535185  nElectrons: 762.000000
LCAOMinimize: Iter:  12  F: -3050.9724956406398633  |grad|_K:  5.780e-06  alpha:  1.344e-01  linmin:  1.163e-05  cgtest: -1.932e-04  t[s]:    571.72
	FillingsUpdate:  mu: +0.442593093  nElectrons: 762.000000
LCAOMinimize: Iter:  13  F: -3050.9725082332242891  |grad|_K:  2.891e-06  alpha:  1.841e-01  linmin: -1.054e-05  cgtest: -6.468e-04  t[s]:    612.35
	FillingsUpdate:  mu: +0.442602701  nElectrons: 762.000000
LCAOMinimize: Iter:  14  F: -3050.9725104726085192  |grad|_K:  1.327e-06  alpha:  1.308e-01  linmin:  4.781e-06  cgtest: -2.391e-04  t[s]:    653.94
	FillingsUpdate:  mu: +0.442592405  nElectrons: 762.000000
LCAOMinimize: Iter:  15  F: -3050.9725111271386595  |grad|_K:  9.939e-07  alpha:  1.816e-01  linmin: -7.509e-05  cgtest:  5.026e-04  t[s]:    695.88
	FillingsUpdate:  mu: +0.442588357  nElectrons: 762.000000
LCAOMinimize: Iter:  16  F: -3050.9725114408238369  |grad|_K:  8.994e-07  alpha:  1.550e-01  linmin:  6.193e-05  cgtest: -8.897e-04  t[s]:    736.89
LCAOMinimize: Converged (|Delta F|<1.000000e-06 for 2 iters).


---- Citations for features of the code used in this run ----

   Software package:
      R. Sundararaman, K. Letchworth-Weaver, K.A. Schwarz, D. Gunceler, Y. Ozhabes and T.A. Arias, 'JDFTx: software for joint density-functional theory', SoftwareX 6, 278 (2017)

   gga-PBEsol exchange-correlation functional:
      J.P. Perdew et al., Phys. Rev. Lett. 100, 136406 (2008)

   Pseudopotentials:
      KF Garrity, JW Bennett, KM Rabe and D Vanderbilt, Comput. Mater. Sci. 81, 446 (2014)

This list may not be complete. Please suggest additional citations or
report any other bugs at https://github.com/shankar1729/jdftx/issues

Initialization completed successfully at t[s]:    749.36


-------- Electronic minimization -----------
Will mix electronic density at each iteration.
	FillingsUpdate:  mu: +0.442588357  nElectrons: 762.000000
	FillingsUpdate:  mu: +0.425933081  nElectrons: 762.000000
SCF: Cycle:  0   F: -3052.409929774188186   dF: -1.437e+00   |Residual|: 1.439e+00   |deigs|: 1.255e-02  t[s]:    876.81
	FillingsUpdate:  mu: +0.390685838  nElectrons: 762.000000
SCF: Cycle:  1   F: -3053.407892748393806   dF: -9.980e-01   |Residual|: 5.930e-01   |deigs|: 3.226e-02  t[s]:    980.11
	FillingsUpdate:  mu: +0.401414530  nElectrons: 762.000000
SCF: Cycle:  2   F: -3054.164850999019109   dF: -7.570e-01   |Residual|: 2.596e-01   |deigs|: 1.506e-02  t[s]:   1083.59
	FillingsUpdate:  mu: +0.397773856  nElectrons: 762.000000
SCF: Cycle:  3   F: -3054.182576225889534   dF: -1.773e-02   |Residual|: 1.562e-01   |deigs|: 3.839e-03  t[s]:   1187.43
	FillingsUpdate:  mu: +0.397261744  nElectrons: 762.000000
SCF: Cycle:  4   F: -3054.219121720658677   dF: -3.655e-02   |Residual|: 5.289e-02   |deigs|: 2.382e-03  t[s]:   1291.03
	FillingsUpdate:  mu: +0.396929243  nElectrons: 762.000000
SCF: Cycle:  5   F: -3054.222768920748422   dF: -3.647e-03   |Residual|: 2.776e-02   |deigs|: 3.737e-04  t[s]:   1385.53
	FillingsUpdate:  mu: +0.396947440  nElectrons: 762.000000
SCF: Cycle:  6   F: -3054.223394728971925   dF: -6.258e-04   |Residual|: 1.497e-02   |deigs|: 1.845e-04  t[s]:   1453.32
	FillingsUpdate:  mu: +0.396914576  nElectrons: 762.000000
SCF: Cycle:  7   F: -3054.223826948452370   dF: -4.322e-04   |Residual|: 4.197e-03   |deigs|: 8.603e-05  t[s]:   1520.37
	FillingsUpdate:  mu: +0.396873482  nElectrons: 762.000000
SCF: Cycle:  8   F: -3054.223845251842704   dF: -1.830e-05   |Residual|: 2.590e-03   |deigs|: 9.213e-05  t[s]:   1588.43
	FillingsUpdate:  mu: +0.396850032  nElectrons: 762.000000
SCF: Cycle:  9   F: -3054.223854583409775   dF: -9.332e-06   |Residual|: 1.466e-03   |deigs|: 5.191e-05  t[s]:   1656.89
	FillingsUpdate:  mu: +0.396850464  nElectrons: 762.000000
SCF: Cycle: 10   F: -3054.223857654515086   dF: -3.071e-06   |Residual|: 8.008e-04   |deigs|: 7.911e-06  t[s]:   1725.23
	FillingsUpdate:  mu: +0.396851881  nElectrons: 762.000000
SCF: Cycle: 11   F: -3054.223858769858907   dF: -1.115e-06   |Residual|: 2.756e-04   |deigs|: 3.161e-06  t[s]:   1793.85
	FillingsUpdate:  mu: +0.396851161  nElectrons: 762.000000
SCF: Cycle: 12   F: -3054.223859013312449   dF: -2.435e-07   |Residual|: 1.901e-04   |deigs|: 1.374e-06  t[s]:   1861.16
	FillingsUpdate:  mu: +0.396850341  nElectrons: 762.000000
SCF: Cycle: 13   F: -3054.223859151402394   dF: -1.381e-07   |Residual|: 1.153e-04   |deigs|: 1.067e-06  t[s]:   1928.53
	FillingsUpdate:  mu: +0.396850055  nElectrons: 762.000000
SCF: Cycle: 14   F: -3054.223859235141845   dF: -8.374e-08   |Residual|: 5.879e-05   |deigs|: 1.242e-06  t[s]:   1996.65
	FillingsUpdate:  mu: +0.396849538  nElectrons: 762.000000
SCF: Cycle: 15   F: -3054.223859278985856   dF: -4.384e-08   |Residual|: 2.347e-05   |deigs|: 4.287e-07  t[s]:   2064.13
	FillingsUpdate:  mu: +0.396849580  nElectrons: 762.000000
SCF: Cycle: 16   F: -3054.223859300892855   dF: -2.191e-08   |Residual|: 2.308e-05   |deigs|: 1.332e-07  t[s]:   2131.31
	FillingsUpdate:  mu: +0.396849485  nElectrons: 762.000000
SCF: Cycle: 17   F: -3054.223859316497055   dF: -1.560e-08   |Residual|: 1.830e-05   |deigs|: 1.674e-07  t[s]:   2199.34
	FillingsUpdate:  mu: +0.396849500  nElectrons: 762.000000
SCF: Cycle: 18   F: -3054.223859323972647   dF: -7.476e-09   |Residual|: 1.637e-05   |deigs|: 9.847e-08  t[s]:   2261.09
	FillingsUpdate:  mu: +0.396849472  nElectrons: 762.000000
SCF: Cycle: 19   F: -3054.223859327735681   dF: -3.763e-09   |Residual|: 1.190e-05   |deigs|: 6.304e-08  t[s]:   2321.31
SCF: Converged (|Delta E|<1.000000e-08 for 2 iters).

Setting wave functions to eigenvectors of Hamiltonian

# Ionic positions in lattice coordinates:
ion Bi   0.238570000000000   0.074140000000000   0.303040000000000 1
ion Bi   0.248910000000000   0.563890000000000   0.312980000000000 1
ion Bi   0.739860000000000   0.050230000000000   0.310430000000000 1
ion Bi   0.727920000000000   0.578810000000000   0.321680000000000 1
ion Bi   0.031650000000000   0.139980000000000   0.544790000000000 1
ion Bi   0.012150000000000   0.624850000000000   0.530560000000000 1
ion Bi   0.524030000000000   0.158680000000000   0.561730000000000 1
ion Bi   0.522680000000000   0.645960000000000   0.540170000000000 1
ion Bi   0.260010000000000   0.200390000000000   0.830830000000000 1
ion Bi   0.242620000000000   0.663120000000000   0.817680000000000 1
ion Bi   0.745290000000000   0.176850000000000   0.801880000000000 1
ion Bi   0.765550000000000   0.690620000000000   0.811640000000000 1
ion Bi   0.457120000000000   0.104920000000000   0.049770000000000 1
ion Bi   0.499510000000000   0.605420000000000   0.034830000000000 1
ion Bi   0.989610000000000   0.124020000000000   0.043550000000000 1
ion Bi   0.955580000000000   0.626430000000000   0.041000000000000 1
ion Bi   0.250650000000000   0.324080000000000   0.200000000000000 1
ion Bi   0.241880000000000   0.808530000000000   0.172670000000000 1
ion Bi   0.741490000000000   0.318530000000000   0.169220000000000 1
ion Bi   0.731820000000000   0.821340000000000   0.190580000000000 1
ion Bi   0.259130000000000   0.428370000000000   0.686550000000000 1
ion Bi   0.249460000000000   0.935820000000000   0.712350000000000 1
ion Bi   0.754730000000000   0.429980000000000   0.674580000000000 1
ion Bi   0.747750000000000   0.923050000000000   0.682160000000000 1
ion Bi   0.476760000000000   0.370220000000000   0.467870000000000 1
ion Bi   0.464400000000000   0.869740000000000   0.469470000000000 1
ion Bi   0.985370000000000   0.349250000000000   0.451500000000000 1
ion Bi   0.997340000000000   0.854090000000000   0.463860000000000 1
ion Bi   0.015440000000000   0.380680000000000   0.957640000000000 1
ion Bi   0.008840000000000   0.877800000000000   0.949360000000000 1
ion Bi   0.531640000000000   0.378170000000000   0.948390000000000 1
ion Bi   0.510560000000000   0.881500000000000   0.949360000000000 1
ion O   0.383660000000000   0.578450000000000   0.775670000000000 1
ion O   0.887180000000000   0.106020000000000   0.781740000000000 1
ion O   0.877600000000000   0.594900000000000   0.757740000000000 1
ion O   0.385370000000000   0.236140000000000   0.091820000000000 1
ion O   0.379190000000000   0.713030000000000   0.093390000000000 1
ion O   0.875800000000000   0.232270000000000   0.088880000000000 1
ion O   0.874740000000000   0.721080000000000   0.053840000000000 1
ion O   0.347510000000000   0.457940000000000   0.964720000000000 1
ion O   0.334580000000000   0.957390000000000   0.962430000000000 1
ion O   0.852780000000000   0.440850000000000   0.965170000000000 1
ion O   0.848950000000000   0.936000000000000   0.962320000000000 1
ion O   0.373170000000000   0.465660000000000   0.405390000000000 1
ion O   0.365860000000000   0.984850000000000   0.415110000000000 1
ion O   0.864870000000000   0.494540000000000   0.409730000000000 1
ion O   0.864550000000000   0.979600000000000   0.419350000000000 1
ion O   0.099890000000000   0.164150000000000   0.290250000000000 1
ion O   0.116970000000000   0.667830000000000   0.296050000000000 1
ion O   0.620020000000000   0.166250000000000   0.271170000000000 1
ion O   0.614240000000000   0.652300000000000   0.277590000000000 1
ion O   0.127680000000000   0.265850000000000   0.912850000000000 1
ion O   0.141510000000000   0.747060000000000   0.912620000000000 1
ion O   0.632850000000000   0.256540000000000   0.925040000000000 1
ion O   0.643670000000000   0.789610000000000   0.914730000000000 1
ion O   0.345630000000000   0.201200000000000   0.524350000000000 1
ion O   0.322560000000000   0.700060000000000   0.526450000000000 1
ion O   0.840760000000000   0.181360000000000   0.520820000000000 1
ion O   0.827120000000000   0.710220000000000   0.522420000000000 1
ion O   0.114110000000000   0.389310000000000   0.225460000000000 1
ion O   0.105420000000000   0.902460000000000   0.223150000000000 1
ion O   0.610550000000000   0.394880000000000   0.209580000000000 1
ion O   0.616730000000000   0.910600000000000   0.222540000000000 1
ion O   0.147420000000000   0.312610000000000   0.464690000000000 1
ion O   0.155410000000000   0.808780000000000   0.488920000000000 1
ion O   0.656900000000000   0.291380000000000   0.462950000000000 1
ion O   0.667900000000000   0.821460000000000   0.474650000000000 1
ion O   0.380320000000000   0.350560000000000   0.734460000000000 1
ion O   0.387280000000000   0.828440000000000   0.718290000000000 1
ion O   0.895280000000000   0.349990000000000   0.732350000000000 1
ion O   0.872890000000000   0.844780000000000   0.715740000000000 1
ion O   0.159930000000000   0.045410000000000   0.039680000000000 1
ion O   0.149320000000000   0.555600000000000   0.019500000000000 1
ion O   0.653100000000000   0.063930000000000   0.025970000000000 1
ion O   0.668610000000000   0.551990000000000   0.036570000000000 1
ion O   0.116360000000000   0.005860000000000   0.602010000000000 1
ion O   0.128280000000000   0.526380000000000   0.595340000000000 1
ion O   0.624630000000000   0.030070000000000   0.584720000000000 1
ion O   0.607360000000000   0.512480000000000   0.579260000000000 1

# Forces in Lattice coordinates:
force Bi  -0.109739224459173  -0.475392817101812   0.092805599691122 1
force Bi  -0.675101996823588   1.067216351672002  -0.143441815848849 1
force Bi  -0.416603189409003   1.534947886340126   0.099680799570285 1
force Bi   0.798432401040937  -1.040550493309663   0.128066456511762 1
force Bi  -0.625699195104510  -0.068845861697746   0.174546467744248 1
force Bi   0.375450167485846  -0.174935165149385  -0.034564423139635 1
force Bi   0.047996235442870  -0.603191293637190  -0.635880752933668 1
force Bi  -0.297589449445380   0.365774533380270   0.136107273996458 1
force Bi   0.387435255012072  -0.833794743698721  -0.128921875738952 1
force Bi   0.850621242782757  -1.093299360298840  -0.111997050798899 1
force Bi   0.952654393564843  -1.077097214860232   0.012716607916103 1
force Bi  -0.375917870739565  -0.283768015388628  -0.664944713801068 1
force Bi   0.937092780343264  -0.055794002880802   0.176798805351959 1
force Bi  -0.554320961588070   0.031884671353899  -0.371748421306219 1
force Bi  -0.579604722631402  -0.310119026924898  -0.322095643139215 1
force Bi   1.917666561562953  -3.262076266413050  -0.205612192098036 1
force Bi  -0.357743857284264   0.603682395641266   0.089323637134289 1
force Bi  -0.406193142576910   0.188115424523936   0.246150521516872 1
force Bi  -0.126328172989777  -0.064459856000999   0.238630897097178 1
force Bi  -0.181994429786924   0.759496089125682   0.068633972236744 1
force Bi  -0.144233133451970   0.577053495122946   0.296228215876686 1
force Bi   0.260814416367815  -0.430444902281007  -0.536204990887975 1
force Bi   0.793613977141298  -0.445085519886989   0.067841525902622 1
force Bi   0.422133068006977   0.176453670474618   0.077910898622418 1
force Bi   0.285481344547328  -0.443889055742996  -0.145913228878593 1
force Bi  -0.218189785786969   0.117434319752341   0.080787949533540 1
force Bi  -0.591834051517329   0.023962453824039   0.173792737026235 1
force Bi  -0.261581373093310   0.469638589733687  -0.008706305247363 1
force Bi  -0.284696818456397   0.818282068246466   0.140555820577432 1
force Bi  -0.281047451426549   1.448230977359724   0.231818064306286 1
force Bi   0.204964625860406   0.361004884863480   0.532096890372962 1
force Bi   0.176342989959244   0.025914166530677   0.176693987091173 1
force O   0.263414970302886   0.535226861417776  -0.428084392669368 1
force O   0.225708456846851  -0.142385647746956   0.206823743539763 1
force O  -0.028948183635078   0.089416294025767   0.358353411175865 1
force O  -0.265966717161536   0.365286091077825  -0.391286470975601 1
force O  -0.161717160997429   0.405569727194639  -0.147425536152253 1
force O   0.242597881056258   0.168247022168682  -0.326688030645629 1
force O  -1.095282550126073   2.293148484969253   0.019630820247803 1
force O   0.430301138636302  -0.961146492669894   0.795207118800880 1
force O   0.417658515201322  -0.608642677457295   0.273564521607325 1
force O   0.141138569181142  -0.072713992823152   0.340406227406174 1
force O   0.726116962615790  -0.184898527810715   0.646776770917626 1
force O  -0.252295915635706   0.405717799396180   0.130686143732293 1
force O   0.086433831200707   0.090354946637548   0.182699267683299 1
force O   0.135177631309528  -0.054299337634969   0.411537575581312 1
force O   0.113979413821854   0.270571309621419   0.250470924312099 1
force O   0.329561328293996  -0.295857871099054  -0.248491117233705 1
force O   0.048522546932387  -0.278954056200491  -0.476890648042949 1
force O  -0.527059191003465  -0.397121997370808  -0.031757406319693 1
force O  -0.969271021816178   1.095577559253418   0.070980646021272 1
force O   0.305552175981009  -0.370162767018353   0.179108580142286 1
force O  -0.746867105494080   0.797128757475860   0.484375888359704 1
force O  -0.451597336498007   0.634731887535604   0.235474199330842 1
force O  -0.367263575636697  -0.180960137478086   0.198726390562675 1
force O   0.368296275517107  -0.438560175410253  -0.078571015413739 1
force O   0.733629699335594  -0.747766948369465  -0.644492321276480 1
force O   0.800616721890311   0.105925779152818  -0.397849970759704 1
force O   0.305725480925413  -0.888923442404385  -0.430587105263875 1
force O  -0.317700002460789   0.667800596769285  -0.342434368832836 1
force O   0.073421444988536  -0.436544142671333  -0.149829248941422 1
force O  -0.305801668290154   0.091552971479913   0.007447755000649 1
force O  -0.059268003756662  -0.685547968184407  -0.182698378692435 1
force O  -0.073243021387144  -0.261110423689311   0.748758096313130 1
force O  -0.343032579798777   0.390102255061631   0.478199235443039 1
force O  -0.244699600059239   0.858832241586452   0.653395607638434 1
force O  -0.644499979188006  -0.295801615621865   0.264629025665105 1
force O   0.208270964653995  -0.368822447744439  -0.180837408402337 1
force O   0.071797321788405   0.675106652155298   0.311187953303182 1
force O  -0.053868418243610  -0.326865261389621  -0.443996662889576 1
force O   0.503703087200914  -0.298822351454198   0.108989468826124 1
force O  -0.460590318453660   0.827992232459995  -0.457542603199997 1
force O  -0.195351424749378  -0.120416788681277  -0.093296991184543 1
force O  -0.457937045881552   0.013889143728249  -0.479678430858755 1
force O  -0.429553410521095   0.229117059524553  -0.417598038238088 1
force O   0.040091235603404  -0.064069183975976  -0.161945913915533 1
force O  -0.076143361835305  -0.213319363769564  -0.313416124571040 1
force O  -0.097767675451163  -0.349342339411456  -0.294640532175720 1
force O   0.130616339436535   0.122096874541115  -0.173788075026279 1

# Energy components:
   Eewald =    -2380.0658417223198740
       EH =      683.8967437636997602
     Eloc =    -2230.5162256943331158
      Enl =      865.7455611260609203
      Exc =    -1196.2934413973403025
 Exc_core =      661.9337800706912276
       KE =      541.2154815911364949
-------------------------------------
     Etot =    -3054.0839422624039798
       TS =        0.1399170653316210
-------------------------------------
        F =    -3054.2238593277356813

IonicMinimize: Iter:   0  F: -3054.223859327735681  |grad|_K:  2.199e-02  t[s]:   2359.64

#--- Lowdin population analysis ---
# oxidation-state Bi +1.243 +1.214 +1.347 +1.284 +1.249 +1.300 +1.107 +1.120 +1.109 +1.377 +1.323 +1.261 +1.080 +1.240 +1.250 +1.303 +1.252 +1.243 +1.355 +1.287 +1.304 +1.127 +1.212 +1.330 +1.249 +1.241 +1.244 +1.289 +1.298 +1.186 +1.188 +1.182
# oxidation-state O -0.752 -0.768 -0.774 -0.782 -0.814 -0.801 -0.781 -0.755 -0.803 -0.772 -0.751 -0.803 -0.795 -0.792 -0.797 -0.776 -0.758 -0.699 -0.772 -0.776 -0.792 -0.804 -0.796 -0.816 -0.737 -0.747 -0.794 -0.763 -0.754 -0.769 -0.761 -0.765 -0.746 -0.736 -0.778 -0.759 -0.758 -0.761 -0.736 -0.796 -0.795 -0.756 -0.805 -0.808 -0.796 -0.797 -0.796


-------- Electronic minimization -----------
Will mix electronic density at each iteration.
	FillingsUpdate:  mu: +0.396849472  nElectrons: 762.000000
	FillingsUpdate:  mu: +0.396712262  nElectrons: 762.000000
SCF: Cycle:  0   F: -3053.747400121069859   dF: -7.705e-02   |Residual|: 4.179e-01   |deigs|: 1.124e-03  t[s]:   2505.34
	FillingsUpdate:  mu: +0.398075807  nElectrons: 762.000000
SCF: Cycle:  1   F: -3054.134005700940179   dF: -3.866e-01   |Residual|: 3.498e-01   |deigs|: 3.676e-03  t[s]:   2608.76
	FillingsUpdate:  mu: +0.396599888  nElectrons: 762.000000
SCF: Cycle:  2   F: -3054.236475912694004   dF: -1.025e-01   |Residual|: 1.341e-01   |deigs|: 1.836e-03  t[s]:   2713.83
	FillingsUpdate:  mu: +0.397682188  nElectrons: 762.000000
SCF: Cycle:  3   F: -3054.290469909169587   dF: -5.399e-02   |Residual|: 8.682e-02   |deigs|: 1.102e-03  t[s]:   2818.04
	FillingsUpdate:  mu: +0.397146081  nElectrons: 762.000000
SCF: Cycle:  4   F: -3054.305473328665357   dF: -1.500e-02   |Residual|: 3.201e-02   |deigs|: 5.119e-04  t[s]:   2921.98
	FillingsUpdate:  mu: +0.397078598  nElectrons: 762.000000
SCF: Cycle:  5   F: -3054.306788324832723   dF: -1.315e-03   |Residual|: 2.406e-02   |deigs|: 2.488e-04  t[s]:   3007.54
	FillingsUpdate:  mu: +0.397067037  nElectrons: 762.000000
SCF: Cycle:  6   F: -3054.307987419356778   dF: -1.199e-03   |Residual|: 6.723e-03   |deigs|: 1.296e-04  t[s]:   3074.73
	FillingsUpdate:  mu: +0.397105719  nElectrons: 762.000000
SCF: Cycle:  7   F: -3054.308068444491255   dF: -8.103e-05   |Residual|: 4.026e-03   |deigs|: 7.078e-05  t[s]:   3143.32
	FillingsUpdate:  mu: +0.397103414  nElectrons: 762.000000
SCF: Cycle:  8   F: -3054.308100482850932   dF: -3.204e-05   |Residual|: 2.544e-03   |deigs|: 3.948e-05  t[s]:   3211.49
	FillingsUpdate:  mu: +0.397082448  nElectrons: 762.000000
SCF: Cycle:  9   F: -3054.308111385259963   dF: -1.090e-05   |Residual|: 1.420e-03   |deigs|: 2.284e-05  t[s]:   3278.83
	FillingsUpdate:  mu: +0.397078145  nElectrons: 762.000000
SCF: Cycle: 10   F: -3054.308114729708450   dF: -3.344e-06   |Residual|: 5.370e-04   |deigs|: 1.149e-05  t[s]:   3347.25
	FillingsUpdate:  mu: +0.397079835  nElectrons: 762.000000
SCF: Cycle: 11   F: -3054.308115292259572   dF: -5.626e-07   |Residual|: 2.587e-04   |deigs|: 4.086e-06  t[s]:   3415.33
	FillingsUpdate:  mu: +0.397079574  nElectrons: 762.000000
SCF: Cycle: 12   F: -3054.308115384556004   dF: -9.230e-08   |Residual|: 1.633e-04   |deigs|: 1.106e-06  t[s]:   3483.13
	FillingsUpdate:  mu: +0.397078750  nElectrons: 762.000000
SCF: Cycle: 13   F: -3054.308115417180488   dF: -3.262e-08   |Residual|: 9.475e-05   |deigs|: 1.021e-06  t[s]:   3550.83
	FillingsUpdate:  mu: +0.397078658  nElectrons: 762.000000
SCF: Cycle: 14   F: -3054.308115435459968   dF: -1.828e-08   |Residual|: 3.874e-05   |deigs|: 5.213e-07  t[s]:   3618.86
	FillingsUpdate:  mu: +0.397078727  nElectrons: 762.000000
SCF: Cycle: 15   F: -3054.308115439553603   dF: -4.094e-09   |Residual|: 2.413e-05   |deigs|: 2.210e-07  t[s]:   3686.91
	FillingsUpdate:  mu: +0.397078582  nElectrons: 762.000000
SCF: Cycle: 16   F: -3054.308115441968766   dF: -2.415e-09   |Residual|: 1.117e-05   |deigs|: 1.240e-07  t[s]:   3754.87
SCF: Converged (|Delta E|<1.000000e-08 for 2 iters).

Setting wave functions to eigenvectors of Hamiltonian

# Ionic positions in lattice coordinates:
ion Bi   0.238091970949131   0.073513233922068   0.303360391353770 1
ion Bi   0.248237272816426   0.564773609977643   0.312485380696996 1
ion Bi   0.739942876399997   0.051815869133128   0.310774109544109 1
ion Bi   0.728841673951538   0.578028249771615   0.322122034902801 1
ion Bi   0.030425321384343   0.139542761747865   0.545392382496000 1
ion Bi   0.012762067125701   0.624855693777021   0.530440987918505 1
ion Bi   0.523778235470533   0.157991122907020   0.559536555841634 1
ion Bi   0.522324012176779   0.646225261992167   0.540639774262083 1
ion Bi   0.260270382981391   0.199620197071421   0.830385471852060 1
ion Bi   0.243610589800466   0.662305273667678   0.817293859422813 1
ion Bi   0.746483134386889   0.176112491436058   0.801924098884547 1
ion Bi   0.764676491602239   0.690069507744348   0.809346290457647 1
ion Bi   0.458863998576437   0.105386308888256   0.050380152651491 1
ion Bi   0.498477812311673   0.605142926088733   0.033547764392139 1
ion Bi   0.988335561180541   0.123322475283714   0.042439057454762 1
ion Bi   0.957360085318782   0.623646486546200   0.040290904195474 1
ion Bi   0.250315218555750   0.324593563113691   0.200308379215631 1
ion Bi   0.241217270156289   0.808522602101747   0.173519403470852 1
ion Bi   0.741214048222078   0.318381734973665   0.170043462132942 1
ion Bi   0.731906778286270   0.822138439784511   0.190817003631107 1
ion Bi   0.259184658160354   0.428973271423713   0.687572162417131 1
ion Bi   0.249709656959710   0.935457169039887   0.710500419109317 1
ion Bi   0.755980914156009   0.429902546331427   0.674814269835244 1
ion Bi   0.748650199537059   0.923499448139897   0.682429007341493 1
ion Bi   0.477048757571820   0.369855222790681   0.467366854771106 1
ion Bi   0.464053344583206   0.869755509889574   0.469748932644368 1
ion Bi   0.984262228767480   0.348942202868522   0.452099782261978 1
ion Bi   0.997111262478897   0.854499048031174   0.463830193726739 1
ion Bi   0.015365577271631   0.381489880041952   0.958125120939474 1
ion Bi   0.009130458040269   0.879359933425514   0.950159959097725 1
ion Bi   0.532233567770221   0.378715172865643   0.950225866486123 1
ion Bi   0.510908920129136   0.881631033561989   0.949969791047537 1
ion O   0.384463323448975   0.579235252199009   0.774193415527345 1
ion O   0.887526824770340   0.105979251870885   0.782453733232620 1
ion O   0.877596008413652   0.594989777976227   0.758976483052586 1
ion O   0.385073655039883   0.236422651514085   0.090470361670900 1
ion O   0.379114083591349   0.713419722278223   0.092881637585803 1
ion O   0.876355343418183   0.232607683751115   0.087753214552315 1
ion O   0.873967723235302   0.723180473795029   0.053907951660759 1
ion O   0.347779240431806   0.457043342343070   0.967463548966309 1
ion O   0.335025593298726   0.956904709120717   0.963373976789961 1
ion O   0.853006167911849   0.440843921120636   0.966344568529636 1
ion O   0.850220867396791   0.936193128520014   0.964551491236335 1
ion O   0.372922534338702   0.465998427106655   0.405841072347707 1
ion O   0.366075173716524   0.985006457833259   0.415740508174403 1
ion O   0.865095336861415   0.494552398770932   0.411149958756068 1
ion O   0.864919775709462   0.979986093196827   0.420214308075466 1
ion O   0.100346400729647   0.163986038183839   0.289392979694980 1
ion O   0.116903479167665   0.667526410113975   0.294405042814544 1
ion O   0.618795688157415   0.165479029724144   0.271060671616491 1
ion O   0.613025981991462   0.653050124816968   0.277835099229266 1
ion O   0.128048683486315   0.265584168011186   0.913468120954825 1
ion O   0.140547812396730   0.747582137052948   0.914291237700221 1
ion O   0.632355023781252   0.257037098375832   0.925852572099229 1
ion O   0.642871310350381   0.789186496044991   0.915415798836162 1
ion O   0.346078707777248   0.200888609347747   0.524079173171285 1
ion O   0.323525255368974   0.699589067016483   0.524226847495598 1
ion O   0.842337293124217   0.181940777456949   0.519447718789252 1
ion O   0.827194228353007   0.709338307925196   0.520934781623644 1
ion O   0.113887530652300   0.389922449606338   0.224278892546724 1
ion O   0.105311109022594   0.901983441762533   0.222633345213442 1
ion O   0.610022626009978   0.394814994192609   0.209605922299355 1
ion O   0.616228186715929   0.909752382984905   0.221909952688217 1
ion O   0.147132890924171   0.312258404268863   0.467273308278648 1
ion O   0.154981728263534   0.809048325028122   0.490569929369974 1
ion O   0.656924408568689   0.292260756168867   0.465204325020360 1
ion O   0.666510730038464   0.820742598834789   0.475563150952566 1
ion O   0.380505111555059   0.350240479830583   0.733836372697574 1
ion O   0.387799722327191   0.829282454742775   0.719363770793025 1
ion O   0.894992238038983   0.349571338773254   0.730818521086391 1
ion O   0.873674689151283   0.844711473566787   0.716116222761629 1
ion O   0.159527802764547   0.046131458832439   0.038101790053657 1
ion O   0.148881462043863   0.555346071472633   0.019178371230628 1
ion O   0.652240219749488   0.063686328563980   0.024315425470378 1
ion O   0.667926304893056   0.552018011659822   0.035129591544732 1
ion O   0.116399610478589   0.005806765956713   0.601451544920914 1
ion O   0.128014552270432   0.526083501622061   0.594259000216728 1
ion O   0.624246282911926   0.029599704700732   0.583703772598913 1
ion O   0.607676930273607   0.512699253625733   0.578660691616837 1

# Forces in Lattice coordinates:
force Bi  -0.141908715119048  -0.407099923857354   0.061895761840744 1
force Bi  -0.625160086292077   1.011682600570509  -0.125566264289679 1
force Bi  -0.436131686611370   1.363854042690035   0.090483509293944 1
force Bi   0.524999234794909  -0.690313204912728   0.078852360748622 1
force Bi  -0.579797371175073  -0.049390840420223   0.108231702587963 1
force Bi   0.350781816847062  -0.118892117751521  -0.013685406841288 1
force Bi   0.063110108589526  -0.577432724921925  -0.614955806378726 1
force Bi  -0.257434422347614   0.359346865326698   0.074758646954635 1
force Bi   0.354312675349828  -0.748418187164031  -0.096188251833270 1
force Bi   0.717467770843146  -0.844729388444502  -0.081168497846541 1
force Bi   0.826080217719560  -0.949443797354963   0.024099715025711 1
force Bi  -0.249720106654725  -0.289969884447199  -0.539491041817648 1
force Bi   0.907108937385964  -0.086993107346432   0.161532416324292 1
force Bi  -0.471668154906880   0.029975034890083  -0.313849665413048 1
force Bi  -0.504335732817259  -0.291873874254428  -0.276984914418412 1
force Bi   1.281696002198828  -2.254673587752848  -0.209517416955509 1
force Bi  -0.361321598197829   0.573715026761803   0.084574052986000 1
force Bi  -0.400389413125683   0.221164440649996   0.192022879890612 1
force Bi  -0.128360060591484  -0.089174701692232   0.231362540669389 1
force Bi  -0.144611197546036   0.616192004708661   0.060988778850890 1
force Bi  -0.077131617169217   0.439487117430296   0.277751100140004 1
force Bi   0.283540481628057  -0.440444938889030  -0.483144629702648 1
force Bi   0.735491705043825  -0.450067475874659   0.072577158902572 1
force Bi   0.413726278255235   0.092970856849286   0.046900422837996 1
force Bi   0.233766548224624  -0.367013073616054  -0.117014018149911 1
force Bi  -0.168343894417371   0.077015313296663   0.076292621061146 1
force Bi  -0.504719364860541  -0.022492913009089   0.162063385310214 1
force Bi  -0.291612036038740   0.440805682000653  -0.010001804485984 1
force Bi  -0.247366917541198   0.726987955264967   0.121616899512336 1
force Bi  -0.259912756382635   1.243072439963470   0.231369151370089 1
force Bi   0.166448264712437   0.361991558518264   0.474496842407031 1
force Bi   0.165132732916704   0.029339010432935   0.186549279966981 1
force O   0.235799743458618   0.486367933945751  -0.375629702627404 1
force O   0.217434706833686  -0.148498144660362   0.192162718881276 1
force O   0.013257600871402   0.068386613626579   0.334848092917032 1
force O  -0.261317326007271   0.362031096216045  -0.392781442992979 1
force O  -0.178428214743868   0.390421539392710  -0.156659500029737 1
force O   0.199563575808184   0.172658343405897  -0.323190844757252 1
force O  -0.580405318375121   1.479056599085849  -0.062334214998827 1
force O   0.408991110657734  -0.906901029600348   0.748311881127746 1
force O   0.404979851015446  -0.564473095560054   0.253853449366396 1
force O   0.172776185901730  -0.063210518879459   0.338789948806730 1
force O   0.690398370332656  -0.157515222257600   0.616854200521532 1
force O  -0.252334439859818   0.398390812805267   0.142036562660907 1
force O   0.071347984703128   0.102292510693282   0.195043439271373 1
force O   0.121946785943908  -0.057276635861657   0.393578129255856 1
force O   0.079187126356366   0.302490929867033   0.257382318366011 1
force O   0.308136107129744  -0.288647008721360  -0.202055134309156 1
force O   0.026043138117081  -0.293676900035915  -0.436205242967286 1
force O  -0.525393587641908  -0.374807038534369  -0.003698033905075 1
force O  -0.771456958625333   0.838411690363289   0.073692580716349 1
force O   0.315463867504967  -0.393049527326827   0.175394193590180 1
force O  -0.609114233776660   0.610157182259904   0.459082463563679 1
force O  -0.391421337551292   0.562524973824030   0.230109064684665 1
force O  -0.334297866810916  -0.163311164024058   0.188277590136573 1
force O   0.377670687303989  -0.455992124450374  -0.090943689020190 1
force O   0.728317981403690  -0.727611028018010  -0.619858630802478 1
force O   0.783525932409745   0.083183796601058  -0.390943905748799 1
force O   0.317876613159222  -0.870119938821126  -0.419040414998938 1
force O  -0.305804412783560   0.608476159038982  -0.292150128583929 1
force O   0.080801879441429  -0.405068734828672  -0.140875402822207 1
force O  -0.271735455992583   0.074899020018941   0.024282629981656 1
force O  -0.060354167773951  -0.528657476478174  -0.153222878566272 1
force O  -0.141409350372781  -0.187339650099505   0.695554955224305 1
force O  -0.322961944774319   0.372893162260779   0.467896729018819 1
force O  -0.238005667449987   0.843744618618370   0.626569163374777 1
force O  -0.628975164722389  -0.233120373184307   0.301398376336576 1
force O   0.177770135877384  -0.324844578337104  -0.171508961754549 1
force O   0.055826711886776   0.623089712897961   0.257748000880441 1
force O  -0.045591348363374  -0.286137568142906  -0.423420250641842 1
force O   0.461340282631309  -0.286836416585466   0.098041787165872 1
force O  -0.451384292871101   0.812389922322273  -0.432667198041773 1
force O  -0.247705111842173  -0.078591465087750  -0.101998468121237 1
force O  -0.442414340133477   0.012252077415478  -0.471216166032526 1
force O  -0.433479681513763   0.219919828973402  -0.402461016114203 1
force O   0.056292999355942  -0.084869800089599  -0.164277505728517 1
force O  -0.071685381406121  -0.198602039876436  -0.307522079206856 1
force O  -0.065056354005996  -0.339249726493111  -0.297311739909355 1
force O   0.148822209363173   0.079769051710981  -0.183807691115075 1

# Energy components:
   Eewald =    -2381.9470069027929640
       EH =      682.2913048487408787
     Eloc =    -2226.9773623586661415
      Enl =      865.6838123367490425
      Exc =    -1196.2784779917428750
 Exc_core =      661.9337694462141144
       KE =      541.1164025208842077
-------------------------------------
     Etot =    -3054.1775581006140783
       TS =        0.1305573413546816
-------------------------------------
        F =    -3054.3081154419687664

IonicMinimize: Iter:   1  F: -3054.308115441968766  |grad|_K:  1.918e-02  alpha:  7.912e-01  linmin: -9.894e-01  t[s]:   3793.09

#--- Lowdin population analysis ---
# oxidation-state Bi +1.244 +1.222 +1.339 +1.283 +1.252 +1.299 +1.113 +1.137 +1.117 +1.366 +1.321 +1.268 +1.088 +1.246 +1.254 +1.293 +1.260 +1.251 +1.349 +1.299 +1.305 +1.137 +1.220 +1.326 +1.254 +1.245 +1.246 +1.293 +1.297 +1.206 +1.199 +1.193
# oxidation-state O -0.759 -0.772 -0.774 -0.784 -0.815 -0.803 -0.783 -0.763 -0.805 -0.777 -0.756 -0.804 -0.797 -0.794 -0.797 -0.777 -0.762 -0.706 -0.773 -0.777 -0.792 -0.805 -0.800 -0.816 -0.744 -0.754 -0.796 -0.766 -0.756 -0.771 -0.763 -0.766 -0.750 -0.745 -0.779 -0.761 -0.762 -0.765 -0.741 -0.798 -0.798 -0.762 -0.805 -0.809 -0.799 -0.799 -0.797


-------- Electronic minimization -----------
Will mix electronic density at each iteration.
	FillingsUpdate:  mu: +0.397078582  nElectrons: 762.000000
	FillingsUpdate:  mu: +0.396315877  nElectrons: 762.000000
SCF: Cycle:  0   F: -3053.171489236425259   dF: -5.930e-01   |Residual|: 7.114e-01   |deigs|: 3.440e-03  t[s]:   3938.52
	FillingsUpdate:  mu: +0.398617706  nElectrons: 762.000000
SCF: Cycle:  1   F: -3054.067895785070959   dF: -8.964e-01   |Residual|: 5.047e-01   |deigs|: 5.847e-03  t[s]:   4041.85
	FillingsUpdate:  mu: +0.397243287  nElectrons: 762.000000
SCF: Cycle:  2   F: -3054.249871958156746   dF: -1.820e-01   |Residual|: 2.332e-01   |deigs|: 2.849e-03  t[s]:   4144.87
	FillingsUpdate:  mu: +0.398430102  nElectrons: 762.000000
SCF: Cycle:  3   F: -3054.412106683731963   dF: -1.622e-01   |Residual|: 9.919e-02   |deigs|: 1.835e-03  t[s]:   4248.92
	FillingsUpdate:  mu: +0.397962144  nElectrons: 762.000000
SCF: Cycle:  4   F: -3054.429320317254678   dF: -1.721e-02   |Residual|: 4.539e-02   |deigs|: 5.626e-04  t[s]:   4345.26
	FillingsUpdate:  mu: +0.397863631  nElectrons: 762.000000
SCF: Cycle:  5   F: -3054.431698312666413   dF: -2.378e-03   |Residual|: 2.520e-02   |deigs|: 3.260e-04  t[s]:   4439.87
	FillingsUpdate:  mu: +0.397899425  nElectrons: 762.000000
SCF: Cycle:  6   F: -3054.433002126824249   dF: -1.304e-03   |Residual|: 8.303e-03   |deigs|: 1.616e-04  t[s]:   4507.47
	FillingsUpdate:  mu: +0.397958740  nElectrons: 762.000000
SCF: Cycle:  7   F: -3054.433121524471517   dF: -1.194e-04   |Residual|: 6.353e-03   |deigs|: 1.012e-04  t[s]:   4574.64
	FillingsUpdate:  mu: +0.397918860  nElectrons: 762.000000
SCF: Cycle:  8   F: -3054.433204305256368   dF: -8.278e-05   |Residual|: 2.932e-03   |deigs|: 4.949e-05  t[s]:   4643.74
	FillingsUpdate:  mu: +0.397894285  nElectrons: 762.000000
SCF: Cycle:  9   F: -3054.433219046226441   dF: -1.474e-05   |Residual|: 1.364e-03   |deigs|: 3.445e-05  t[s]:   4712.30
	FillingsUpdate:  mu: +0.397894350  nElectrons: 762.000000
SCF: Cycle: 10   F: -3054.433223087199622   dF: -4.041e-06   |Residual|: 5.389e-04   |deigs|: 8.479e-06  t[s]:   4779.87
	FillingsUpdate:  mu: +0.397898130  nElectrons: 762.000000
SCF: Cycle: 11   F: -3054.433223439674748   dF: -3.525e-07   |Residual|: 3.296e-04   |deigs|: 5.539e-06  t[s]:   4847.79
	FillingsUpdate:  mu: +0.397895326  nElectrons: 762.000000
SCF: Cycle: 12   F: -3054.433223625890605   dF: -1.862e-07   |Residual|: 2.048e-04   |deigs|: 3.292e-06  t[s]:   4915.34
	FillingsUpdate:  mu: +0.397895051  nElectrons: 762.000000
SCF: Cycle: 13   F: -3054.433223694371918   dF: -6.848e-08   |Residual|: 8.197e-05   |deigs|: 1.175e-06  t[s]:   4982.73
	FillingsUpdate:  mu: +0.397894984  nElectrons: 762.000000
SCF: Cycle: 14   F: -3054.433223711882420   dF: -1.751e-08   |Residual|: 4.530e-05   |deigs|: 4.040e-07  t[s]:   5050.22
	FillingsUpdate:  mu: +0.397894902  nElectrons: 762.000000
SCF: Cycle: 15   F: -3054.433223718904173   dF: -7.022e-09   |Residual|: 2.076e-05   |deigs|: 2.421e-07  t[s]:   5117.81
	FillingsUpdate:  mu: +0.397894773  nElectrons: 762.000000
SCF: Cycle: 16   F: -3054.433223721961440   dF: -3.057e-09   |Residual|: 1.469e-05   |deigs|: 1.214e-07  t[s]:   5185.06
SCF: Converged (|Delta E|<1.000000e-08 for 2 iters).

Setting wave functions to eigenvectors of Hamiltonian

# Ionic positions in lattice coordinates:
ion Bi   0.236896658468403   0.072387372594632   0.303578313589252 1
ion Bi   0.247008083500765   0.566606529841068   0.311655474587424 1
ion Bi   0.739486727651364   0.054399393878462   0.311406187222713 1
ion Bi   0.729407902102478   0.577499614537209   0.322313529579903 1
ion Bi   0.028106598040750   0.138783227112917   0.545665597043135 1
ion Bi   0.014085352800977   0.625121425749457   0.530516698332411 1
ion Bi   0.523412996996413   0.156610114561327   0.554886537662255 1
ion Bi   0.521861495624845   0.646902889299853   0.540693213713497 1
ion Bi   0.260795494573785   0.198263350880753   0.829916125375737 1
ion Bi   0.245334012368222   0.661504375771156   0.816925949458632 1
ion Bi   0.748397644949817   0.174815258275902   0.802213954570497 1
ion Bi   0.763819280003739   0.689124831495357   0.806201489862967 1
ion Bi   0.462479570965173   0.106188990320017   0.051517736934251 1
ion Bi   0.496874097638089   0.604726760046405   0.031587120874527 1
ion Bi   0.986167685709089   0.122043213529008   0.040656600094524 1
ion Bi   0.958374846072760   0.621317902335531   0.038611077699424 1
ion Bi   0.249438313591164   0.325583081951578   0.200932814806517 1
ion Bi   0.239850771014376   0.808710492705260   0.174557573279195 1
ion Bi   0.740499615698960   0.317897518234639   0.171799713302723 1
ion Bi   0.732053894594331   0.823241961424452   0.191230788204498 1
ion Bi   0.259544993310614   0.429746053434751   0.689595238775632 1
ion Bi   0.250458537937628   0.934635710329029   0.707166860088232 1
ion Bi   0.758288305949080   0.429539078830742   0.675427168509488 1
ion Bi   0.750396945027969   0.924024201229806   0.682528184522845 1
ion Bi   0.477445924696874   0.369321889761734   0.466700356305934 1
ion Bi   0.463607511331991   0.869696526324798   0.470310492658703 1
ion Bi   0.982405251677593   0.348213937904135   0.453272401866552 1
ion Bi   0.996238091498784   0.855184642856982   0.463741378418477 1
ion Bi   0.015287006995322   0.382916218450297   0.958916915686907 1
ion Bi   0.009424645239964   0.881800997405768   0.951975764048203 1
ion Bi   0.533238140518727   0.379857962641198   0.953454051442038 1
ion Bi   0.511611489727421   0.881918744141585   0.951523208555521 1
ion O   0.385908946509581   0.580670290764689   0.771699664909895 1
ion O   0.888225315843722   0.105829145297283   0.783837361026837 1
ion O   0.877914288082882   0.595189821326433   0.761404482779131 1
ion O   0.384432249717997   0.237061012019170   0.087371066261596 1
ion O   0.378747832766141   0.714175791177634   0.091570792029537 1
ion O   0.877241022175487   0.233284926607995   0.085244476082243 1
ion O   0.874674857673655   0.724725937037674   0.052703923646765 1
ion O   0.348347095327846   0.455252024715874   0.972937388590742 1
ion O   0.336046362889186   0.956016732874532   0.965198445225727 1
ion O   0.853835995085271   0.440970984900551   0.968994541038449 1
ion O   0.852866234647963   0.936692129967498   0.969140133940172 1
ion O   0.372338667642647   0.466727817688651   0.407057654688082 1
ion O   0.366460959058484   0.985390102952317   0.417382408069341 1
ion O   0.865480430728603   0.494527739445499   0.414087980135600 1
ion O   0.865532881710461   0.980953181004413   0.422298803774391 1
ion O   0.101211146299266   0.163595322164589   0.288211051618198 1
ion O   0.116507249088264   0.666689471006388   0.291332463177450 1
ion O   0.616082630078875   0.163854578690505   0.271277536070473 1
ion O   0.611359730240662   0.653831874979205   0.278439107973104 1
ion O   0.128916818313306   0.264875145386091   0.914815457032132 1
ion O   0.139099963762026   0.748081046014406   0.917680147535454 1
ion O   0.631578511843168   0.257922151667176   0.927615576864485 1
ion O   0.641400402138167   0.788412603988009   0.916805641587521 1
ion O   0.347139181635416   0.200105454286891   0.523257483385777 1
ion O   0.325731556924029   0.698616849698793   0.519570651915298 1
ion O   0.845713592984442   0.183087769861360   0.516436168589735 1
ion O   0.827525757679003   0.707470183565219   0.517742877067199 1
ion O   0.113327280776814   0.391011965094855   0.222422373508736 1
ion O   0.105216568698397   0.901097698439413   0.221605260883482 1
ion O   0.609086209129685   0.394665112257685   0.209944784153772 1
ion O   0.615503888938889   0.908713996446788   0.220963872216618 1
ion O   0.146059620958472   0.311692434166318   0.472277427361049 1
ion O   0.154142097282440   0.809616516857151   0.494158921985777 1
ion O   0.657000123656430   0.294199907964030   0.469896344346814 1
ion O   0.663658355844948   0.819508493770822   0.478254143601745 1
ion O   0.380769506160715   0.349680420567248   0.732570769766486 1
ion O   0.388696627101038   0.830861611415687   0.720924556101625 1
ion O   0.894523593871317   0.348872776683012   0.727670977176428 1
ion O   0.875109731341166   0.844508260520996   0.716792437591596 1
ion O   0.158652996332070   0.047711584367475   0.034919073006393 1
ion O   0.147519946239274   0.554863471258670   0.018301820595271 1
ion O   0.650418529028240   0.063164429422415   0.020686494418805 1
ion O   0.666307985073373   0.552018838815587   0.032099331824751 1
ion O   0.116580969384080   0.005611229891438   0.600141045412531 1
ion O   0.127490900206329   0.525504369077964   0.591894335359899 1
ion O   0.623697908163151   0.028675370803590   0.581344628889906 1
ion O   0.608449594689151   0.513007155234202   0.577129599710365 1

# Forces in Lattice coordinates:
force Bi  -0.177344074270516  -0.291721656629798   0.022164510056547 1
force Bi  -0.551901328376398   0.909721034585687  -0.100046089550959 1
force Bi  -0.428538949522723   1.111608937404274   0.089860025051941 1
force Bi   0.322123517735344  -0.419416155827144   0.063383858615943 1
force Bi  -0.485680920492692  -0.030877523708472   0.023224904957955 1
force Bi   0.299129828055678  -0.067362601622417  -0.002441334073063 1
force Bi   0.066453594828798  -0.512608481198996  -0.561431900323498 1
force Bi  -0.217410624938244   0.341992510977796   0.007221962240529 1
force Bi   0.302786482497984  -0.617690292195274  -0.033963846439300 1
force Bi   0.532284488419446  -0.552513572979169  -0.023097832633041 1
force Bi   0.619522817681611  -0.724915317698978   0.044092025993125 1
force Bi  -0.129496417509872  -0.273320576396930  -0.417236362670241 1
force Bi   0.821263744547829  -0.127564960238708   0.125853485699436 1
force Bi  -0.372102962711613   0.029110363932884  -0.238659756457722 1
force Bi  -0.369323244336320  -0.253813749222569  -0.194594066080745 1
force Bi   0.972417844271641  -1.693676740084946  -0.202838957007319 1
force Bi  -0.346508996145265   0.517227800029255   0.073386678000149 1
force Bi  -0.378020122927736   0.253767462433171   0.110574756304142 1
force Bi  -0.116593776734196  -0.073873352637815   0.203982087374429 1
force Bi  -0.117300938362284   0.453895716092543   0.044817760419991 1
force Bi  -0.000309337947716   0.256209425229070   0.235252182274798 1
force Bi   0.287925538800021  -0.430012587959276  -0.401853459602385 1
force Bi   0.639571226210645  -0.441356403936171   0.061065874731900 1
force Bi   0.377918322713542  -0.007595482574303   0.008937357681921 1
force Bi   0.156231026824191  -0.249315061862880  -0.073947287921086 1
force Bi  -0.096286018057368   0.018813199807646   0.063359652190488 1
force Bi  -0.391517943919831  -0.033439349922005   0.136500168205536 1
force Bi  -0.312804902408374   0.389762801475414  -0.003831580389173 1
force Bi  -0.199543372094670   0.623764117056449   0.093504169434516 1
force Bi  -0.170659206929667   0.984163027138035   0.200106222546275 1
force Bi   0.095715599593507   0.349000762362812   0.373195817168219 1
force Bi   0.132917450636459   0.032545253126068   0.187472962252352 1
force O   0.198506542117333   0.382676520072692  -0.272725374325064 1
force O   0.192529417190428  -0.154812410598813   0.159060601612020 1
force O   0.061805696800358   0.060856416814355   0.295758448291496 1
force O  -0.252585284750103   0.348861403827143  -0.394058241552659 1
force O  -0.202969564582308   0.372321051303975  -0.174597639270342 1
force O   0.118131519633136   0.171563947003051  -0.315262686425804 1
force O  -0.413612276179030   1.139262696590981  -0.119849347237925 1
force O   0.379087008889852  -0.797078875862838   0.656335859087107 1
force O   0.388967237299805  -0.496243984318216   0.232020390485448 1
force O   0.202836911579365  -0.113969481802382   0.323649310033761 1
force O   0.603875229322012  -0.116137895499788   0.566614171780393 1
force O  -0.248271770774336   0.376730999285690   0.161453996002830 1
force O   0.049502772265197   0.117695954528151   0.213776741571762 1
force O   0.094261120083406  -0.048220250978970   0.380479603949633 1
force O   0.019983236594694   0.340525701000360   0.261326145408397 1
force O   0.272173889661173  -0.275544598778399  -0.135798144228942 1
force O   0.002888728192360  -0.288132123281006  -0.344210606601192 1
force O  -0.503484171064491  -0.325645334566430   0.052483330716373 1
force O  -0.607510509333715   0.623882439603577   0.055502929346494 1
force O   0.325496360204840  -0.424560817074370   0.169620128542844 1
force O  -0.439492313675735   0.402604011027999   0.421056467074663 1
force O  -0.292284392564420   0.431781280412497   0.226494403656887 1
force O  -0.259410582549082  -0.149357431112135   0.183147398688121 1
force O   0.394110757539444  -0.482021979574503  -0.114561197316335 1
force O   0.712048568370422  -0.679977153056365  -0.562480326675964 1
force O   0.734801605070706   0.026963787354029  -0.365551007350428 1
force O   0.317782639634675  -0.810848521725492  -0.384812979528845 1
force O  -0.282407629390946   0.506157776725124  -0.223706179780577 1
force O   0.088671348232877  -0.351624941454242  -0.123262917083065 1
force O  -0.219914234638447   0.048645633557751   0.046093988078991 1
force O  -0.045447031464303  -0.357400427455214  -0.114388564360287 1
force O  -0.217751967119383  -0.096140166564734   0.609287338905637 1
force O  -0.296785383128498   0.348838225541271   0.441194053980474 1
force O  -0.224030292148528   0.776169026159393   0.565422928344473 1
force O  -0.588622355762002  -0.149757225483841   0.318984523229083 1
force O   0.140802083539540  -0.261440862602489  -0.155254872408888 1
force O   0.027466525299880   0.533067991578424   0.170966988426520 1
force O  -0.035127661192737  -0.214927903283292  -0.376062453885513 1
force O   0.391078839703165  -0.261332981774105   0.075229101156543 1
force O  -0.440415518367348   0.767899138199962  -0.391070447448756 1
force O  -0.261862626133776  -0.037305568571046  -0.131338183279042 1
force O  -0.417613874566736   0.022392435330758  -0.440753630827867 1
force O  -0.435663670537233   0.220721268502868  -0.377701319802530 1
force O   0.080847836866799  -0.124559371468063  -0.174184034134720 1
force O  -0.057276548690810  -0.170363450365174  -0.298927204015946 1
force O  -0.001102760314830  -0.327271299565715  -0.303740176598184 1
force O   0.172556793598069   0.023264729308965  -0.200787128454114 1

# Energy components:
   Eewald =    -2383.2412069818929012
       EH =      681.3123437864871903
     Eloc =    -2224.7545436228692779
      Enl =      865.6484353072223712
      Exc =    -1196.3198326919036845
 Exc_core =      661.9337685458301621
       KE =      541.1028612840812002
-------------------------------------
     Etot =    -3054.3181743730447124
       TS =        0.1150493489168531
-------------------------------------
        F =    -3054.4332237219614399

IonicMinimize: Iter:   2  F: -3054.433223721961440  |grad|_K:  1.647e-02  alpha:  1.676e-01  linmin: -9.895e-01  t[s]:   5223.00

#--- Lowdin population analysis ---
# oxidation-state Bi +1.245 +1.237 +1.328 +1.285 +1.260 +1.299 +1.125 +1.165 +1.135 +1.351 +1.317 +1.274 +1.103 +1.253 +1.263 +1.297 +1.274 +1.261 +1.341 +1.306 +1.308 +1.153 +1.236 +1.319 +1.262 +1.252 +1.254 +1.295 +1.298 +1.230 +1.217 +1.211
# oxidation-state O -0.768 -0.778 -0.775 -0.787 -0.816 -0.808 -0.788 -0.775 -0.809 -0.784 -0.765 -0.807 -0.801 -0.796 -0.799 -0.780 -0.767 -0.719 -0.774 -0.780 -0.793 -0.806 -0.805 -0.817 -0.756 -0.766 -0.801 -0.770 -0.761 -0.774 -0.767 -0.770 -0.757 -0.761 -0.781 -0.764 -0.768 -0.769 -0.749 -0.802 -0.802 -0.773 -0.807 -0.812 -0.804 -0.803 -0.798


-------- Electronic minimization -----------
Will mix electronic density at each iteration.
	FillingsUpdate:  mu: +0.397894773  nElectrons: 762.000000
	FillingsUpdate:  mu: +0.396611671  nElectrons: 762.000000
SCF: Cycle:  0   F: -3053.630970783714019   dF: -7.564e-01   |Residual|: 6.667e-01   |deigs|: 3.284e-03  t[s]:   5367.76
	FillingsUpdate:  mu: +0.399095229  nElectrons: 762.000000
SCF: Cycle:  1   F: -3054.305221985338903   dF: -6.743e-01   |Residual|: 4.003e-01   |deigs|: 5.133e-03  t[s]:   5472.38
	FillingsUpdate:  mu: +0.398597116  nElectrons: 762.000000
SCF: Cycle:  2   F: -3054.372818988931158   dF: -6.760e-02   |Residual|: 2.324e-01   |deigs|: 2.466e-03  t[s]:   5576.10
	FillingsUpdate:  mu: +0.399334832  nElectrons: 762.000000
SCF: Cycle:  3   F: -3054.526108732281500   dF: -1.533e-01   |Residual|: 6.902e-02   |deigs|: 1.468e-03  t[s]:   5679.44
	FillingsUpdate:  mu: +0.399248245  nElectrons: 762.000000
SCF: Cycle:  4   F: -3054.532262855921090   dF: -6.154e-03   |Residual|: 4.348e-02   |deigs|: 3.315e-04  t[s]:   5774.45
	FillingsUpdate:  mu: +0.399222819  nElectrons: 762.000000
SCF: Cycle:  5   F: -3054.534974730336216   dF: -2.712e-03   |Residual|: 1.373e-02   |deigs|: 1.680e-04  t[s]:   5858.13
	FillingsUpdate:  mu: +0.399236779  nElectrons: 762.000000
SCF: Cycle:  6   F: -3054.535321976126397   dF: -3.472e-04   |Residual|: 6.696e-03   |deigs|: 7.804e-05  t[s]:   5925.60
	FillingsUpdate:  mu: +0.399251895  nElectrons: 762.000000
SCF: Cycle:  7   F: -3054.535472711145303   dF: -1.507e-04   |Residual|: 3.966e-03   |deigs|: 6.743e-05  t[s]:   5993.14
	FillingsUpdate:  mu: +0.399229225  nElectrons: 762.000000
SCF: Cycle:  8   F: -3054.535501911954270   dF: -2.920e-05   |Residual|: 1.994e-03   |deigs|: 2.928e-05  t[s]:   6061.06
	FillingsUpdate:  mu: +0.399225226  nElectrons: 762.000000
SCF: Cycle:  9   F: -3054.535510910488483   dF: -8.999e-06   |Residual|: 6.264e-04   |deigs|: 1.703e-05  t[s]:   6128.98
	FillingsUpdate:  mu: +0.399228057  nElectrons: 762.000000
SCF: Cycle: 10   F: -3054.535511554070581   dF: -6.436e-07   |Residual|: 3.753e-04   |deigs|: 5.071e-06  t[s]:   6196.72
	FillingsUpdate:  mu: +0.399227768  nElectrons: 762.000000
SCF: Cycle: 11   F: -3054.535511850874173   dF: -2.968e-07   |Residual|: 1.644e-04   |deigs|: 1.935e-06  t[s]:   6264.01
	FillingsUpdate:  mu: +0.399225900  nElectrons: 762.000000
SCF: Cycle: 12   F: -3054.535511899343419   dF: -4.847e-08   |Residual|: 1.100e-04   |deigs|: 2.202e-06  t[s]:   6331.31
	FillingsUpdate:  mu: +0.399226239  nElectrons: 762.000000
SCF: Cycle: 13   F: -3054.535511930997018   dF: -3.165e-08   |Residual|: 3.947e-05   |deigs|: 8.131e-07  t[s]:   6398.88
	FillingsUpdate:  mu: +0.399226167  nElectrons: 762.000000
SCF: Cycle: 14   F: -3054.535511939316621   dF: -8.320e-09   |Residual|: 2.644e-05   |deigs|: 2.778e-07  t[s]:   6467.35
	FillingsUpdate:  mu: +0.399226003  nElectrons: 762.000000
SCF: Cycle: 15   F: -3054.535511944040991   dF: -4.724e-09   |Residual|: 1.239e-05   |deigs|: 2.449e-07  t[s]:   6534.75
SCF: Converged (|Delta E|<1.000000e-08 for 2 iters).

Setting wave functions to eigenvectors of Hamiltonian
IonicMinimize: 	Wolfe criterion not satisfied: alpha: 0.10417  (E-E0)/|gdotd0|: -0.0992864  gdotd/gdotd0: 0.904431 (taking cubic step)

-------- Electronic minimization -----------
Will mix electronic density at each iteration.
	FillingsUpdate:  mu: +0.399226003  nElectrons: 762.000000
	FillingsUpdate:  mu: +0.394705253  nElectrons: 762.000000
SCF: Cycle:  0   F: -3050.721281959158205   dF: -2.724e+00   |Residual|: 1.409e+00   |deigs|: 1.310e-02  t[s]:   6718.05
	FillingsUpdate:  mu: +0.401535948  nElectrons: 762.000000
SCF: Cycle:  1   F: -3053.651039434279937   dF: -2.930e+00   |Residual|: 8.475e-01   |deigs|: 1.406e-02  t[s]:   6822.60
	FillingsUpdate:  mu: +0.401710877  nElectrons: 762.000000
SCF: Cycle:  2   F: -3054.146161924928037   dF: -4.951e-01   |Residual|: 4.552e-01   |deigs|: 4.906e-03  t[s]:   6926.23
	FillingsUpdate:  mu: +0.402599665  nElectrons: 762.000000
SCF: Cycle:  3   F: -3054.665109347416546   dF: -5.189e-01   |Residual|: 1.449e-01   |deigs|: 4.046e-03  t[s]:   7029.57
	FillingsUpdate:  mu: +0.402872677  nElectrons: 762.000000
SCF: Cycle:  4   F: -3054.696005863452228   dF: -3.090e-02   |Residual|: 8.303e-02   |deigs|: 6.020e-04  t[s]:   7125.71
	FillingsUpdate:  mu: +0.402792858  nElectrons: 762.000000
SCF: Cycle:  5   F: -3054.704587416016693   dF: -8.582e-03   |Residual|: 2.421e-02   |deigs|: 3.114e-04  t[s]:   7220.74
	FillingsUpdate:  mu: +0.402799551  nElectrons: 762.000000
SCF: Cycle:  6   F: -3054.705640889454571   dF: -1.053e-03   |Residual|: 1.402e-02   |deigs|: 1.406e-04  t[s]:   7288.38
	FillingsUpdate:  mu: +0.402797985  nElectrons: 762.000000
SCF: Cycle:  7   F: -3054.706266418681935   dF: -6.255e-04   |Residual|: 6.353e-03   |deigs|: 8.940e-05  t[s]:   7355.62
	FillingsUpdate:  mu: +0.402805270  nElectrons: 762.000000
SCF: Cycle:  8   F: -3054.706414002409019   dF: -1.476e-04   |Residual|: 3.441e-03   |deigs|: 6.233e-05  t[s]:   7422.86
	FillingsUpdate:  mu: +0.402798170  nElectrons: 762.000000
SCF: Cycle:  9   F: -3054.706444743671909   dF: -3.074e-05   |Residual|: 1.178e-03   |deigs|: 2.047e-05  t[s]:   7491.06
	FillingsUpdate:  mu: +0.402792685  nElectrons: 762.000000
SCF: Cycle: 10   F: -3054.706448304806145   dF: -3.561e-06   |Residual|: 6.782e-04   |deigs|: 8.518e-06  t[s]:   7558.69
	FillingsUpdate:  mu: +0.402792551  nElectrons: 762.000000
SCF: Cycle: 11   F: -3054.706449263758714   dF: -9.590e-07   |Residual|: 3.022e-04   |deigs|: 3.309e-06  t[s]:   7627.15
	FillingsUpdate:  mu: +0.402792462  nElectrons: 762.000000
SCF: Cycle: 12   F: -3054.706449507049456   dF: -2.433e-07   |Residual|: 1.183e-04   |deigs|: 1.673e-06  t[s]:   7695.98
	FillingsUpdate:  mu: +0.402791702  nElectrons: 762.000000
SCF: Cycle: 13   F: -3054.706449573440295   dF: -6.639e-08   |Residual|: 7.191e-05   |deigs|: 1.216e-06  t[s]:   7764.16
	FillingsUpdate:  mu: +0.402791481  nElectrons: 762.000000
SCF: Cycle: 14   F: -3054.706449608905132   dF: -3.546e-08   |Residual|: 3.947e-05   |deigs|: 4.206e-07  t[s]:   7831.91
	FillingsUpdate:  mu: +0.402791464  nElectrons: 762.000000
SCF: Cycle: 15   F: -3054.706449628668452   dF: -1.976e-08   |Residual|: 2.462e-05   |deigs|: 4.886e-07  t[s]:   7899.82
	FillingsUpdate:  mu: +0.402791358  nElectrons: 762.000000
SCF: Cycle: 16   F: -3054.706449639852053   dF: -1.118e-08   |Residual|: 1.420e-05   |deigs|: 1.662e-07  t[s]:   7967.01
	FillingsUpdate:  mu: +0.402791322  nElectrons: 762.000000
SCF: Cycle: 17   F: -3054.706449646688725   dF: -6.837e-09   |Residual|: 1.287e-05   |deigs|: 1.021e-07  t[s]:   8035.21
	FillingsUpdate:  mu: +0.402791330  nElectrons: 762.000000
SCF: Cycle: 18   F: -3054.706449651213461   dF: -4.525e-09   |Residual|: 8.037e-06   |deigs|: 4.098e-08  t[s]:   8103.13
SCF: Converged (|Delta E|<1.000000e-08 for 2 iters).

Setting wave functions to eigenvectors of Hamiltonian

# Ionic positions in lattice coordinates:
ion Bi   0.232708763264898   0.070026845648407   0.302579958450914 1
ion Bi   0.243625390698804   0.572022482422866   0.309837933350878 1
ion Bi   0.736400596682609   0.059787900682023   0.313843083931716 1
ion Bi   0.729391013676162   0.577603526336000   0.323148801241035 1
ion Bi   0.022518438310611   0.137084607326914   0.542850708394556 1
ion Bi   0.017713464017226   0.626306553051061   0.531003958739125 1
ion Bi   0.522592608220785   0.152799940744024   0.540981094375996 1
ion Bi   0.520910206363350   0.649281987631320   0.538062230043127 1
ion Bi   0.262360861450747   0.195104383495312   0.831346976256017 1
ion Bi   0.248938154417509   0.661536836705982   0.818506765964091 1
ion Bi   0.751634871689947   0.172310816026307   0.804234174327870 1
ion Bi   0.763463676090492   0.686887114510176   0.799623276977545 1
ion Bi   0.472644346246739   0.107685572866458   0.053729336831719 1
ion Bi   0.493470269770598   0.603935143560659   0.027880034792073 1
ion Bi   0.982360979210493   0.119210511984515   0.038331425074180 1
ion Bi   0.961378662977973   0.616277525839944   0.033052844059718 1
ion Bi   0.246364330824469   0.328336106127410   0.202582542886459 1
ion Bi   0.235832452769770   0.810034962987734   0.174443151849540 1
ion Bi   0.738604679914695   0.316802398117585   0.176575474068669 1
ion Bi   0.731923857424746   0.824998784933432   0.191876864109434 1
ion Bi   0.261269575546781   0.430213049893820   0.694645292333207 1
ion Bi   0.253168480126070   0.931937163847033   0.699003589011070 1
ion Bi   0.764154299364062   0.427687869712669   0.676799210654754 1
ion Bi   0.754851617572045   0.924074911225012   0.681214484678488 1
ion Bi   0.477790546211119   0.368719836561334   0.466314183718822 1
ion Bi   0.463399875405113   0.869104267209622   0.471619101143719 1
ion Bi   0.978563470107744   0.346553860403723   0.456160162453723 1
ion Bi   0.992327423107085   0.856680098963098   0.463824438368417 1
ion Bi   0.015458105846228   0.386906562953890   0.960437803222938 1
ion Bi   0.011388248597986   0.887486011586386   0.956568880126702 1
ion Bi   0.534782015616745   0.383106534470946   0.960071948458727 1
ion Bi   0.513201483035070   0.882707838955693   0.956942365384430 1
ion O   0.389306105704161   0.583719196039098   0.767923008462283 1
ion O   0.889952159847872   0.104975332211175   0.787082266164689 1
ion O   0.880197960634261   0.596253160856571   0.768240412805545 1
ion O   0.382240269370612   0.239175441406745   0.076147844769667 1
ion O   0.376669279343355   0.716440257638738   0.085929097123008 1
ion O   0.878156039180209   0.234991599520462   0.076609060071393 1
ion O   0.876059933760933   0.729164846356375   0.046636226572191 1
ion O   0.350561051621725   0.450500818390296   0.987983805795026 1
ion O   0.339870564950198   0.953817234046920   0.970848985205605 1
ion O   0.856903772677122   0.440454694716783   0.977624522979282 1
ion O   0.860205484889116   0.938407963380236   0.983211968871590 1
ion O   0.370180883953799   0.468989656227790   0.412381766356050 1
ion O   0.367406328167959   0.986840777074688   0.424173669308656 1
ion O   0.866190952675486   0.494421101981706   0.424255121307118 1
ion O   0.866422226127206   0.984525257108437   0.429886668956288 1
ion O   0.103472313867109   0.162122514622158   0.287013877490363 1
ion O   0.114681429516481   0.663754107746060   0.285058292691299 1
ion O   0.607458928520971   0.159099317775768   0.274910574389440 1
ion O   0.607258231328149   0.655002170251418   0.279408968064377 1
ion O   0.132027719955590   0.261888980037192   0.919383591998214 1
ion O   0.136539053331377   0.748115398843574   0.928085213106784 1
ion O   0.630351752221855   0.259663488021471   0.933853518915427 1
ion O   0.638330364911995   0.786429703755598   0.921720365105164 1
ion O   0.351204956567026   0.196994825802582   0.519095699121965 1
ion O   0.333604917824271   0.695829942837133   0.505798742701170 1
ion O   0.855933430918553   0.185755698703846   0.506999998829602 1
ion O   0.829104258751010   0.701816145378872   0.508101852533975 1
ion O   0.111134164353300   0.393402286542389   0.218843356442639 1
ion O   0.105484865255052   0.898858503365790   0.218783953340934 1
ion O   0.606854442456525   0.394095890022262   0.212130832320735 1
ion O   0.614589131868394   0.907573341258263   0.219293472008834 1
ion O   0.141092448602354   0.310502643620819   0.486130820900835 1
ion O   0.151580828772683   0.811475224095532   0.505649325328244 1
ion O   0.657031686524602   0.299972886543795   0.483590443056932 1
ion O   0.655190502549227   0.816714372084277   0.488197728165592 1
ion O   0.381325186890103   0.348412098075398   0.728800499516382 1
ion O   0.390429130518143   0.834795780043852   0.722345085827115 1
ion O   0.893669283438741   0.347639857722805   0.718802555445987 1
ion O   0.878622735508406   0.843666020977595   0.718045291253746 1
ion O   0.155364431820109   0.052649932941805   0.025467005987857 1
ion O   0.143052620009387   0.553732767299981   0.013502169060285 1
ion O   0.644621331805731   0.061709991934160   0.009306446851318 1
ion O   0.660495461448675   0.552102594595154   0.022368910361996 1
ion O   0.117544131866875   0.004408867201380   0.594844025222486 1
ion O   0.126277601841494   0.524038611308212   0.583765001229049 1
ion O   0.623588693837069   0.026055977057660   0.572493865411857 1
ion O   0.611398185456060   0.513410715795829   0.570771997291343 1

# Forces in Lattice coordinates:
force Bi  -0.153708884436925  -0.071944111802941   0.004197868607191 1
force Bi  -0.335391744720576   0.552701262255157  -0.021846686894916 1
force Bi  -0.246440536595873   0.540262382855942   0.121850298695677 1
force Bi   0.191825085633942  -0.216520072648965   0.075142894025149 1
force Bi  -0.184913362424905  -0.059551100846576  -0.008320271312069 1
force Bi   0.151131958903485  -0.037193682125618   0.019542068388469 1
force Bi  -0.071074355842591  -0.275493863643002  -0.304697690706604 1
force Bi  -0.193434652776748   0.220994361194316  -0.049811563994895 1
force Bi   0.201633970464288  -0.405616859430626   0.097802028757598 1
force Bi   0.311368635801459  -0.197336774758469   0.058531660639090 1
force Bi   0.309935396848724  -0.289163680558333   0.089387226375203 1
force Bi   0.027659742097130  -0.240394001427934  -0.164100297882745 1
force Bi   0.402064745699896  -0.128270820004751  -0.032928238885894 1
force Bi  -0.183736059840760   0.033516001035764  -0.100663581679036 1
force Bi  -0.111040155208566  -0.147900653652513  -0.039666174396963 1
force Bi   0.417010337748925  -0.707452529322278  -0.093244758513179 1
force Bi  -0.196741238259224   0.349039161883070   0.034896614071671 1
force Bi  -0.246810168052320   0.314744971994518  -0.009473356009292 1
force Bi  -0.072293924409959   0.092555009136964   0.107773097466738 1
force Bi  -0.007850685254509   0.113252584794438  -0.055524282508525 1
force Bi   0.047481912281337   0.039018702221254   0.088085443355885 1
force Bi   0.197149326900530  -0.253823003602662  -0.292515942004569 1
[...]
force Bi   0.003997535123505  -0.000427971405956   0.005070945328742 1
force Bi   0.003956684869556  -0.003089429969763  -0.002492726589668 1
force Bi   0.000397257383487   0.001083520438000  -0.002007751893061 1
force Bi  -0.001036825524287  -0.002087663354817   0.000372496247087 1
force Bi   0.003590026802625   0.003955216856122  -0.003073135134602 1
force Bi  -0.002369913812034   0.001097784794689  -0.000580761446798 1
force Bi  -0.005735138569521   0.005485314281172  -0.001108069883108 1
force Bi  -0.006039952232312  -0.002495883122410  -0.001294800639369 1
force Bi  -0.003112534936165   0.001599488285908  -0.002921172352556 1
force Bi  -0.003878388178141   0.002968234852059   0.001452809684372 1
force Bi  -0.003046387145722   0.001787275995530   0.001997821065560 1
force Bi   0.002502367357869  -0.006752313399982  -0.001696823190147 1
force Bi  -0.001874156632671   0.000919935121203   0.002642259009322 1
force O   0.000490106981414  -0.002570512091681   0.000240803372795 1
force O   0.000527614255812   0.000227071480588   0.000376321241986 1
force O  -0.002734733345489   0.001598547289846   0.001874474334551 1
force O  -0.002358509955679  -0.000194355449481  -0.002035934981418 1
force O  -0.000516911841045   0.000218886340607  -0.000453000359660 1
force O  -0.000401382340627   0.002180439268383  -0.001202414045504 1
force O   0.000181970466064  -0.004909268953977  -0.002129985079987 1
force O  -0.000726263066475  -0.000245407081277  -0.000741861468154 1
force O   0.004666503851576  -0.001874019099425  -0.001250387161411 1
force O   0.001694233264575   0.000225247760874   0.000217208746458 1
force O   0.001226625012625  -0.002626513345676  -0.001424821997447 1
force O   0.001034593772097  -0.000673080790476   0.001425205825685 1
force O  -0.001181518811457  -0.000658676142203  -0.000003426026693 1
force O  -0.001440658010624   0.004378986780647  -0.000832500208202 1
force O  -0.002719282830803   0.000926963535473   0.002135123688476 1
force O  -0.001051461421292   0.002419320403646   0.001599900318462 1
force O  -0.001012802739503  -0.000111610948065   0.002439397849264 1
force O   0.000383682978551  -0.000979085178579   0.000436062383981 1
force O  -0.002659068534065   0.003568374418766   0.004527631916390 1
force O  -0.002615385592723   0.003080055936235   0.000002994940592 1
force O   0.002055042351026  -0.002679675959111  -0.002811839173200 1
force O   0.001187372686812  -0.001603541908967  -0.002043418834986 1
force O  -0.002122965136265   0.000086090505961  -0.002279563391313 1
force O   0.000938761659813   0.002863002899862   0.000498481784592 1
force O   0.000681012642568  -0.003071759293073   0.002793268576180 1
force O   0.001338786949771   0.001195595398138  -0.000489265503440 1
force O   0.002176302395493  -0.003091204200765   0.003432565796301 1
force O   0.001001500692681   0.001487839344639  -0.002443731670335 1
force O  -0.000136746687540   0.001878249351983  -0.003324593949534 1
force O   0.000976722768886  -0.000056423488933  -0.001680114306051 1
force O   0.000982184126671   0.000960159825235  -0.002614287415110 1
force O   0.000864230281041   0.001473433729768   0.001149469540135 1
force O   0.001669344352264  -0.003433307942959  -0.000234367543607 1
force O  -0.001190915282810   0.000709621550306  -0.000873208421808 1
force O   0.001376510015014  -0.002047538340345   0.000765318249538 1
force O  -0.003452054566488   0.002662151107138  -0.001821866844812 1
force O  -0.000985753900302  -0.003332579725729   0.000592696223976 1
force O   0.000609128426260  -0.001799186350429  -0.001965159341228 1
force O  -0.002423470658585   0.000828432730277  -0.000627244703860 1
force O   0.000517042130617   0.001247698311969   0.001081482158175 1
force O   0.002952614086813  -0.004314182278529   0.000920419599436 1
force O  -0.000054944498641  -0.002755801343191   0.001172850985816 1
force O   0.000656342797075   0.002067303945383   0.000104554175647 1
force O   0.002559199441242   0.000306776033411   0.003236385714224 1
force O  -0.001104328311103  -0.000755467601228   0.004245527659516 1
force O  -0.000586393890671  -0.000939719591165   0.001322509225066 1
force O   0.000816931746135  -0.001192427758184   0.001449930711344 1

# Energy components:
   Eewald =    -2347.7491169385175453
       EH =      716.1262871766352873
     Eloc =    -2298.3737163822229377
      Enl =      866.5829236236234010
      Exc =    -1198.1024348920504963
 Exc_core =      661.9337835017973930
       KE =      544.3636842375283322
-------------------------------------
     Etot =    -3055.2185896732071342
       TS =        0.0339856892929591
-------------------------------------
        F =    -3055.2525753625000107

IonicMinimize: Iter:  26  F: -3055.252575362500011  |grad|_K:  1.060e-04  alpha:  4.853e-01  linmin: -3.347e-03  t[s]:  40225.24

#--- Lowdin population analysis ---
# oxidation-state Bi +1.312 +1.311 +1.307 +1.313 +1.323 +1.332 +1.213 +1.331 +0.992 +1.315 +1.312 +1.312 +1.103 +1.332 +1.329 +1.332 +1.304 +1.311 +1.305 +1.310 +1.319 +1.204 +1.315 +1.311 +1.326 +1.329 +1.330 +1.334 +1.329 +1.329 +1.326 +1.329
# oxidation-state O -0.813 -0.809 -0.813 -0.803 -0.805 -0.806 -0.806 -0.820 -0.819 -0.819 -0.821 -0.806 -0.799 -0.804 -0.804 -0.812 -0.814 -0.786 -0.814 -0.795 -0.805 -0.805 -0.806 -0.815 -0.821 -0.824 -0.823 -0.815 -0.812 -0.812 -0.812 -0.813 -0.807 -0.822 -0.822 -0.803 -0.811 -0.813 -0.812 -0.816 -0.821 -0.817 -0.821 -0.804 -0.807 -0.805 -0.806


-------- Electronic minimization -----------
Will mix electronic density at each iteration.
	FillingsUpdate:  mu: +0.418529272  nElectrons: 762.000000
	FillingsUpdate:  mu: +0.418487287  nElectrons: 762.000000
SCF: Cycle:  0   F: -3055.252558912598033   dF: -5.699e-06   |Residual|: 2.563e-03   |deigs|: 1.049e-07  t[s]:  40336.51
	FillingsUpdate:  mu: +0.418493637  nElectrons: 762.000000
SCF: Cycle:  1   F: -3055.252581291831120   dF: -2.238e-05   |Residual|: 1.644e-03   |deigs|: 9.683e-06  t[s]:  40403.50
	FillingsUpdate:  mu: +0.418498700  nElectrons: 762.000000
SCF: Cycle:  2   F: -3055.252583900852642   dF: -2.609e-06   |Residual|: 6.195e-04   |deigs|: 3.621e-06  t[s]:  40471.18
	FillingsUpdate:  mu: +0.418506270  nElectrons: 762.000000
SCF: Cycle:  3   F: -3055.252586556106053   dF: -2.655e-06   |Residual|: 2.400e-04   |deigs|: 5.908e-06  t[s]:  40539.02
	FillingsUpdate:  mu: +0.418508723  nElectrons: 762.000000
SCF: Cycle:  4   F: -3055.252586948299722   dF: -3.922e-07   |Residual|: 1.597e-04   |deigs|: 1.800e-06  t[s]:  40607.14
	FillingsUpdate:  mu: +0.418511357  nElectrons: 762.000000
SCF: Cycle:  5   F: -3055.252587154372577   dF: -2.061e-07   |Residual|: 6.527e-05   |deigs|: 2.206e-06  t[s]:  40674.27
	FillingsUpdate:  mu: +0.418513263  nElectrons: 762.000000
SCF: Cycle:  6   F: -3055.252587209173726   dF: -5.480e-08   |Residual|: 4.030e-05   |deigs|: 1.343e-06  t[s]:  40741.96
	FillingsUpdate:  mu: +0.418513820  nElectrons: 762.000000
SCF: Cycle:  7   F: -3055.252587219941233   dF: -1.077e-08   |Residual|: 2.298e-05   |deigs|: 5.021e-07  t[s]:  40809.76
	FillingsUpdate:  mu: +0.418514027  nElectrons: 762.000000
SCF: Cycle:  8   F: -3055.252587222095826   dF: -2.155e-09   |Residual|: 7.534e-06   |deigs|: 1.853e-07  t[s]:  40877.26
	FillingsUpdate:  mu: +0.418514057  nElectrons: 762.000000
SCF: Cycle:  9   F: -3055.252587222446891   dF: -3.511e-10   |Residual|: 4.405e-06   |deigs|: 5.350e-08  t[s]:  40937.55
SCF: Converged (|Delta E|<1.000000e-08 for 2 iters).

Setting wave functions to eigenvectors of Hamiltonian

# Ionic positions in lattice coordinates:
ion Bi   0.238816603578740   0.066395332837234   0.306767183828244 1
ion Bi   0.237571472376030   0.565221792953988   0.312042860604750 1
ion Bi   0.739451392516559   0.065058382350092   0.312575191886135 1
ion Bi   0.737517631079983   0.565886619704723   0.310906325139717 1
ion Bi   0.022722756866216   0.140246176448220   0.546946919225150 1
ion Bi   0.017445851661400   0.636033111057309   0.546505150337943 1
ion Bi   0.517766278562263   0.136084202864546   0.539790657836371 1
ion Bi   0.517838795669439   0.636704207979054   0.546658472639924 1
ion Bi   0.265522741889253   0.179645861329026   0.810877387059441 1
ion Bi   0.258451736838758   0.683733203481751   0.809866681711369 1
ion Bi   0.761285882502530   0.184489511426765   0.806899578048932 1
ion Bi   0.758404554821409   0.683591926136110   0.810685638212441 1
ion Bi   0.479788837292152   0.112673679990515   0.035627688864654 1
ion Bi   0.477611522083991   0.612399549276932   0.045482899798944 1
ion Bi   0.980436555029859   0.113544221368335   0.043830569636585 1
ion Bi   0.978275591348271   0.612526087352563   0.045938027331414 1
ion Bi   0.238968717884975   0.315651693691168   0.187876947297505 1
ion Bi   0.238922613651428   0.816256036912161   0.188590121319072 1
ion Bi   0.738564596007335   0.316240636752505   0.187415200102871 1
ion Bi   0.738742477901284   0.815978028721556   0.188946260946813 1
ion Bi   0.258421188221247   0.431165792686230   0.690993916370030 1
ion Bi   0.258366248191203   0.934656957593147   0.686093011975942 1
ion Bi   0.757963250980518   0.432579154692444   0.689943759010566 1
ion Bi   0.759229229738834   0.934535432537010   0.690296615957294 1
ion Bi   0.477653298073692   0.360489426321581   0.455566711436025 1
ion Bi   0.478097284875411   0.861463535689449   0.454985095753826 1
ion Bi   0.977588495414733   0.361968490061709   0.453427795562786 1
ion Bi   0.977915006623085   0.862891169856305   0.455158028425137 1
ion Bi   0.019384680977663   0.388236541334123   0.954748994869583 1
ion Bi   0.018799782549565   0.887712510172083   0.954847723943550 1
ion Bi   0.518986962330809   0.388370999662105   0.955798505176056 1
ion Bi   0.519155741412307   0.887745351272404   0.954910646775342 1
ion O   0.385791967210396   0.602466911544799   0.795141020973375 1
ion O   0.889590017838730   0.104181834336077   0.792881162764967 1
ion O   0.885555691665524   0.601530910111320   0.795104433282363 1
ion O   0.364986034250980   0.244018677583850   0.040521185989340 1
ion O   0.362750186028976   0.743254227450601   0.033631296763833 1
ion O   0.863761009243297   0.242791830605930   0.031457893534156 1
ion O   0.862656033819095   0.742161837931803   0.033736134814720 1
ion O   0.380325638668201   0.439338683329446   1.049179045900549 1
ion O   0.380769807026724   0.939697754949771   1.050207780898139 1
ion O   0.880371427390157   0.438186998274394   1.051809503055154 1
ion O   0.880728718685558   0.938445392143975   1.051473009021189 1
ion O   0.363671152090369   0.491037712095348   0.468716336164313 1
ion O   0.361909516065638   0.990981467489323   0.462644216292993 1
ion O   0.863516056435758   0.492605549341068   0.467501805257198 1
ion O   0.859895247980231   0.992574682688453   0.463522591927057 1
ion O   0.112070056611181   0.147337738761974   0.293614907169957 1
ion O   0.110617345189459   0.646689654825382   0.295930279968075 1
ion O   0.597038551369578   0.143116967369965   0.289450026415251 1
ion O   0.609089513254736   0.645632049063228   0.295706899810248 1
ion O   0.137246635238733   0.256331392338911   0.962489603482314 1
ion O   0.133987302035259   0.757413162062644   0.966303505417396 1
ion O   0.635642566968325   0.258625840884690   0.963167925791993 1
ion O   0.634178073271927   0.757844763367164   0.965743419276837 1
ion O   0.374543345818914   0.185950357350313   0.460079699577920 1
ion O   0.380263194058558   0.687828231585897   0.450363931824385 1
ion O   0.880168531869030   0.188918474102702   0.451121972933343 1
ion O   0.881913647784125   0.689051007600315   0.449494440514186 1
ion O   0.108849823769665   0.396653782758721   0.205247824468902 1
ion O   0.110297555036533   0.897088723475379   0.206229122274632 1
ion O   0.611969147392269   0.397850284638917   0.205554913016583 1
ion O   0.611100591012607   0.897408430399972   0.206252541295327 1
ion O   0.116071635788159   0.311110411914455   0.548875657252363 1
ion O   0.116776012082916   0.813588916715952   0.559899729270925 1
ion O   0.616705034143275   0.308498696868290   0.548250734423769 1
ion O   0.615902039127408   0.811773469272577   0.553935280946580 1
ion O   0.385717741855618   0.348715469119650   0.706498172277810 1
ion O   0.385398741949856   0.854322679962386   0.705636722895271 1
ion O   0.887373112690140   0.353034400630930   0.705786635534603 1
ion O   0.886914811403205   0.854965572414681   0.705513147792221 1
ion O   0.116880547784270   0.060428427316427  -0.050614149340880 1
ion O   0.116069550994142   0.561752342910594  -0.051298355298285 1
ion O   0.619821571631680   0.061363355540127  -0.051588067271233 1
ion O   0.616406981900896   0.562108574354233  -0.050967760849601 1
ion O   0.134142719818857   0.007232475078943   0.530667910448232 1
ion O   0.134309463200295   0.506659471974875   0.535677444606668 1
ion O   0.631716211508080   0.009427275809709   0.533567861652936 1
ion O   0.633701660089726   0.505407505140699   0.534470038697515 1

# Forces in Lattice coordinates:
force Bi  -0.000468641146757   0.000437139688481   0.000320905929493 1
force Bi  -0.000030800274011   0.000391567277409   0.000550810554402 1
force Bi  -0.000214071524069   0.001217771938117  -0.000144587378308 1
force Bi  -0.000869985899330  -0.000008061533499   0.001509034516357 1
force Bi  -0.000033881444115   0.001756376434424   0.000109621077415 1
force Bi  -0.000508189680400   0.001446737807668   0.000632734818818 1
force Bi  -0.001160337245380   0.003492395381222  -0.000220556415709 1
force Bi   0.000861113120171   0.001044337951909   0.001395692463802 1
force Bi   0.001900952845169  -0.003944767713922  -0.002253377398842 1
force Bi  -0.000715057284175  -0.001230542788502   0.001694114152124 1
force Bi  -0.001441622566996  -0.000130458247734   0.000142924324022 1
force Bi  -0.000335504462141  -0.000383229732531   0.000949773452962 1
force Bi   0.000249573072858  -0.002401595440119   0.002270983488577 1
force Bi  -0.000176731105811  -0.001844250290198   0.001197094993758 1
force Bi  -0.000772168562310   0.001457863918347  -0.001179260938538 1
force Bi  -0.000652980431447   0.000184832559153   0.000253654181079 1
force Bi  -0.000463781557581  -0.000431622842941  -0.001180228364974 1
force Bi  -0.000151792167537   0.000626923692034  -0.000278746519154 1
force Bi  -0.000030875394992  -0.000378715908816  -0.001493833179501 1
force Bi  -0.000299863458467  -0.000008514154865   0.001617171399717 1
force Bi  -0.000137368298959   0.000535808359343  -0.000252234293989 1
force Bi  -0.000100089168104  -0.001175628214000  -0.001062908200606 1
force Bi  -0.001040382055941  -0.000372365655330  -0.000263608582670 1
force Bi  -0.000601781644109   0.000911946050691  -0.000353254128278 1
force Bi   0.000834834778041   0.000888870993986  -0.000353051897338 1
force Bi  -0.004229074973487   0.002478103835218   0.001035676749373 1
force Bi  -0.003071797357473  -0.000950541473156   0.000050518322933 1
force Bi  -0.000502788595884  -0.000541345970891  -0.000282669479712 1
force Bi   0.001039380229106   0.002217527222331  -0.000027164769520 1
force Bi   0.000362489081609  -0.000355672468329   0.000443044849185 1
force Bi   0.000556288940503  -0.002575423314148  -0.001234822870618 1
force Bi   0.001145814154549  -0.001073177470253   0.000090530813449 1
force O   0.000369254601807  -0.001458757153762   0.000817835934251 1
force O   0.001122350954817  -0.001024196764849  -0.000100554976452 1
force O  -0.000448696218175  -0.002019691326442   0.001621787394350 1
force O  -0.001462483525838   0.000861594007299  -0.001713757801240 1
force O  -0.000081315577904  -0.000486970663311   0.001116886446904 1
force O  -0.000466848289878   0.001660983236157  -0.000668928068933 1
force O   0.000087093286395  -0.001321963326236   0.000258384864559 1
force O   0.001248252006589  -0.001170781383431  -0.000229293263414 1
force O   0.002530015865001  -0.001884356288461  -0.000049591116567 1
force O  -0.000431556750496   0.002976822414385   0.000780296883240 1
force O  -0.000264879044668  -0.002426669520258  -0.000594791192983 1
force O   0.001321964631833   0.002390564822216   0.000118209263081 1
force O  -0.000519065543028  -0.001344131569089  -0.000707323826649 1
force O  -0.000844134921222   0.001698173724662  -0.001232235136632 1
force O  -0.000540274880040  -0.000648016146253   0.000722490007461 1
force O  -0.000608864223024   0.001217289706588   0.001084795122608 1
force O  -0.001655776999468   0.002577149596514   0.000876788869978 1
force O   0.001085338489391  -0.001873830230880   0.000220752120465 1
force O  -0.000758684849654   0.003461508230104   0.002426321213453 1
force O  -0.001323672770247   0.000587552414155   0.001343536288723 1
force O   0.001236131962436  -0.001695754969678  -0.000065237122925 1
force O   0.001658837635075  -0.002129094085467  -0.002026293919666 1
force O   0.001172420114105  -0.001848197817072   0.000795695934742 1
force O  -0.000320782145424   0.001542385955132   0.000036084443384 1
force O  -0.000777755098143  -0.000587955822189   0.001232280741993 1
force O   0.000298248807710   0.000895427991752  -0.001020498649861 1
force O   0.001127877929215  -0.001249281534734   0.002513137262149 1
force O   0.000307569972220   0.001825115940060  -0.001451129761089 1
force O   0.000040131505718   0.001014735638301  -0.001654186341067 1
force O   0.001092433237974  -0.000124353911563  -0.001480461776111 1
force O   0.001386393179855   0.001016472160348  -0.001277821763209 1
force O  -0.001064585899586   0.000896778267949  -0.000195528778563 1
force O  -0.000574458812260  -0.000279661367684  -0.001342439776860 1
force O  -0.002603290082804   0.001445683311228  -0.000641776040618 1
force O  -0.000394601453078   0.000258543180937   0.000020004232598 1
force O  -0.000962704142881  -0.000872863433492  -0.001992487447726 1
force O  -0.000932057891800  -0.002166232325529   0.000256711375337 1
force O  -0.000373756455347  -0.001999337831904  -0.001635631625059 1
force O  -0.000979778152867   0.000821306326496  -0.001841649119681 1
force O   0.000578273788446   0.000494631234996   0.000879607988475 1
force O  -0.000560522906827  -0.001517644775602   0.002010067321354 1
force O  -0.000985638963778  -0.000863558691332   0.001397814557388 1
force O   0.000232951647179   0.002555265984316   0.000539237465215 1
force O   0.001753454382566   0.000162270492446   0.001616598831760 1
force O   0.000314195844339  -0.002731150657043   0.001886555452519 1
force O  -0.000515132786507  -0.001803081085312   0.000074835413002 1
force O   0.001172882462574  -0.000843570973567   0.000413639146618 1

# Energy components:
   Eewald =    -2347.7708311357773709
       EH =      716.1039445049899541
     Eloc =    -2298.3290594499253530
      Enl =      866.5827211766775235
      Exc =    -1198.1021450376192661
 Exc_core =      661.9337826887116307
       KE =      544.3629678657034674
-------------------------------------
     Etot =    -3055.2186193872389595
       TS =        0.0339678352077447
-------------------------------------
        F =    -3055.2525872224468912

IonicMinimize: Iter:  27  F: -3055.252587222446891  |grad|_K:  6.143e-05  alpha:  1.000e+00  linmin: -3.800e-01  t[s]:  40976.57
IonicMinimize: Converged (|grad|_K<1.000000e-04).

#--- Lowdin population analysis ---
# oxidation-state Bi +1.312 +1.311 +1.307 +1.313 +1.323 +1.332 +1.213 +1.331 +0.991 +1.315 +1.312 +1.312 +1.103 +1.331 +1.329 +1.332 +1.304 +1.310 +1.305 +1.310 +1.320 +1.204 +1.315 +1.311 +1.326 +1.329 +1.330 +1.333 +1.329 +1.329 +1.326 +1.329
# oxidation-state O -0.813 -0.809 -0.813 -0.803 -0.805 -0.806 -0.806 -0.820 -0.819 -0.818 -0.821 -0.806 -0.799 -0.804 -0.804 -0.812 -0.814 -0.786 -0.814 -0.795 -0.805 -0.806 -0.806 -0.815 -0.821 -0.824 -0.823 -0.815 -0.812 -0.812 -0.812 -0.813 -0.807 -0.822 -0.822 -0.803 -0.811 -0.813 -0.812 -0.816 -0.820 -0.817 -0.821 -0.804 -0.807 -0.805 -0.806


Dumping '/data/rc652/Bi2O3/vac/Bi2O3_vac32.Ecomponents' ... done
End date and time: Fri Nov 22 04:28:44 2024  (Duration: 0-11:23:05.47)
Done!
