--------------------------------------------------------------------------
Initialization of PSM library failed.

  Error: PSM is in the finalized state
--------------------------------------------------------------------------

*************** JDFTx 1.7.0  ***************

Start date and time: Fri Dec  8 15:11:41 2023
Executable jdftx with command-line: -i /home/cam559/Valla_project/Pd/Pd16O15.in
Running on hosts (process indices):  node3003.physics.cornell.edu (0-9)
Divided in process groups (process indices):  0 (0)  1 (1)  2 (2)  3 (3)  4 (4)  5 (5)  6 (6)  7 (7)  8 (8)  9 (9)
Resource initialization completed at t[s]:      0.00
Run totals: 10 processes, 30 threads, 0 GPUs


Input parsed successfully to the following command list (including defaults):

basis kpoint-dependent
coords-type Cartesian
core-overlap-check vector
coulomb-interaction Periodic
davidson-band-ratio 1.1
dump End Ecomponents
dump-name Pd16O15.$VAR
elec-cutoff 20 100
elec-eigen-algo Davidson
elec-ex-corr gga-PBE
elec-smearing Fermi 0.004
electronic-minimize  \
	dirUpdateScheme      FletcherReeves \
	linminMethod         DirUpdateRecommended \
	nIterations          100 \
	history              15 \
	knormThreshold       0 \
	energyDiffThreshold  1e-08 \
	nEnergyDiff          2 \
	alphaTstart          1 \
	alphaTmin            1e-10 \
	updateTestStepSize   yes \
	alphaTreduceFactor   0.1 \
	alphaTincreaseFactor 3 \
	nAlphaAdjustMax      3 \
	wolfeEnergy          0.0001 \
	wolfeGradient        0.9 \
	fdTest               no
exchange-regularization WignerSeitzTruncated
fluid None
fluid-ex-corr lda-TF lda-PZ
fluid-gummel-loop 10 1.000000e-05
fluid-minimize  \
	dirUpdateScheme      PolakRibiere \
	linminMethod         DirUpdateRecommended \
	nIterations          100 \
	history              15 \
	knormThreshold       0 \
	energyDiffThreshold  0 \
	nEnergyDiff          2 \
	alphaTstart          1 \
	alphaTmin            1e-10 \
	updateTestStepSize   yes \
	alphaTreduceFactor   0.1 \
	alphaTincreaseFactor 3 \
	nAlphaAdjustMax      3 \
	wolfeEnergy          0.0001 \
	wolfeGradient        0.9 \
	fdTest               no
fluid-solvent H2O 55.338 ScalarEOS \
	epsBulk 78.4 \
	pMol 0.92466 \
	epsInf 1.77 \
	Pvap 1.06736e-10 \
	sigmaBulk 4.62e-05 \
	Rvdw 2.61727 \
	Res 1.42 \
	tauNuc 343133 \
	poleEl 15 7 1
forces-output-coords Positions
initial-state Pd16O15.$VAR
ion Pd   2.885238000000000   0.000000000000000   5.075101999999999 1
ion Pd   0.000000000000000   2.885238000000000   0.000000000000000 1
ion Pd   2.885238000000000   0.000000000000000  15.225305999999998 1
ion Pd   0.000000000000000   2.885238000000000  10.150203999999999 1
ion Pd   2.885238000000000   5.770474999999999   5.075101999999999 1
ion Pd   0.000000000000000   8.655713000000000   0.000000000000000 1
ion Pd   2.885238000000000   5.770474999999999  15.225305999999998 1
ion Pd   0.000000000000000   8.655713000000000  10.150203999999999 1
ion Pd   8.655713000000000   0.000000000000000   5.075101999999999 1
ion Pd   5.770474999999999   2.885238000000000   0.000000000000000 1
ion Pd   8.655713000000000   0.000000000000000  15.225305999999998 1
ion Pd   5.770474999999999   2.885238000000000  10.150203999999999 1
ion Pd   8.655713000000000   5.770474999999999   5.075101999999999 1
ion Pd   5.770474999999999   8.655713000000000   0.000000000000000 1
ion Pd   8.655713000000000   5.770474999999999  15.225305999999998 1
ion Pd   5.770474999999999   8.655713000000000  10.150203999999999 1
ion O   0.000000000000000   0.000000000000000   7.612652999999999 1
ion O   0.000000000000000   0.000000000000000   2.537551000000000 1
ion O   0.000000000000000   0.000000000000000  17.762857000000000 1
ion O   0.000000000000000   0.000000000000000  12.687754999999999 1
ion O   0.000000000000000   5.770474999999999   7.612652999999999 1
ion O   0.000000000000000   5.770474999999999   2.537551000000000 1
ion O   0.000000000000000   5.770474999999999  17.762857000000000 1
ion O   0.000000000000000   5.770474999999999  12.687754999999999 1
ion O   5.770474999999999   0.000000000000000   7.612652999999999 1
ion O   5.770474999999999   0.000000000000000   2.537551000000000 1
ion O   5.770474999999999   0.000000000000000  17.762857000000000 1
ion O   5.770474999999999   0.000000000000000  12.687754999999999 1
ion O   5.770474999999999   5.770474999999999   7.612652999999999 1
ion O   5.770474999999999   5.770474999999999   2.537551000000000 1
ion O   5.770474999999999   5.770474999999999  17.762857000000000 1
ion-species GBRV/$ID_pbe.uspp
ion-width 0
ionic-minimize  \
	dirUpdateScheme      L-BFGS \
	linminMethod         DirUpdateRecommended \
	nIterations          30 \
	history              15 \
	knormThreshold       0.0001 \
	energyDiffThreshold  1e-05 \
	nEnergyDiff          2 \
	alphaTstart          1 \
	alphaTmin            1e-10 \
	updateTestStepSize   yes \
	alphaTreduceFactor   0.1 \
	alphaTincreaseFactor 3 \
	nAlphaAdjustMax      3 \
	wolfeEnergy          0.0001 \
	wolfeGradient        0.9 \
	fdTest               no
kpoint   0.000000000000   0.000000000000   0.000000000000  1.00000000000000
kpoint-folding 4 4 4 
latt-move-scale 1 1 1
latt-scale 1 1 1 
lattice  \
	  11.540951000000000    0.000000000000000    0.000000000000000  \
	   0.000000000000000   11.540951000000000    0.000000000000000  \
	   0.000000000000000    0.000000000000000   20.300408999999998 
lattice-minimize  \
	dirUpdateScheme      L-BFGS \
	linminMethod         DirUpdateRecommended \
	nIterations          0 \
	history              15 \
	knormThreshold       0 \
	energyDiffThreshold  1e-06 \
	nEnergyDiff          2 \
	alphaTstart          1 \
	alphaTmin            1e-10 \
	updateTestStepSize   yes \
	alphaTreduceFactor   0.1 \
	alphaTincreaseFactor 3 \
	nAlphaAdjustMax      3 \
	wolfeEnergy          0.0001 \
	wolfeGradient        0.9 \
	fdTest               no
lcao-params -1 1e-06 0.004
pcm-variant GLSSA13
spintype no-spin
subspace-rotation-factor 1 yes
symmetries automatic
symmetry-threshold 0.0001



---------- Setting up symmetries ----------

Found 16 point-group symmetries of the bravais lattice
Found 8 space-group symmetries with basis
Applied RMS atom displacement 4.16866e-07 bohrs to make symmetries exact.

---------- Initializing the Grid ----------
R = 
[       11.541            0            0  ]
[            0       11.541            0  ]
[            0            0      20.3004  ]
unit cell volume = 2703.88
G =
[   0.544425          0          0  ]
[          0   0.544425          0  ]
[          0          0    0.30951  ]
Minimum fftbox size, Smin = [  52  52  92  ]
Chosen fftbox size, S = [  54  54  96  ]

---------- Initializing tighter grid for wavefunction operations ----------
R = 
[       11.541            0            0  ]
[            0       11.541            0  ]
[            0            0      20.3004  ]
unit cell volume = 2703.88
G =
[   0.544425          0          0  ]
[          0   0.544425          0  ]
[          0          0    0.30951  ]
Minimum fftbox size, Smin = [  48  48  84  ]
Chosen fftbox size, S = [  48  48  84  ]

---------- Exchange Correlation functional ----------
Initalized PBE GGA exchange.
Initalized PBE GGA correlation.

---------- Setting up pseudopotentials ----------
Width of ionic core gaussian charges (only for fluid interactions / plotting) set to 0

Reading pseudopotential file '/home/cam559/JDFTx/build/pseudopotentials/GBRV/pd_pbe.uspp':
  Title: Pd.  Created by USPP 7.3.6 on 31-3-15
  Reference state energy: -99.095797.  16 valence electrons in orbitals:
    |410>  occupation: 6  eigenvalue: -2.075344
    |420>  occupation: 9.5  eigenvalue: -0.331049
    |500>  occupation: 0  eigenvalue: -0.255738
    |510>  occupation: 0  eigenvalue: -0.109005
  lMax: 2  lLocal: 3  QijEcut: 6
  6 projectors sampled on a log grid with 717 points:
    l: 0  eig: -0.255738  rCut: 2.5
    l: 0  eig: 1.000000  rCut: 2.5
    l: 1  eig: -2.075343  rCut: 1.53
    l: 1  eig: -0.109006  rCut: 1.53
    l: 2  eig: -0.331048  rCut: 1.63
    l: 2  eig: 1.500000  rCut: 1.63
  Partial core density with radius 1
  Transforming core density to a uniform radial grid of dG=0.02 with 1283 points.
  Transforming local potential to a uniform radial grid of dG=0.02 with 1283 points.
  Transforming nonlocal projectors to a uniform radial grid of dG=0.02 with 432 points.
  Transforming density augmentations to a uniform radial grid of dG=0.02 with 1283 points.
  Transforming atomic orbitals to a uniform radial grid of dG=0.02 with 432 points.
  Core radius for overlap checks: 2.50 bohrs.

Reading pseudopotential file '/home/cam559/JDFTx/build/pseudopotentials/GBRV/o_pbe.uspp':
  Title: O.  Created by USPP 7.3.6 on 3-2-2014
  Reference state energy: -15.894388.  6 valence electrons in orbitals:
    |200>  occupation: 2  eigenvalue: -0.878823
    |210>  occupation: 4  eigenvalue: -0.332131
  lMax: 2  lLocal: 2  QijEcut: 6
  5 projectors sampled on a log grid with 511 points:
    l: 0  eig: -0.878823  rCut: 1.25
    l: 0  eig: 0.000000  rCut: 1.25
    l: 1  eig: -0.332132  rCut: 1.25
    l: 1  eig: 0.000000  rCut: 1.25
    l: 2  eig: 1.000000  rCut: 1.25
  Partial core density with radius 0.7
  Transforming core density to a uniform radial grid of dG=0.02 with 1283 points.
  Transforming local potential to a uniform radial grid of dG=0.02 with 1283 points.
  Transforming nonlocal projectors to a uniform radial grid of dG=0.02 with 432 points.
  Transforming density augmentations to a uniform radial grid of dG=0.02 with 1283 points.
  Transforming atomic orbitals to a uniform radial grid of dG=0.02 with 432 points.
  Core radius for overlap checks: 1.25 bohrs.

Initialized 2 species with 31 total atoms.

Folded 1 k-points by 4x4x4 to 64 k-points.

---------- Setting up k-points, bands, fillings ----------
Adding inversion symmetry to k-mesh for non-inversion-symmetric unit cell.
Reduced to 18 k-points under symmetry. 
Computing the number of bands and number of electrons
Calculating initial fillings.
nElectrons: 346.000000   nBands: 252   nStates: 18

----- Setting up reduced wavefunction bases (one per k-point) -----
average nbasis = 11550.172 , ideal nbasis = 11551.197

---------- Setting up ewald sum ----------
Optimum gaussian width for ewald sums = 3.135781 bohr.
Real space sum over 567 unit cells with max indices [  4  4  3  ]
Reciprocal space sum over 5175 terms with max indices [  7  7  11  ]

---------- Allocating electronic variables ----------
Initializing wave functions:  linear combination of atomic orbitals
Pd pseudo-atom occupations:   s ( 0 )  p ( 6 0 )  d ( 10 )
O pseudo-atom occupations:   s ( 2 )  p ( 4 )
	FillingsUpdate:  mu: +0.624521741  nElectrons: 346.000000
LCAOMinimize: Iter:   0  F: -1765.6314731734235011  |grad|_K:  7.010e-03  alpha:  1.000e+00
	FillingsUpdate:  mu: +0.605586568  nElectrons: 346.000000
LCAOMinimize: Iter:   1  F: -1773.7572732985117909  |grad|_K:  4.370e-03  alpha:  3.056e-01  linmin:  3.098e-02  cgtest: -4.164e-01  t[s]:    104.76
	FillingsUpdate:  mu: +0.500951163  nElectrons: 346.000000
LCAOMinimize: Iter:   2  F: -1774.0704548262024218  |grad|_K:  2.163e-03  alpha:  5.054e-02  linmin:  4.697e-02  cgtest:  7.824e-01  t[s]:    135.89
LCAOMinimize: Encountered beta<0, resetting CG.
	FillingsUpdate:  mu: +0.474771337  nElectrons: 346.000000
LCAOMinimize: Iter:   3  F: -1774.4627005507857120  |grad|_K:  1.233e-03  alpha:  1.412e-01  linmin: -5.827e-04  cgtest:  2.398e-02  t[s]:    167.20
	FillingsUpdate:  mu: +0.463027106  nElectrons: 346.000000
LCAOMinimize: Iter:   4  F: -1774.5842725927252559  |grad|_K:  3.893e-04  alpha:  1.384e-01  linmin:  2.782e-02  cgtest: -2.027e-01  t[s]:    198.45
	FillingsUpdate:  mu: +0.467515075  nElectrons: 346.000000
LCAOMinimize: Iter:   5  F: -1774.6026567438973416  |grad|_K:  2.604e-04  alpha:  2.328e-01  linmin:  2.306e-02  cgtest: -1.474e-02  t[s]:    229.69
	FillingsUpdate:  mu: +0.468883743  nElectrons: 346.000000
LCAOMinimize: Iter:   6  F: -1774.6096581397175669  |grad|_K:  2.441e-04  alpha:  1.906e-01  linmin:  2.243e-03  cgtest:  9.491e-02  t[s]:    261.95
	FillingsUpdate:  mu: +0.472863627  nElectrons: 346.000000
LCAOMinimize: Iter:   7  F: -1774.6137349145999451  |grad|_K:  8.336e-05  alpha:  1.177e-01  linmin: -1.446e-03  cgtest: -9.009e-02  t[s]:    293.36
	FillingsUpdate:  mu: +0.473300168  nElectrons: 346.000000
LCAOMinimize: Iter:   8  F: -1774.6141584593040079  |grad|_K:  3.081e-05  alpha:  1.052e-01  linmin:  1.089e-03  cgtest: -3.760e-02  t[s]:    323.74
	FillingsUpdate:  mu: +0.473453313  nElectrons: 346.000000
LCAOMinimize: Iter:   9  F: -1774.6142258891088659  |grad|_K:  2.106e-05  alpha:  1.237e-01  linmin:  4.642e-04  cgtest:  5.597e-03  t[s]:    356.14
	FillingsUpdate:  mu: +0.473125252  nElectrons: 346.000000
LCAOMinimize: Iter:  10  F: -1774.6142751611484982  |grad|_K:  1.730e-05  alpha:  1.933e-01  linmin:  3.669e-04  cgtest: -1.885e-03  t[s]:    388.12
	FillingsUpdate:  mu: +0.472908677  nElectrons: 346.000000
LCAOMinimize: Iter:  11  F: -1774.6143018176783244  |grad|_K:  1.105e-05  alpha:  1.547e-01  linmin:  1.375e-04  cgtest:  2.469e-03  t[s]:    420.71
	FillingsUpdate:  mu: +0.472774910  nElectrons: 346.000000
LCAOMinimize: Iter:  12  F: -1774.6143097527362897  |grad|_K:  5.266e-06  alpha:  1.128e-01  linmin:  3.869e-05  cgtest:  8.867e-04  t[s]:    454.11
	FillingsUpdate:  mu: +0.472781062  nElectrons: 346.000000
LCAOMinimize: Iter:  13  F: -1774.6143118699412753  |grad|_K:  3.093e-06  alpha:  1.326e-01  linmin:  8.185e-05  cgtest: -3.727e-04  t[s]:    485.81
	FillingsUpdate:  mu: +0.472770669  nElectrons: 346.000000
LCAOMinimize: Iter:  14  F: -1774.6143126774225038  |grad|_K:  2.272e-06  alpha:  1.465e-01  linmin:  4.337e-06  cgtest:  4.512e-04  t[s]:    518.84
	FillingsUpdate:  mu: +0.472780111  nElectrons: 346.000000
LCAOMinimize: Iter:  15  F: -1774.6143131446763164  |grad|_K:  1.554e-06  alpha:  1.571e-01  linmin:  4.537e-06  cgtest: -2.012e-04  t[s]:    552.66
LCAOMinimize: Converged (|Delta F|<1.000000e-06 for 2 iters).


---- Citations for features of the code used in this run ----

   Software package:
      R. Sundararaman, K. Letchworth-Weaver, K.A. Schwarz, D. Gunceler, Y. Ozhabes and T.A. Arias, 'JDFTx: software for joint density-functional theory', SoftwareX 6, 278 (2017)

   gga-PBE exchange-correlation functional:
      J.P. Perdew, K. Burke and M. Ernzerhof, Phys. Rev. Lett. 77, 3865 (1996)

   Pseudopotentials:
      KF Garrity, JW Bennett, KM Rabe and D Vanderbilt, Comput. Mater. Sci. 81, 446 (2014)

   Total energy minimization with Auxiliary Hamiltonian:
      C. Freysoldt, S. Boeck, and J. Neugebauer, Phys. Rev. B 79, 241103(R) (2009)

This list may not be complete. Please suggest additional citations or
report any other bugs at https://github.com/shankar1729/jdftx/issues

Initialization completed successfully at t[s]:    576.47


-------- Electronic minimization -----------
	FillingsUpdate:  mu: +0.472780111  nElectrons: 346.000000
ElecMinimize: Iter:   0  F: -1774.614313144675862  |grad|_K:  1.325e-04  alpha:  1.000e+00
	FillingsUpdate:  mu: +0.490870153  nElectrons: 346.000000
	SubspaceRotationAdjust: set factor to 0.999
ElecMinimize: Iter:   1  F: -1774.975794326182950  |grad|_K:  6.905e-05  alpha:  3.895e-01  linmin:  6.206e-05  t[s]:    753.20
	FillingsUpdate:  mu: +0.478418171  nElectrons: 346.000000
	SubspaceRotationAdjust: set factor to 0.709
ElecMinimize: Iter:   2  F: -1775.055504759807718  |grad|_K:  3.232e-05  alpha:  3.173e-01  linmin:  1.562e-06  t[s]:    870.40
	FillingsUpdate:  mu: +0.476331786  nElectrons: 346.000000
	SubspaceRotationAdjust: set factor to 0.492
ElecMinimize: Iter:   3  F: -1775.064311117738953  |grad|_K:  3.322e-05  alpha:  1.611e-01  linmin:  2.489e-05  t[s]:    991.37
	FillingsUpdate:  mu: +0.474667609  nElectrons: 346.000000
	SubspaceRotationAdjust: set factor to 0.736
ElecMinimize: Iter:   4  F: -1775.074097491810335  |grad|_K:  1.337e-05  alpha:  1.685e-01  linmin:  3.295e-05  t[s]:   1113.76
	FillingsUpdate:  mu: +0.476599673  nElectrons: 346.000000
	SubspaceRotationAdjust: set factor to 0.482
ElecMinimize: Iter:   5  F: -1775.076873578166897  |grad|_K:  1.420e-05  alpha:  2.965e-01  linmin:  4.879e-05  t[s]:   1233.39
	FillingsUpdate:  mu: +0.476249039  nElectrons: 346.000000
	SubspaceRotationAdjust: set factor to 0.386
ElecMinimize: Iter:   6  F: -1775.078005047391571  |grad|_K:  6.641e-06  alpha:  1.058e-01  linmin: -3.264e-05  t[s]:   1359.05
ElecMinimize: 	Predicted alpha/alphaT>3.000000, increasing alphaT to 3.173313e-01.
	FillingsUpdate:  mu: +0.475484903  nElectrons: 346.000000
	SubspaceRotationAdjust: set factor to 0.332
ElecMinimize: Iter:   7  F: -1775.078771036434546  |grad|_K:  5.079e-06  alpha:  3.254e-01  linmin:  2.041e-05  t[s]:   1509.25
	FillingsUpdate:  mu: +0.475573591  nElectrons: 346.000000
	SubspaceRotationAdjust: set factor to 0.276
ElecMinimize: Iter:   8  F: -1775.079023985519825  |grad|_K:  3.313e-06  alpha:  1.854e-01  linmin:  2.720e-07  t[s]:   1632.48
	FillingsUpdate:  mu: +0.475867135  nElectrons: 346.000000
	SubspaceRotationAdjust: set factor to 0.354
ElecMinimize: Iter:   9  F: -1775.079207417974885  |grad|_K:  2.232e-06  alpha:  3.161e-01  linmin:  1.870e-05  t[s]:   1754.67
	FillingsUpdate:  mu: +0.475884034  nElectrons: 346.000000
	SubspaceRotationAdjust: set factor to 0.297
ElecMinimize: Iter:  10  F: -1775.079272049722022  |grad|_K:  1.684e-06  alpha:  2.462e-01  linmin:  3.509e-06  t[s]:   1874.38
	FillingsUpdate:  mu: +0.475899987  nElectrons: 346.000000
	SubspaceRotationAdjust: set factor to 0.42
ElecMinimize: Iter:  11  F: -1775.079317399007095  |grad|_K:  1.023e-06  alpha:  3.025e-01  linmin:  7.392e-07  t[s]:   2002.11
	FillingsUpdate:  mu: +0.475922498  nElectrons: 346.000000
	SubspaceRotationAdjust: set factor to 0.352
ElecMinimize: Iter:  12  F: -1775.079335775581285  |grad|_K:  9.559e-07  alpha:  3.319e-01  linmin: -3.679e-06  t[s]:   2127.22
	FillingsUpdate:  mu: +0.475915433  nElectrons: 346.000000
	SubspaceRotationAdjust: set factor to 0.312
ElecMinimize: Iter:  13  F: -1775.079346064096853  |grad|_K:  5.407e-07  alpha:  2.125e-01  linmin: -2.607e-06  t[s]:   2253.68
	FillingsUpdate:  mu: +0.475970047  nElectrons: 346.000000
	SubspaceRotationAdjust: set factor to 0.403
ElecMinimize: Iter:  14  F: -1775.079351996525929  |grad|_K:  3.899e-07  alpha:  3.822e-01  linmin: -7.096e-06  t[s]:   2374.16
	FillingsUpdate:  mu: +0.475986705  nElectrons: 346.000000
	SubspaceRotationAdjust: set factor to 0.318
ElecMinimize: Iter:  15  F: -1775.079354239758004  |grad|_K:  2.814e-07  alpha:  2.775e-01  linmin: -2.173e-06  t[s]:   2498.76
	FillingsUpdate:  mu: +0.475966530  nElectrons: 346.000000
	SubspaceRotationAdjust: set factor to 0.276
ElecMinimize: Iter:  16  F: -1775.079355295465120  |grad|_K:  1.683e-07  alpha:  2.513e-01  linmin: -1.311e-06  t[s]:   2624.11
	FillingsUpdate:  mu: +0.475965395  nElectrons: 346.000000
	SubspaceRotationAdjust: set factor to 0.355
ElecMinimize: Iter:  17  F: -1775.079355850724824  |grad|_K:  9.703e-08  alpha:  3.694e-01  linmin: -1.648e-06  t[s]:   2745.62
	FillingsUpdate:  mu: +0.475975102  nElectrons: 346.000000
	SubspaceRotationAdjust: set factor to 0.334
ElecMinimize: Iter:  18  F: -1775.079356033878639  |grad|_K:  7.268e-08  alpha:  3.667e-01  linmin: -8.401e-07  t[s]:   2868.03
	FillingsUpdate:  mu: +0.475971852  nElectrons: 346.000000
	SubspaceRotationAdjust: set factor to 0.282
ElecMinimize: Iter:  19  F: -1775.079356107685499  |grad|_K:  4.779e-08  alpha:  2.636e-01  linmin: -2.032e-07  t[s]:   2995.30
	FillingsUpdate:  mu: +0.475967871  nElectrons: 346.000000
	SubspaceRotationAdjust: set factor to 0.331
ElecMinimize: Iter:  20  F: -1775.079356152518585  |grad|_K:  2.904e-08  alpha:  3.706e-01  linmin:  3.496e-07  t[s]:   3119.02
	FillingsUpdate:  mu: +0.475968210  nElectrons: 346.000000
	SubspaceRotationAdjust: set factor to 0.385
ElecMinimize: Iter:  21  F: -1775.079356171481777  |grad|_K:  2.105e-08  alpha:  4.250e-01  linmin: -5.843e-07  t[s]:   3242.83
	FillingsUpdate:  mu: +0.475968003  nElectrons: 346.000000
	SubspaceRotationAdjust: set factor to 0.361
ElecMinimize: Iter:  22  F: -1775.079356179339356  |grad|_K:  1.648e-08  alpha:  3.342e-01  linmin:  4.585e-07  t[s]:   3364.67
	FillingsUpdate:  mu: +0.475968055  nElectrons: 346.000000
	SubspaceRotationAdjust: set factor to 0.283
ElecMinimize: Iter:  23  F: -1775.079356183250411  |grad|_K:  1.121e-08  alpha:  2.720e-01  linmin:  2.156e-07  t[s]:   3485.92
ElecMinimize: Converged (|Delta F|<1.000000e-08 for 2 iters).
Setting wave functions to eigenvectors of Hamiltonian

# Ionic positions in cartesian coordinates:
ion Pd   2.885237822580645  -0.000000177419355   5.075101693548387 1
ion Pd  -0.000000177419355   2.885237822580645  -0.000000306451613 1
ion Pd   2.885237822580645  -0.000000177419355  15.225306193548386 1
ion Pd  -0.000000177419355   2.885237822580645  10.150204193548387 1
ion Pd   2.885237822580645   5.770475322580645   5.075101693548387 1
ion Pd  -0.000000177419355   8.655712822580645  -0.000000306451613 1
ion Pd   2.885237822580645   5.770475322580645  15.225306193548386 1
ion Pd  -0.000000177419355   8.655712822580645  10.150204193548387 1
ion Pd   8.655712822580645  -0.000000177419355   5.075101693548387 1
ion Pd   5.770475322580645   2.885237822580645  -0.000000306451613 1
ion Pd   8.655712822580645  -0.000000177419355  15.225306193548386 1
ion Pd   5.770475322580645   2.885237822580645  10.150204193548387 1
ion Pd   8.655712822580645   5.770475322580645   5.075101693548387 1
ion Pd   5.770475322580645   8.655712822580645  -0.000000306451613 1
ion Pd   8.655712822580645   5.770475322580645  15.225306193548386 1
ion Pd   5.770475322580645   8.655712822580645  10.150204193548387 1
ion O  -0.000000177419355  -0.000000177419355   7.612653193548386 1
ion O  -0.000000177419355  -0.000000177419355   2.537550693548387 1
ion O  -0.000000177419355  -0.000000177419355  17.762857193548385 1
ion O  -0.000000177419355  -0.000000177419355  12.687755193548385 1
ion O  -0.000000177419355   5.770475322580645   7.612653193548386 1
ion O  -0.000000177419355   5.770475322580645   2.537550693548387 1
ion O  -0.000000177419355   5.770475322580645  17.762857193548385 1
ion O  -0.000000177419355   5.770475322580645  12.687755193548385 1
ion O   5.770475322580645  -0.000000177419355   7.612653193548386 1
ion O   5.770475322580645  -0.000000177419355   2.537550693548387 1
ion O   5.770475322580645  -0.000000177419355  17.762857193548385 1
ion O   5.770475322580645  -0.000000177419355  12.687755193548385 1
ion O   5.770475322580645   5.770475322580645   7.612653193548386 1
ion O   5.770475322580645   5.770475322580645   2.537550693548387 1
ion O   5.770475322580645   5.770475322580645  17.762857193548385 1

# Forces in Cartesian coordinates:
force Pd   0.001925640387263   0.000000000000000   0.000856259161204 1
force Pd   0.000000000000000   0.001925640387263  -0.000856259161204 1
force Pd   0.001585451911584   0.000000000000000  -0.001425098763669 1
force Pd   0.000000000000000   0.001585451911584   0.001425098763669 1
force Pd   0.000533526235813  -0.000000000000000   0.001097943284186 1
force Pd   0.000000000000000  -0.001925640387263  -0.000856259161204 1
force Pd   0.037433671299771   0.000000000000000  -0.021254327315459 1
force Pd   0.000000000000000  -0.001585451911584   0.001425098763669 1
force Pd  -0.001925640387263   0.000000000000000   0.000856259161204 1
force Pd   0.000000000000000   0.000533526235813  -0.001097943284186 1
force Pd  -0.001585451911584  -0.000000000000000  -0.001425098763669 1
force Pd   0.000000000000000   0.037433671299773   0.021254327315461 1
force Pd  -0.000533526235813   0.000000000000000   0.001097943284186 1
force Pd   0.000000000000000  -0.000533526235813  -0.001097943284185 1
force Pd  -0.037433671299771   0.000000000000000  -0.021254327315460 1
force Pd   0.000000000000000  -0.037433671299772   0.021254327315460 1
force O   0.000000000000000   0.000000000000000   0.002089017550133 1
force O   0.000000000000000   0.000000000000000   0.000000000000000 1
force O   0.000000000000000  -0.000000000000000  -0.002089017550133 1
force O   0.000000000000000  -0.000000000000000   0.000000000000000 1
force O   0.000000000000000   0.000000000000000  -0.000578870478384 1
force O   0.000000000000000  -0.000000000000000   0.000333329368995 1
force O   0.000000000000000  -0.000000000000000   0.018791346059221 1
force O   0.000000000000000   0.000000000000000   0.000622190244582 1
force O   0.000000000000000   0.000000000000000  -0.018791346059221 1
force O   0.000000000000000  -0.000000000000000  -0.000333329368995 1
force O   0.000000000000000  -0.000000000000000   0.000578870478384 1
force O   0.000000000000000  -0.000000000000000  -0.000622190244582 1
force O   0.000000000000000  -0.000000000000000   0.010585270706618 1
force O   0.000000000000000   0.000000000000000   0.000000000000000 1
force O   0.000000000000000   0.000000000000000  -0.010585270706618 1

# Energy components:
   Eewald =    -1338.8480260321950936
       EH =      426.7503825524254353
     Eloc =    -1005.5654144270831694
      Enl =     -194.6407262527035300
      Exc =     -304.8213644299316343
 Exc_core =       56.0959886089730020
       KE =      585.9644856798022374
-------------------------------------
     Etot =    -1775.0646743007127952
       TS =        0.0146818825376458
-------------------------------------
        F =    -1775.0793561832504110

IonicMinimize: Iter:   0  F: -1775.079356183250411  |grad|_K:  9.501e-03  t[s]:   3507.89

#--- Lowdin population analysis ---
# oxidation-state Pd +0.262 +0.262 +0.267 +0.267 +0.265 +0.262 +0.165 +0.267 +0.262 +0.265 +0.267 +0.165 +0.265 +0.265 +0.165 +0.165
# oxidation-state O -0.242 -0.247 -0.242 -0.245 -0.244 -0.246 -0.234 -0.234 -0.234 -0.246 -0.244 -0.234 -0.218 -0.245 -0.218


-------- Electronic minimization -----------
	FillingsUpdate:  mu: +0.478496228  nElectrons: 346.000000
ElecMinimize: Iter:   0  F: -1774.697994219473458  |grad|_K:  1.498e-04  alpha:  1.000e+00
	FillingsUpdate:  mu: +0.478962375  nElectrons: 346.000000
	SubspaceRotationAdjust: set factor to 0.274
ElecMinimize: Iter:   1  F: -1775.052287735956952  |grad|_K:  3.692e-05  alpha:  2.997e-01  linmin:  1.966e-03  t[s]:   3724.41
	FillingsUpdate:  mu: +0.475379485  nElectrons: 346.000000
	SubspaceRotationAdjust: set factor to 0.211
ElecMinimize: Iter:   2  F: -1775.069269962925773  |grad|_K:  1.654e-05  alpha:  2.369e-01  linmin:  6.691e-06  t[s]:   3845.43
	FillingsUpdate:  mu: +0.475806707  nElectrons: 346.000000
	SubspaceRotationAdjust: set factor to 0.238
ElecMinimize: Iter:   3  F: -1775.074462493094643  |grad|_K:  1.189e-05  alpha:  3.576e-01  linmin: -1.221e-04  t[s]:   3968.16
	FillingsUpdate:  mu: +0.475430624  nElectrons: 346.000000
	SubspaceRotationAdjust: set factor to 0.294
ElecMinimize: Iter:   4  F: -1775.079970425041893  |grad|_K:  1.202e-05  alpha:  7.339e-01  linmin:  5.304e-05  t[s]:   4089.05
	FillingsUpdate:  mu: +0.475272729  nElectrons: 346.000000
	SubspaceRotationAdjust: set factor to 0.332
ElecMinimize: Iter:   5  F: -1775.083636157735327  |grad|_K:  1.002e-05  alpha:  4.790e-01  linmin: -7.800e-06  t[s]:   4210.69
	FillingsUpdate:  mu: +0.475620683  nElectrons: 346.000000
	SubspaceRotationAdjust: set factor to 0.283
ElecMinimize: Iter:   6  F: -1775.085769736054317  |grad|_K:  6.501e-06  alpha:  4.025e-01  linmin: -5.089e-05  t[s]:   4335.98
	FillingsUpdate:  mu: +0.475365539  nElectrons: 346.000000
	SubspaceRotationAdjust: set factor to 0.195
ElecMinimize: Iter:   7  F: -1775.086377745733898  |grad|_K:  3.960e-06  alpha:  2.699e-01  linmin:  7.217e-07  t[s]:   4461.28
	FillingsUpdate:  mu: +0.475490416  nElectrons: 346.000000
	SubspaceRotationAdjust: set factor to 0.231
ElecMinimize: Iter:   8  F: -1775.086642200985352  |grad|_K:  1.912e-06  alpha:  3.185e-01  linmin: -1.563e-05  t[s]:   4582.96
	FillingsUpdate:  mu: +0.475531226  nElectrons: 346.000000
	SubspaceRotationAdjust: set factor to 0.246
ElecMinimize: Iter:   9  F: -1775.086723053576407  |grad|_K:  1.096e-06  alpha:  4.175e-01  linmin: -2.749e-06  t[s]:   4703.48
	FillingsUpdate:  mu: +0.475487008  nElectrons: 346.000000
	SubspaceRotationAdjust: set factor to 0.209
ElecMinimize: Iter:  10  F: -1775.086744376554861  |grad|_K:  7.095e-07  alpha:  3.350e-01  linmin:  1.073e-06  t[s]:   4825.72
	FillingsUpdate:  mu: +0.475510598  nElectrons: 346.000000
	SubspaceRotationAdjust: set factor to 0.251
ElecMinimize: Iter:  11  F: -1775.086754142579139  |grad|_K:  4.200e-07  alpha:  3.664e-01  linmin:  3.227e-07  t[s]:   4951.73
	FillingsUpdate:  mu: +0.475514892  nElectrons: 346.000000
	SubspaceRotationAdjust: set factor to 0.332
ElecMinimize: Iter:  12  F: -1775.086758725437903  |grad|_K:  3.089e-07  alpha:  4.908e-01  linmin:  4.627e-07  t[s]:   5075.59
	FillingsUpdate:  mu: +0.475507354  nElectrons: 346.000000
	SubspaceRotationAdjust: set factor to 0.328
ElecMinimize: Iter:  13  F: -1775.086761041741738  |grad|_K:  2.818e-07  alpha:  4.585e-01  linmin:  4.925e-08  t[s]:   5199.06
	FillingsUpdate:  mu: +0.475522568  nElectrons: 346.000000
	SubspaceRotationAdjust: set factor to 0.273
ElecMinimize: Iter:  14  F: -1775.086762392945502  |grad|_K:  2.086e-07  alpha:  3.215e-01  linmin: -2.803e-08  t[s]:   5322.20
	FillingsUpdate:  mu: +0.475516634  nElectrons: 346.000000
	SubspaceRotationAdjust: set factor to 0.295
ElecMinimize: Iter:  15  F: -1775.086763341241294  |grad|_K:  1.320e-07  alpha:  4.116e-01  linmin: -7.753e-08  t[s]:   5446.26
	FillingsUpdate:  mu: +0.475516161  nElectrons: 346.000000
	SubspaceRotationAdjust: set factor to 0.349
ElecMinimize: Iter:  16  F: -1775.086763761614975  |grad|_K:  7.885e-08  alpha:  4.559e-01  linmin: -1.437e-07  t[s]:   5566.25
	FillingsUpdate:  mu: +0.475518147  nElectrons: 346.000000
	SubspaceRotationAdjust: set factor to 0.356
ElecMinimize: Iter:  17  F: -1775.086763904472491  |grad|_K:  5.713e-08  alpha:  4.339e-01  linmin: -1.296e-07  t[s]:   5691.08
	FillingsUpdate:  mu: +0.475514844  nElectrons: 346.000000
	SubspaceRotationAdjust: set factor to 0.282
ElecMinimize: Iter:  18  F: -1775.086763951562261  |grad|_K:  4.186e-08  alpha:  2.725e-01  linmin:  2.208e-08  t[s]:   5815.50
	FillingsUpdate:  mu: +0.475515045  nElectrons: 346.000000
	SubspaceRotationAdjust: set factor to 0.296
ElecMinimize: Iter:  19  F: -1775.086763984683557  |grad|_K:  2.446e-08  alpha:  3.565e-01  linmin: -2.983e-07  t[s]:   5937.72
	FillingsUpdate:  mu: +0.475514590  nElectrons: 346.000000
	SubspaceRotationAdjust: set factor to 0.38
ElecMinimize: Iter:  20  F: -1775.086763998220704  |grad|_K:  1.661e-08  alpha:  4.273e-01  linmin:  6.862e-07  t[s]:   6058.90
	FillingsUpdate:  mu: +0.475513994  nElectrons: 346.000000
	SubspaceRotationAdjust: set factor to 0.437
ElecMinimize: Iter:  21  F: -1775.086764004376391  |grad|_K:  1.192e-08  alpha:  4.201e-01  linmin: -1.264e-06  t[s]:   6183.78
	FillingsUpdate:  mu: +0.475514256  nElectrons: 346.000000
	SubspaceRotationAdjust: set factor to 0.351
ElecMinimize: Iter:  22  F: -1775.086764006754720  |grad|_K:  1.051e-08  alpha:  3.151e-01  linmin: -9.184e-07  t[s]:   6307.51
ElecMinimize: Converged (|Delta F|<1.000000e-08 for 2 iters).
Setting wave functions to eigenvectors of Hamiltonian

# Ionic positions in cartesian coordinates:
ion Pd   2.887163462967908  -0.000000177419355   5.075957952709591 1
ion Pd  -0.000000177419355   2.887163462967908  -0.000856565612817 1
ion Pd   2.886823274492230  -0.000000177419355  15.223881094784717 1
ion Pd  -0.000000177419355   2.886823274492230  10.151629292312055 1
ion Pd   2.885771348816459   5.770475322580645   5.076199636832571 1
ion Pd  -0.000000177419355   8.653787182193383  -0.000856565612817 1
ion Pd   2.922671493880417   5.770475322580645  15.204051866232925 1
ion Pd  -0.000000177419355   8.654127370669062  10.151629292312055 1
ion Pd   8.653787182193383  -0.000000177419355   5.075957952709591 1
ion Pd   5.770475322580645   2.885771348816459  -0.001098249735799 1
ion Pd   8.654127370669062  -0.000000177419355  15.223881094784717 1
ion Pd   5.770475322580645   2.922671493880417  10.171458520863847 1
ion Pd   8.655179296344832   5.770475322580645   5.076199636832571 1
ion Pd   5.770475322580645   8.655179296344832  -0.001098249735799 1
ion Pd   8.618279151280873   5.770475322580645  15.204051866232925 1
ion Pd   5.770475322580645   8.618279151280873  10.171458520863847 1
ion O  -0.000000177419355  -0.000000177419355   7.614742211098519 1
ion O  -0.000000177419355  -0.000000177419355   2.537550693548387 1
ion O  -0.000000177419355  -0.000000177419355  17.760768175998255 1
ion O  -0.000000177419355  -0.000000177419355  12.687755193548385 1
ion O  -0.000000177419355   5.770475322580645   7.612074323070003 1
ion O  -0.000000177419355   5.770475322580645   2.537884022917382 1
ion O  -0.000000177419355   5.770475322580645  17.781648539607605 1
ion O  -0.000000177419355   5.770475322580645  12.688377383792968 1
ion O   5.770475322580645  -0.000000177419355   7.593861847489165 1
ion O   5.770475322580645  -0.000000177419355   2.537217364179392 1
ion O   5.770475322580645  -0.000000177419355  17.763436064026770 1
ion O   5.770475322580645  -0.000000177419355  12.687133003303803 1
ion O   5.770475322580645   5.770475322580645   7.623238464255004 1
ion O   5.770475322580645   5.770475322580645   2.537550693548387 1
ion O   5.770475322580645   5.770475322580645  17.752271922841768 1

# Forces in Cartesian coordinates:
force Pd   0.000839951805544  -0.000000000000000   0.000228925019685 1
force Pd   0.000000000000000   0.000839951805544  -0.000228925019685 1
force Pd   0.001446639470421   0.000000000000000  -0.001180059591099 1
force Pd   0.000000000000000   0.001446639470421   0.001180059591100 1
force Pd   0.000788185966474   0.000000000000000   0.001556688935575 1
force Pd   0.000000000000000  -0.000839951805544  -0.000228925019685 1
force Pd   0.028336745677052  -0.000000000000000  -0.018510733922238 1
force Pd   0.000000000000000  -0.001446639470421   0.001180059591100 1
force Pd  -0.000839951805544  -0.000000000000000   0.000228925019685 1
force Pd   0.000000000000000   0.000788185966474  -0.001556688935575 1
force Pd  -0.001446639470421  -0.000000000000000  -0.001180059591100 1
force Pd   0.000000000000000   0.028336745677052   0.018510733922237 1
force Pd  -0.000788185966474   0.000000000000000   0.001556688935575 1
force Pd   0.000000000000000  -0.000788185966474  -0.001556688935575 1
force Pd  -0.028336745677052  -0.000000000000000  -0.018510733922238 1
force Pd   0.000000000000000  -0.028336745677052   0.018510733922238 1
force O   0.000000000000000  -0.000000000000000   0.002061691445293 1
force O   0.000000000000000  -0.000000000000000   0.000000000000000 1
force O   0.000000000000000   0.000000000000000  -0.002061691445293 1
force O   0.000000000000000   0.000000000000000   0.000000000000000 1
force O   0.000000000000000   0.000000000000000  -0.000462892060870 1
force O   0.000000000000000   0.000000000000000   0.000430393545792 1
force O   0.000000000000000  -0.000000000000000   0.010451446822205 1
force O   0.000000000000000   0.000000000000000   0.001739570260334 1
force O   0.000000000000000   0.000000000000000  -0.010451446822205 1
force O   0.000000000000000   0.000000000000000  -0.000430393545792 1
force O   0.000000000000000   0.000000000000000   0.000462892060870 1
force O   0.000000000000000  -0.000000000000000  -0.001739570260334 1
force O   0.000000000000000  -0.000000000000000   0.009170138565404 1
force O   0.000000000000000  -0.000000000000000   0.000000000000000 1
force O   0.000000000000000   0.000000000000000  -0.009170138565404 1

# Energy components:
   Eewald =    -1339.8103595974896507
       EH =      425.7904373987142321
     Eloc =    -1003.6156238595830246
      Enl =     -194.6479494124355938
      Exc =     -304.8044946976377219
 Exc_core =       56.0959879409991515
       KE =      585.9199690607035791
-------------------------------------
     Etot =    -1775.0720331667291703
       TS =        0.0147308400254397
-------------------------------------
        F =    -1775.0867640067547200

IonicMinimize: Iter:   1  F: -1775.086764006754720  |grad|_K:  7.342e-03  alpha:  1.000e+00  linmin: -9.937e-01  t[s]:   6329.43

#--- Lowdin population analysis ---
# oxidation-state Pd +0.264 +0.264 +0.268 +0.268 +0.265 +0.264 +0.163 +0.268 +0.264 +0.265 +0.268 +0.163 +0.265 +0.265 +0.163 +0.163
# oxidation-state O -0.242 -0.249 -0.242 -0.245 -0.244 -0.246 -0.238 -0.234 -0.238 -0.246 -0.244 -0.234 -0.213 -0.245 -0.213


-------- Electronic minimization -----------
	FillingsUpdate:  mu: +0.498178968  nElectrons: 346.000000
ElecMinimize: Iter:   0  F: -1773.018811128487641  |grad|_K:  3.530e-04  alpha:  1.000e+00
	FillingsUpdate:  mu: +0.520300228  nElectrons: 346.000000
	SubspaceRotationAdjust: set factor to 0.255
ElecMinimize: Iter:   1  F: -1774.864037406835905  |grad|_K:  1.305e-04  alpha:  2.876e-01  linmin:  7.325e-03  t[s]:   6543.20
	FillingsUpdate:  mu: +0.475455878  nElectrons: 346.000000
	SubspaceRotationAdjust: set factor to 0.155
ElecMinimize: Iter:   2  F: -1775.003402662702456  |grad|_K:  4.537e-05  alpha:  1.615e-01  linmin:  2.741e-04  t[s]:   6663.68
	FillingsUpdate:  mu: +0.474367249  nElectrons: 346.000000
	SubspaceRotationAdjust: set factor to 0.227
ElecMinimize: Iter:   3  F: -1775.038151190991357  |grad|_K:  2.406e-05  alpha:  3.198e-01  linmin: -5.886e-05  t[s]:   6787.97
	FillingsUpdate:  mu: +0.475992596  nElectrons: 346.000000
	SubspaceRotationAdjust: set factor to 0.228
ElecMinimize: Iter:   4  F: -1775.054371142021409  |grad|_K:  2.378e-05  alpha:  5.255e-01  linmin: -2.504e-04  t[s]:   6904.87
	FillingsUpdate:  mu: +0.474422764  nElectrons: 346.000000
	SubspaceRotationAdjust: set factor to 0.24
ElecMinimize: Iter:   5  F: -1775.071316962644914  |grad|_K:  2.325e-05  alpha:  5.595e-01  linmin:  1.586e-04  t[s]:   7022.71
	FillingsUpdate:  mu: +0.473567497  nElectrons: 346.000000
	SubspaceRotationAdjust: set factor to 0.289
ElecMinimize: Iter:   6  F: -1775.087147230182609  |grad|_K:  1.872e-05  alpha:  5.643e-01  linmin:  1.577e-05  t[s]:   7145.92
	FillingsUpdate:  mu: +0.473988141  nElectrons: 346.000000
	SubspaceRotationAdjust: set factor to 0.311
ElecMinimize: Iter:   7  F: -1775.093556239770351  |grad|_K:  1.178e-05  alpha:  3.478e-01  linmin:  4.826e-06  t[s]:   7268.00
	FillingsUpdate:  mu: +0.474219744  nElectrons: 346.000000
	SubspaceRotationAdjust: set factor to 0.304
ElecMinimize: Iter:   8  F: -1775.096175808940188  |grad|_K:  6.971e-06  alpha:  3.565e-01  linmin:  2.072e-05  t[s]:   7390.37
	FillingsUpdate:  mu: +0.474568650  nElectrons: 346.000000
	SubspaceRotationAdjust: set factor to 0.261
ElecMinimize: Iter:   9  F: -1775.097026813097045  |grad|_K:  4.605e-06  alpha:  3.312e-01  linmin: -1.789e-05  t[s]:   7511.68
	FillingsUpdate:  mu: +0.474420832  nElectrons: 346.000000
	SubspaceRotationAdjust: set factor to 0.262
ElecMinimize: Iter:  10  F: -1775.097360800326669  |grad|_K:  2.357e-06  alpha:  2.972e-01  linmin:  9.307e-06  t[s]:   7630.77
	FillingsUpdate:  mu: +0.474428130  nElectrons: 346.000000
	SubspaceRotationAdjust: set factor to 0.304
ElecMinimize: Iter:  11  F: -1775.097482460457286  |grad|_K:  1.441e-06  alpha:  4.138e-01  linmin:  2.341e-06  t[s]:   7751.32
	FillingsUpdate:  mu: +0.474449807  nElectrons: 346.000000
	SubspaceRotationAdjust: set factor to 0.37
ElecMinimize: Iter:  12  F: -1775.097522015601726  |grad|_K:  1.012e-06  alpha:  3.598e-01  linmin:  1.164e-06  t[s]:   7872.51
	FillingsUpdate:  mu: +0.474434392  nElectrons: 346.000000
	SubspaceRotationAdjust: set factor to 0.435
ElecMinimize: Iter:  13  F: -1775.097542787023031  |grad|_K:  7.599e-07  alpha:  3.831e-01  linmin:  2.390e-06  t[s]:   7992.26
	FillingsUpdate:  mu: +0.474476399  nElectrons: 346.000000
	SubspaceRotationAdjust: set factor to 0.418
ElecMinimize: Iter:  14  F: -1775.097553377167060  |grad|_K:  6.593e-07  alpha:  3.464e-01  linmin: -1.419e-06  t[s]:   8114.60
	FillingsUpdate:  mu: +0.474452994  nElectrons: 346.000000
	SubspaceRotationAdjust: set factor to 0.366
ElecMinimize: Iter:  15  F: -1775.097560034143498  |grad|_K:  4.594e-07  alpha:  2.892e-01  linmin:  8.022e-07  t[s]:   8239.70
	FillingsUpdate:  mu: +0.474459155  nElectrons: 346.000000
	SubspaceRotationAdjust: set factor to 0.345
ElecMinimize: Iter:  16  F: -1775.097563857815430  |grad|_K:  3.328e-07  alpha:  3.423e-01  linmin: -1.057e-06  t[s]:   8362.55
	FillingsUpdate:  mu: +0.474450439  nElectrons: 346.000000
	SubspaceRotationAdjust: set factor to 0.328
ElecMinimize: Iter:  17  F: -1775.097565766038088  |grad|_K:  2.073e-07  alpha:  3.254e-01  linmin:  1.022e-07  t[s]:   8487.33
	FillingsUpdate:  mu: +0.474456539  nElectrons: 346.000000
	SubspaceRotationAdjust: set factor to 0.319
ElecMinimize: Iter:  18  F: -1775.097566606878900  |grad|_K:  1.331e-07  alpha:  3.694e-01  linmin: -2.363e-07  t[s]:   8609.44
	FillingsUpdate:  mu: +0.474451271  nElectrons: 346.000000
	SubspaceRotationAdjust: set factor to 0.333
ElecMinimize: Iter:  19  F: -1775.097566929550339  |grad|_K:  8.635e-08  alpha:  3.442e-01  linmin:  1.297e-08  t[s]:   8733.58
	FillingsUpdate:  mu: +0.474451193  nElectrons: 346.000000
	SubspaceRotationAdjust: set factor to 0.39
ElecMinimize: Iter:  20  F: -1775.097567077116537  |grad|_K:  5.731e-08  alpha:  3.738e-01  linmin:  3.017e-07  t[s]:   8857.57
	FillingsUpdate:  mu: +0.474449821  nElectrons: 346.000000
	SubspaceRotationAdjust: set factor to 0.485
ElecMinimize: Iter:  21  F: -1775.097567145109679  |grad|_K:  4.123e-08  alpha:  3.912e-01  linmin:  2.757e-07  t[s]:   8981.95
	FillingsUpdate:  mu: +0.474450282  nElectrons: 346.000000
	SubspaceRotationAdjust: set factor to 0.556
ElecMinimize: Iter:  22  F: -1775.097567179306225  |grad|_K:  3.278e-08  alpha:  3.800e-01  linmin:  4.935e-08  t[s]:   9102.62
	FillingsUpdate:  mu: +0.474448617  nElectrons: 346.000000
	SubspaceRotationAdjust: set factor to 0.492
ElecMinimize: Iter:  23  F: -1775.097567195969987  |grad|_K:  2.818e-08  alpha:  2.932e-01  linmin:  3.643e-07  t[s]:   9223.49
	FillingsUpdate:  mu: +0.474449684  nElectrons: 346.000000
	SubspaceRotationAdjust: set factor to 0.356
ElecMinimize: Iter:  24  F: -1775.097567204448524  |grad|_K:  1.969e-08  alpha:  2.025e-01  linmin:  1.945e-07  t[s]:   9345.91
	FillingsUpdate:  mu: +0.474449557  nElectrons: 346.000000
	SubspaceRotationAdjust: set factor to 0.347
ElecMinimize: Iter:  25  F: -1775.097567210591478  |grad|_K:  1.158e-08  alpha:  2.985e-01  linmin: -7.607e-07  t[s]:   9468.68
ElecMinimize: Converged (|Delta F|<1.000000e-08 for 2 iters).
Setting wave functions to eigenvectors of Hamiltonian

# Ionic positions in cartesian coordinates:
ion Pd   2.885474758446235  -0.000000177419355   5.073897521136765 1
ion Pd  -0.000000177419355   2.885474758446235   0.001203865960009 1
ion Pd   2.892272464218368  -0.000000177419355  15.220072423865705 1
ion Pd  -0.000000177419355   2.892272464218368  10.155437963231067 1
ion Pd   2.890334938495343   5.770475322580645   5.084999382949900 1
ion Pd  -0.000000177419355   8.655475886715058   0.001203865960009 1
ion Pd   2.998617446306490   5.770475322580645  15.138996410580869 1
ion Pd  -0.000000177419355   8.648678180942923  10.155437963231067 1
ion Pd   8.655475886715058  -0.000000177419355   5.073897521136765 1
ion Pd   5.770475322580645   2.890334938495343  -0.009897995853127 1
ion Pd   8.648678180942923  -0.000000177419355  15.220072423865705 1
ion Pd   5.770475322580645   2.998617446306490  10.236513976515903 1
ion Pd   8.650615706665945   5.770475322580645   5.084999382949900 1
ion Pd   5.770475322580645   8.650615706665945  -0.009897995853127 1
ion Pd   8.542333198854802   5.770475322580645  15.138996410580869 1
ion Pd   5.770475322580645   8.542333198854802  10.236513976515903 1
ion O  -0.000000177419355  -0.000000177419355   7.623331373837511 1
ion O  -0.000000177419355  -0.000000177419355   2.537550693548387 1
ion O  -0.000000177419355  -0.000000177419355  17.752179013259259 1
ion O  -0.000000177419355  -0.000000177419355  12.687755193548385 1
ion O  -0.000000177419355   5.770475322580645   7.610676207760041 1
ion O  -0.000000177419355   5.770475322580645   2.540173247371579 1
ion O  -0.000000177419355   5.770475322580645  17.785593426421446 1
ion O  -0.000000177419355   5.770475322580645  12.701130649230036 1
ion O   5.770475322580645  -0.000000177419355   7.589916960675326 1
ion O   5.770475322580645  -0.000000177419355   2.534928139725194 1
ion O   5.770475322580645  -0.000000177419355  17.764834179336731 1
ion O   5.770475322580645  -0.000000177419355  12.674379737866733 1
ion O   5.770475322580645   5.770475322580645   7.655196444546218 1
ion O   5.770475322580645   5.770475322580645   2.537550693548387 1
ion O   5.770475322580645   5.770475322580645  17.720313942550554 1

# Forces in Cartesian coordinates:
force Pd   0.001956911963414  -0.000000000000000   0.002053035991412 1
force Pd   0.000000000000000   0.001956911963414  -0.002053035991412 1
force Pd   0.000854601313623   0.000000000000000  -0.001103285418463 1
force Pd   0.000000000000000   0.000854601313623   0.001103285418462 1
force Pd   0.000454855274062  -0.000000000000000   0.001557280641111 1
force Pd   0.000000000000000  -0.001956911963414  -0.002053035991411 1
force Pd   0.012569416260163   0.000000000000000  -0.011836975189378 1
force Pd   0.000000000000000  -0.000854601313623   0.001103285418462 1
force Pd  -0.001956911963414   0.000000000000000   0.002053035991412 1
force Pd   0.000000000000000   0.000454855274062  -0.001557280641111 1
force Pd  -0.000854601313623   0.000000000000000  -0.001103285418463 1
force Pd   0.000000000000000   0.012569416260162   0.011836975189378 1
force Pd  -0.000454855274062   0.000000000000000   0.001557280641111 1
force Pd   0.000000000000000  -0.000454855274062  -0.001557280641111 1
force Pd  -0.012569416260162   0.000000000000000  -0.011836975189378 1
force Pd   0.000000000000000  -0.012569416260162   0.011836975189378 1
force O   0.000000000000000  -0.000000000000000   0.001033061583393 1
force O   0.000000000000000  -0.000000000000000   0.000000000000000 1
force O   0.000000000000000  -0.000000000000000  -0.001033061583392 1
force O   0.000000000000000   0.000000000000000   0.000000000000000 1
force O   0.000000000000000   0.000000000000000   0.000129162155526 1
force O   0.000000000000000  -0.000000000000000   0.000720354635211 1
force O   0.000000000000000   0.000000000000000   0.001626204001553 1
force O   0.000000000000000   0.000000000000000  -0.000951464131350 1
force O   0.000000000000000   0.000000000000000  -0.001626204001553 1
force O   0.000000000000000   0.000000000000000  -0.000720354635211 1
force O   0.000000000000000  -0.000000000000000  -0.000129162155526 1
force O   0.000000000000000  -0.000000000000000   0.000951464131350 1
force O   0.000000000000000  -0.000000000000000   0.006916215292150 1
force O   0.000000000000000  -0.000000000000000   0.000000000000000 1
force O   0.000000000000000  -0.000000000000000  -0.006916215292150 1

# Energy components:
   Eewald =    -1341.7860012909497982
       EH =      423.8047215583918046
     Eloc =     -999.5940293813209792
      Enl =     -194.6603751069822010
      Exc =     -304.7689052521940312
 Exc_core =       56.0959893177965654
       KE =      585.8259204570171050
-------------------------------------
     Etot =    -1775.0826796982414635
       TS =        0.0148875123500560
-------------------------------------
        F =    -1775.0975672105914782

IonicMinimize: Iter:   2  F: -1775.097567210591478  |grad|_K:  3.808e-03  alpha:  5.551e-01  linmin: -9.723e-01  t[s]:   9490.41

#--- Lowdin population analysis ---
# oxidation-state Pd +0.265 +0.265 +0.271 +0.271 +0.265 +0.265 +0.158 +0.271 +0.265 +0.265 +0.271 +0.158 +0.265 +0.265 +0.158 +0.158
# oxidation-state O -0.243 -0.249 -0.243 -0.245 -0.243 -0.245 -0.246 -0.233 -0.246 -0.245 -0.243 -0.233 -0.206 -0.245 -0.206


-------- Electronic minimization -----------
	FillingsUpdate:  mu: +0.511415088  nElectrons: 346.000000
ElecMinimize: Iter:   0  F: -1772.896926174435521  |grad|_K:  3.703e-04  alpha:  1.000e+00
	FillingsUpdate:  mu: +0.542514941  nElectrons: 346.000000
	SubspaceRotationAdjust: set factor to 0.228
ElecMinimize: Iter:   1  F: -1774.770070280946129  |grad|_K:  1.634e-04  alpha:  2.595e-01  linmin:  2.801e-03  t[s]:   9703.22
	FillingsUpdate:  mu: +0.474161250  nElectrons: 346.000000
	SubspaceRotationAdjust: set factor to 0.163
ElecMinimize: Iter:   2  F: -1774.999165402010703  |grad|_K:  4.616e-05  alpha:  1.657e-01  linmin:  1.805e-06  t[s]:   9823.04
	FillingsUpdate:  mu: +0.473422072  nElectrons: 346.000000
	SubspaceRotationAdjust: set factor to 0.236
ElecMinimize: Iter:   3  F: -1775.037312760387294  |grad|_K:  2.471e-05  alpha:  3.378e-01  linmin: -7.231e-05  t[s]:   9945.84
	FillingsUpdate:  mu: +0.474840296  nElectrons: 346.000000
	SubspaceRotationAdjust: set factor to 0.262
ElecMinimize: Iter:   4  F: -1775.055495038314348  |grad|_K:  2.507e-05  alpha:  5.589e-01  linmin: -2.055e-04  t[s]:  10067.45
	FillingsUpdate:  mu: +0.473343196  nElectrons: 346.000000
	SubspaceRotationAdjust: set factor to 0.277
ElecMinimize: Iter:   5  F: -1775.074134171448350  |grad|_K:  2.437e-05  alpha:  5.535e-01  linmin:  1.666e-04  t[s]:  10189.61
	FillingsUpdate:  mu: +0.472756489  nElectrons: 346.000000
	SubspaceRotationAdjust: set factor to 0.305
ElecMinimize: Iter:   6  F: -1775.091173399803438  |grad|_K:  1.974e-05  alpha:  5.525e-01  linmin: -6.028e-05  t[s]:  10310.91
	FillingsUpdate:  mu: +0.472567082  nElectrons: 346.000000
	SubspaceRotationAdjust: set factor to 0.338
ElecMinimize: Iter:   7  F: -1775.098331971084917  |grad|_K:  1.213e-05  alpha:  3.421e-01  linmin: -1.864e-05  t[s]:  10437.38
	FillingsUpdate:  mu: +0.473261379  nElectrons: 346.000000
	SubspaceRotationAdjust: set factor to 0.369
ElecMinimize: Iter:   8  F: -1775.101371017477732  |grad|_K:  6.539e-06  alpha:  3.890e-01  linmin: -4.050e-05  t[s]:  10564.35
	FillingsUpdate:  mu: +0.473415753  nElectrons: 346.000000
	SubspaceRotationAdjust: set factor to 0.379
ElecMinimize: Iter:   9  F: -1775.102305858366435  |grad|_K:  4.066e-06  alpha:  4.117e-01  linmin: -7.634e-06  t[s]:  10688.24
	FillingsUpdate:  mu: +0.473285478  nElectrons: 346.000000
	SubspaceRotationAdjust: set factor to 0.372
ElecMinimize: Iter:  10  F: -1775.102568513869073  |grad|_K:  2.770e-06  alpha:  3.000e-01  linmin:  5.407e-06  t[s]:  10812.74
	FillingsUpdate:  mu: +0.473420148  nElectrons: 346.000000
	SubspaceRotationAdjust: set factor to 0.31
ElecMinimize: Iter:  11  F: -1775.102690464251737  |grad|_K:  2.027e-06  alpha:  3.001e-01  linmin: -9.615e-06  t[s]:  10936.38
	FillingsUpdate:  mu: +0.473330681  nElectrons: 346.000000
	SubspaceRotationAdjust: set factor to 0.343
ElecMinimize: Iter:  12  F: -1775.102754525433738  |grad|_K:  1.273e-06  alpha:  2.944e-01  linmin:  7.111e-06  t[s]:  11057.73
	FillingsUpdate:  mu: +0.473342925  nElectrons: 346.000000
	SubspaceRotationAdjust: set factor to 0.456
ElecMinimize: Iter:  13  F: -1775.102793538938386  |grad|_K:  8.980e-07  alpha:  4.551e-01  linmin: -6.671e-06  t[s]:  11180.66
	FillingsUpdate:  mu: +0.473394410  nElectrons: 346.000000
	SubspaceRotationAdjust: set factor to 0.502
ElecMinimize: Iter:  14  F: -1775.102813434056088  |grad|_K:  7.950e-07  alpha:  4.658e-01  linmin: -8.597e-06  t[s]:  11303.88
	FillingsUpdate:  mu: +0.473346850  nElectrons: 346.000000
	SubspaceRotationAdjust: set factor to 0.386
ElecMinimize: Iter:  15  F: -1775.102821493076135  |grad|_K:  6.643e-07  alpha:  2.405e-01  linmin: -3.346e-06  t[s]:  11427.00
	FillingsUpdate:  mu: +0.473354088  nElectrons: 346.000000
	SubspaceRotationAdjust: set factor to 0.317
ElecMinimize: Iter:  16  F: -1775.102827310036673  |grad|_K:  4.077e-07  alpha:  2.488e-01  linmin: -2.682e-06  t[s]:  11550.02
	FillingsUpdate:  mu: +0.473351305  nElectrons: 346.000000
	SubspaceRotationAdjust: set factor to 0.355
ElecMinimize: Iter:  17  F: -1775.102830514193101  |grad|_K:  2.388e-07  alpha:  3.640e-01  linmin:  6.275e-07  t[s]:  11673.08
	FillingsUpdate:  mu: +0.473353390  nElectrons: 346.000000
	SubspaceRotationAdjust: set factor to 0.37
ElecMinimize: Iter:  18  F: -1775.102831688037668  |grad|_K:  1.507e-07  alpha:  3.889e-01  linmin:  3.535e-07  t[s]:  11799.99
	FillingsUpdate:  mu: +0.473357192  nElectrons: 346.000000
	SubspaceRotationAdjust: set factor to 0.34
ElecMinimize: Iter:  19  F: -1775.102832078609708  |grad|_K:  1.171e-07  alpha:  3.247e-01  linmin: -3.795e-07  t[s]:  11925.72
	FillingsUpdate:  mu: +0.473349614  nElectrons: 346.000000
	SubspaceRotationAdjust: set factor to 0.313
ElecMinimize: Iter:  20  F: -1775.102832274406865  |grad|_K:  7.536e-08  alpha:  2.699e-01  linmin:  6.050e-07  t[s]:  12050.13
	FillingsUpdate:  mu: +0.473352190  nElectrons: 346.000000
	SubspaceRotationAdjust: set factor to 0.412
ElecMinimize: Iter:  21  F: -1775.102832392413802  |grad|_K:  5.015e-08  alpha:  3.925e-01  linmin:  9.758e-07  t[s]:  12171.05
	FillingsUpdate:  mu: +0.473352664  nElectrons: 346.000000
	SubspaceRotationAdjust: set factor to 0.51
ElecMinimize: Iter:  22  F: -1775.102832450602136  |grad|_K:  3.993e-08  alpha:  4.368e-01  linmin: -2.068e-06  t[s]:  12291.74
	FillingsUpdate:  mu: +0.473350112  nElectrons: 346.000000
	SubspaceRotationAdjust: set factor to 0.437
ElecMinimize: Iter:  23  F: -1775.102832478841719  |grad|_K:  3.711e-08  alpha:  3.340e-01  linmin:  1.213e-06  t[s]:  12413.61
	FillingsUpdate:  mu: +0.473351836  nElectrons: 346.000000
	SubspaceRotationAdjust: set factor to 0.318
ElecMinimize: Iter:  24  F: -1775.102832493452979  |grad|_K:  2.526e-08  alpha:  2.011e-01  linmin: -6.660e-07  t[s]:  12536.44
	FillingsUpdate:  mu: +0.473352040  nElectrons: 346.000000
	SubspaceRotationAdjust: set factor to 0.392
ElecMinimize: Iter:  25  F: -1775.102832505062906  |grad|_K:  1.417e-08  alpha:  3.434e-01  linmin:  3.012e-06  t[s]:  12658.64
	FillingsUpdate:  mu: +0.473351724  nElectrons: 346.000000
	SubspaceRotationAdjust: set factor to 0.423
ElecMinimize: Iter:  26  F: -1775.102832509340715  |grad|_K:  1.083e-08  alpha:  4.010e-01  linmin: -2.137e-07  t[s]:  12779.09
	FillingsUpdate:  mu: +0.473352219  nElectrons: 346.000000
	SubspaceRotationAdjust: set factor to 0.364
ElecMinimize: Iter:  27  F: -1775.102832510942108  |grad|_K:  8.382e-09  alpha:  2.620e-01  linmin: -4.583e-06  t[s]:  12901.28
ElecMinimize: Converged (|Delta F|<1.000000e-08 for 2 iters).
Setting wave functions to eigenvectors of Hamiltonian

# Ionic positions in cartesian coordinates:
ion Pd   2.896901626588434  -0.000000177419355   5.087874409599451 1
ion Pd  -0.000000177419355   2.896901626588434  -0.012773022502676 1
ion Pd   2.898213066503955  -0.000000177419355  15.212478399582347 1
ion Pd  -0.000000177419355   2.898213066503955  10.163031987514428 1
ion Pd   2.894671385862640   5.770475322580645   5.098630933240030 1
ion Pd  -0.000000177419355   8.644049018572858  -0.012773022502676 1
ion Pd   3.059022919092255   5.770475322580645  15.059302126861596 1
ion Pd  -0.000000177419355   8.642737578657336  10.163031987514428 1
ion Pd   8.644049018572858  -0.000000177419355   5.087874409599451 1
ion Pd   5.770475322580645   2.894671385862640  -0.023529546143257 1
ion Pd   8.642737578657336  -0.000000177419355  15.212478399582347 1
ion Pd   5.770475322580645   3.059022919092255  10.316208260235177 1
ion Pd   8.646279259298650   5.770475322580645   5.098630933240030 1
ion Pd   5.770475322580645   8.646279259298650  -0.023529546143257 1
ion Pd   8.481927726069037   5.770475322580645  15.059302126861596 1
ion Pd   5.770475322580645   8.481927726069037  10.316208260235177 1
ion O  -0.000000177419355  -0.000000177419355   7.630943288030282 1
ion O  -0.000000177419355  -0.000000177419355   2.537550693548387 1
ion O  -0.000000177419355  -0.000000177419355  17.744567099066487 1
ion O  -0.000000177419355  -0.000000177419355  12.687755193548385 1
ion O  -0.000000177419355   5.770475322580645   7.612225042693262 1
ion O  -0.000000177419355   5.770475322580645   2.546133501764631 1
ion O  -0.000000177419355   5.770475322580645  17.766117936470017 1
ion O  -0.000000177419355   5.770475322580645  12.697187241829049 1
ion O   5.770475322580645  -0.000000177419355   7.609392450626753 1
ion O   5.770475322580645  -0.000000177419355   2.528967885332142 1
ion O   5.770475322580645  -0.000000177419355  17.763285344403510 1
ion O   5.770475322580645  -0.000000177419355  12.678323145267722 1
ion O   5.770475322580645   5.770475322580645   7.702820463761050 1
ion O   5.770475322580645   5.770475322580645   2.537550693548387 1
ion O   5.770475322580645   5.770475322580645  17.672689923335721 1

# Forces in Cartesian coordinates:
force Pd  -0.000729315606163  -0.000000000000000   0.000722147535323 1
force Pd   0.000000000000000  -0.000729315606163  -0.000722147535323 1
force Pd  -0.000797810021439   0.000000000000000   0.000818354964398 1
force Pd   0.000000000000000  -0.000797810021439  -0.000818354964398 1
force Pd   0.000829097647922  -0.000000000000000   0.001403645698778 1
force Pd   0.000000000000000   0.000729315606163  -0.000722147535323 1
force Pd   0.001253160401220   0.000000000000000  -0.005857806839016 1
force Pd   0.000000000000000   0.000797810021439  -0.000818354964398 1
force Pd   0.000729315606163  -0.000000000000000   0.000722147535323 1
force Pd   0.000000000000000   0.000829097647922  -0.001403645698778 1
force Pd   0.000797810021439   0.000000000000000   0.000818354964398 1
force Pd   0.000000000000000   0.001253160401220   0.005857806839016 1
force Pd  -0.000829097647922  -0.000000000000000   0.001403645698778 1
force Pd   0.000000000000000  -0.000829097647922  -0.001403645698778 1
force Pd  -0.001253160401220   0.000000000000000  -0.005857806839016 1
force Pd   0.000000000000000  -0.001253160401220   0.005857806839016 1
force O   0.000000000000000   0.000000000000000   0.001280947735725 1
force O   0.000000000000000   0.000000000000000   0.000000000000000 1
force O   0.000000000000000   0.000000000000000  -0.001280947735725 1
force O   0.000000000000000   0.000000000000000   0.000000000000000 1
force O   0.000000000000000   0.000000000000000   0.000762720318834 1
force O   0.000000000000000   0.000000000000000  -0.000352745433450 1
force O   0.000000000000000   0.000000000000000  -0.003733070529482 1
force O   0.000000000000000   0.000000000000000  -0.002697343336773 1
force O   0.000000000000000  -0.000000000000000   0.003733070529482 1
force O   0.000000000000000  -0.000000000000000   0.000352745433450 1
force O   0.000000000000000   0.000000000000000  -0.000762720318834 1
force O   0.000000000000000   0.000000000000000   0.002697343336773 1
force O   0.000000000000000   0.000000000000000   0.003824065607644 1
force O   0.000000000000000  -0.000000000000000   0.000000000000000 1
force O   0.000000000000000   0.000000000000000  -0.003824065607644 1

# Energy components:
   Eewald =    -1343.3057896581065052
       EH =      422.2704327695921052
     Eloc =     -996.4879209933061475
      Enl =     -194.6690742455926397
      Exc =     -304.7396050227948763
 Exc_core =       56.0959870125242901
       KE =      585.7482718461826607
-------------------------------------
     Etot =    -1775.0876982915008284
       TS =        0.0151342194411655
-------------------------------------
        F =    -1775.1028325109421075

IonicMinimize: Iter:   3  F: -1775.102832510942108  |grad|_K:  1.606e-03  alpha:  7.638e-01  linmin: -8.169e-01  t[s]:  12923.69

#--- Lowdin population analysis ---
# oxidation-state Pd +0.265 +0.265 +0.273 +0.273 +0.265 +0.265 +0.154 +0.273 +0.265 +0.265 +0.273 +0.154 +0.265 +0.265 +0.154 +0.154
# oxidation-state O -0.244 -0.254 -0.244 -0.246 -0.242 -0.245 -0.250 -0.231 -0.250 -0.245 -0.242 -0.231 -0.202 -0.245 -0.202


-------- Electronic minimization -----------
	FillingsUpdate:  mu: +0.502722494  nElectrons: 346.000000
ElecMinimize: Iter:   0  F: -1773.612755031653705  |grad|_K:  3.051e-04  alpha:  1.000e+00
	FillingsUpdate:  mu: +0.529865445  nElectrons: 346.000000
	SubspaceRotationAdjust: set factor to 0.236
ElecMinimize: Iter:   1  F: -1774.839582752558272  |grad|_K:  1.448e-04  alpha:  2.466e-01  linmin: -9.067e-04  t[s]:  13133.98
	FillingsUpdate:  mu: +0.472425312  nElectrons: 346.000000
	SubspaceRotationAdjust: set factor to 0.164
ElecMinimize: Iter:   2  F: -1775.026203786977703  |grad|_K:  4.052e-05  alpha:  1.676e-01  linmin: -8.691e-05  t[s]:  13257.25
	FillingsUpdate:  mu: +0.472488695  nElectrons: 346.000000
	SubspaceRotationAdjust: set factor to 0.258
ElecMinimize: Iter:   3  F: -1775.056633394818846  |grad|_K:  2.185e-05  alpha:  3.492e-01  linmin: -1.163e-04  t[s]:  13379.57
	FillingsUpdate:  mu: +0.473340593  nElectrons: 346.000000
	SubspaceRotationAdjust: set factor to 0.307
ElecMinimize: Iter:   4  F: -1775.070674716169833  |grad|_K:  2.167e-05  alpha:  5.524e-01  linmin: -1.116e-04  t[s]:  13504.12
	FillingsUpdate:  mu: +0.472513801  nElectrons: 346.000000
	SubspaceRotationAdjust: set factor to 0.337
ElecMinimize: Iter:   5  F: -1775.083907181323639  |grad|_K:  2.115e-05  alpha:  5.285e-01  linmin:  1.427e-04  t[s]:  13624.88
	FillingsUpdate:  mu: +0.472907770  nElectrons: 346.000000
	SubspaceRotationAdjust: set factor to 0.316
ElecMinimize: Iter:   6  F: -1775.095336587894735  |grad|_K:  1.839e-05  alpha:  4.912e-01  linmin: -1.282e-04  t[s]:  13748.46
	FillingsUpdate:  mu: +0.471900717  nElectrons: 346.000000
	SubspaceRotationAdjust: set factor to 0.264
ElecMinimize: Iter:   7  F: -1775.100797209385519  |grad|_K:  1.078e-05  alpha:  2.950e-01  linmin: -5.170e-05  t[s]:  13869.82
	FillingsUpdate:  mu: +0.472570026  nElectrons: 346.000000
	SubspaceRotationAdjust: set factor to 0.229
ElecMinimize: Iter:   8  F: -1775.103249235663498  |grad|_K:  6.297e-06  alpha:  3.953e-01  linmin: -1.048e-04  t[s]:  13989.17
	FillingsUpdate:  mu: +0.472449929  nElectrons: 346.000000
	SubspaceRotationAdjust: set factor to 0.221
ElecMinimize: Iter:   9  F: -1775.103990699993801  |grad|_K:  3.825e-06  alpha:  3.505e-01  linmin:  1.054e-05  t[s]:  14113.12
	FillingsUpdate:  mu: +0.472476115  nElectrons: 346.000000
	SubspaceRotationAdjust: set factor to 0.28
ElecMinimize: Iter:  10  F: -1775.104260755138966  |grad|_K:  2.040e-06  alpha:  3.488e-01  linmin: -1.741e-06  t[s]:  14232.59
	FillingsUpdate:  mu: +0.472529712  nElectrons: 346.000000
	SubspaceRotationAdjust: set factor to 0.312
ElecMinimize: Iter:  11  F: -1775.104361267141257  |grad|_K:  1.499e-06  alpha:  4.559e-01  linmin: -1.141e-05  t[s]:  14354.96
	FillingsUpdate:  mu: +0.472452524  nElectrons: 346.000000
	SubspaceRotationAdjust: set factor to 0.297
ElecMinimize: Iter:  12  F: -1775.104406286665380  |grad|_K:  1.278e-06  alpha:  3.782e-01  linmin:  5.178e-06  t[s]:  14477.55
	FillingsUpdate:  mu: +0.472525937  nElectrons: 346.000000
	SubspaceRotationAdjust: set factor to 0.335
ElecMinimize: Iter:  13  F: -1775.104441832498424  |grad|_K:  1.001e-06  alpha:  4.110e-01  linmin: -1.217e-05  t[s]:  14600.78
	FillingsUpdate:  mu: +0.472519336  nElectrons: 346.000000
	SubspaceRotationAdjust: set factor to 0.393
ElecMinimize: Iter:  14  F: -1775.104469089287022  |grad|_K:  8.080e-07  alpha:  5.131e-01  linmin: -1.597e-06  t[s]:  14724.74
	FillingsUpdate:  mu: +0.472508814  nElectrons: 346.000000
	SubspaceRotationAdjust: set factor to 0.439
ElecMinimize: Iter:  15  F: -1775.104483789842789  |grad|_K:  5.847e-07  alpha:  4.251e-01  linmin: -1.310e-07  t[s]:  14847.42
	FillingsUpdate:  mu: +0.472513177  nElectrons: 346.000000
	SubspaceRotationAdjust: set factor to 0.427
ElecMinimize: Iter:  16  F: -1775.104491193995045  |grad|_K:  4.025e-07  alpha:  4.090e-01  linmin: -1.233e-06  t[s]:  14970.82
	FillingsUpdate:  mu: +0.472492085  nElectrons: 346.000000
	SubspaceRotationAdjust: set factor to 0.321
ElecMinimize: Iter:  17  F: -1775.104493400400770  |grad|_K:  3.282e-07  alpha:  2.571e-01  linmin: -3.831e-08  t[s]:  15094.99
	FillingsUpdate:  mu: +0.472506840  nElectrons: 346.000000
	SubspaceRotationAdjust: set factor to 0.299
ElecMinimize: Iter:  18  F: -1775.104494819389629  |grad|_K:  1.836e-07  alpha:  2.489e-01  linmin: -2.876e-07  t[s]:  15219.39
	FillingsUpdate:  mu: +0.472503552  nElectrons: 346.000000
	SubspaceRotationAdjust: set factor to 0.42
ElecMinimize: Iter:  19  F: -1775.104495537557113  |grad|_K:  1.234e-07  alpha:  4.024e-01  linmin: -4.956e-07  t[s]:  15341.81
	FillingsUpdate:  mu: +0.472497190  nElectrons: 346.000000
	SubspaceRotationAdjust: set factor to 0.355
ElecMinimize: Iter:  20  F: -1775.104495832794100  |grad|_K:  1.106e-07  alpha:  3.664e-01  linmin:  6.029e-07  t[s]:  15465.63
	FillingsUpdate:  mu: +0.472502954  nElectrons: 346.000000
	SubspaceRotationAdjust: set factor to 0.334
ElecMinimize: Iter:  21  F: -1775.104496003270469  |grad|_K:  8.588e-08  alpha:  2.632e-01  linmin:  2.705e-07  t[s]:  15586.34
	FillingsUpdate:  mu: +0.472500677  nElectrons: 346.000000
	SubspaceRotationAdjust: set factor to 0.41
ElecMinimize: Iter:  22  F: -1775.104496154116532  |grad|_K:  6.078e-08  alpha:  3.861e-01  linmin: -8.912e-07  t[s]:  15712.17
	FillingsUpdate:  mu: +0.472498692  nElectrons: 346.000000
	SubspaceRotationAdjust: set factor to 0.448
ElecMinimize: Iter:  23  F: -1775.104496231033181  |grad|_K:  5.148e-08  alpha:  3.934e-01  linmin: -8.587e-08  t[s]:  15837.39
	FillingsUpdate:  mu: +0.472501890  nElectrons: 346.000000
	SubspaceRotationAdjust: set factor to 0.336
ElecMinimize: Iter:  24  F: -1775.104496266073511  |grad|_K:  4.258e-08  alpha:  2.494e-01  linmin:  1.770e-06  t[s]:  15962.23
	FillingsUpdate:  mu: +0.472500998  nElectrons: 346.000000
	SubspaceRotationAdjust: set factor to 0.344
ElecMinimize: Iter:  25  F: -1775.104496291801070  |grad|_K:  2.281e-08  alpha:  2.684e-01  linmin: -1.109e-06  t[s]:  16088.82
	FillingsUpdate:  mu: +0.472500941  nElectrons: 346.000000
	SubspaceRotationAdjust: set factor to 0.441
ElecMinimize: Iter:  26  F: -1775.104496303881433  |grad|_K:  1.579e-08  alpha:  4.388e-01  linmin:  9.702e-06  t[s]:  16210.76
	FillingsUpdate:  mu: +0.472501806  nElectrons: 346.000000
	SubspaceRotationAdjust: set factor to 0.373
ElecMinimize: Iter:  27  F: -1775.104496308194712  |grad|_K:  1.396e-08  alpha:  3.324e-01  linmin: -3.457e-06  t[s]:  16336.99
	FillingsUpdate:  mu: +0.472501255  nElectrons: 346.000000
	SubspaceRotationAdjust: set factor to 0.343
ElecMinimize: Iter:  28  F: -1775.104496310840204  |grad|_K:  9.695e-09  alpha:  2.503e-01  linmin: -2.077e-09  t[s]:  16464.85
ElecMinimize: Converged (|Delta F|<1.000000e-08 for 2 iters).
Setting wave functions to eigenvectors of Hamiltonian

# Ionic positions in cartesian coordinates:
ion Pd   2.891883861323602  -0.000000177419355   5.097311110203144 1
ion Pd  -0.000000177419355   2.891883861323602  -0.022209723106370 1
ion Pd   2.891895622271826  -0.000000177419355  15.218790790757486 1
ion Pd  -0.000000177419355   2.891895622271826  10.156719596339288 1
ion Pd   2.903741953194743   5.770475322580645   5.115175159798723 1
ion Pd  -0.000000177419355   8.649066783837689  -0.022209723106370 1
ion Pd   3.087692235521642   5.770475322580645  14.983910912542484 1
ion Pd  -0.000000177419355   8.649055022889465  10.156719596339288 1
ion Pd   8.649066783837689  -0.000000177419355   5.097311110203144 1
ion Pd   5.770475322580645   2.903741953194743  -0.040073772701950 1
ion Pd   8.649055022889465  -0.000000177419355  15.218790790757486 1
ion Pd   5.770475322580645   3.087692235521642  10.391599474554289 1
ion Pd   8.637208691966546   5.770475322580645   5.115175159798723 1
ion Pd   5.770475322580645   8.637208691966546  -0.040073772701950 1
ion Pd   8.453258409639648   5.770475322580645  14.983910912542484 1
ion Pd   5.770475322580645   8.453258409639648  10.391599474554289 1
ion O  -0.000000177419355  -0.000000177419355   7.645261677277664 1
ion O  -0.000000177419355  -0.000000177419355   2.537550693548387 1
ion O  -0.000000177419355  -0.000000177419355  17.730248709819104 1
ion O  -0.000000177419355  -0.000000177419355  12.687755193548385 1
ion O  -0.000000177419355   5.770475322580645   7.619796156969692 1
ion O  -0.000000177419355   5.770475322580645   2.543911318952650 1
ion O  -0.000000177419355   5.770475322580645  17.727591708267834 1
ion O  -0.000000177419355   5.770475322580645  12.671010225399224 1
ion O   5.770475322580645  -0.000000177419355   7.647918678828938 1
ion O   5.770475322580645  -0.000000177419355   2.531190068144124 1
ion O   5.770475322580645  -0.000000177419355  17.755714230127079 1
ion O   5.770475322580645  -0.000000177419355  12.704500161697547 1
ion O   5.770475322580645   5.770475322580645   7.750552799799244 1
ion O   5.770475322580645   5.770475322580645   2.537550693548387 1
ion O   5.770475322580645   5.770475322580645  17.624957587297526 1

# Forces in Cartesian coordinates:
force Pd   0.002661924436480   0.000000000000000   0.001907182049436 1
force Pd   0.000000000000000   0.002661924436480  -0.001907182049436 1
force Pd   0.000895526176466  -0.000000000000000  -0.000114781535578 1
force Pd   0.000000000000000   0.000895526176466   0.000114781535578 1
force Pd  -0.000941589785453   0.000000000000000   0.000237844002181 1
force Pd   0.000000000000000  -0.002661924436480  -0.001907182049436 1
force Pd  -0.003611476840292   0.000000000000000  -0.000579812980662 1
force Pd   0.000000000000000  -0.000895526176466   0.000114781535578 1
force Pd  -0.002661924436480  -0.000000000000000   0.001907182049436 1
force Pd   0.000000000000000  -0.000941589785453  -0.000237844002181 1
force Pd  -0.000895526176466   0.000000000000000  -0.000114781535578 1
force Pd   0.000000000000000  -0.003611476840292   0.000579812980662 1
force Pd   0.000941589785453   0.000000000000000   0.000237844002181 1
force Pd   0.000000000000000   0.000941589785453  -0.000237844002181 1
force Pd   0.003611476840292   0.000000000000000  -0.000579812980662 1
force Pd   0.000000000000000   0.003611476840292   0.000579812980662 1
force O   0.000000000000000   0.000000000000000  -0.001429888506702 1
force O   0.000000000000000  -0.000000000000000   0.000000000000000 1
force O   0.000000000000000   0.000000000000000   0.001429888506702 1
force O   0.000000000000000   0.000000000000000   0.000000000000000 1
force O   0.000000000000000  -0.000000000000000  -0.000751504520939 1
force O   0.000000000000000  -0.000000000000000  -0.000075366664556 1
force O   0.000000000000000   0.000000000000000  -0.002527208414692 1
force O   0.000000000000000   0.000000000000000  -0.003978754023361 1
force O   0.000000000000000   0.000000000000000   0.002527208414692 1
force O   0.000000000000000   0.000000000000000   0.000075366664556 1
force O   0.000000000000000   0.000000000000000   0.000751504520939 1
force O   0.000000000000000   0.000000000000000   0.003978754023361 1
force O   0.000000000000000  -0.000000000000000   0.002903538176704 1
force O   0.000000000000000   0.000000000000000   0.000000000000000 1
force O   0.000000000000000   0.000000000000000  -0.002903538176704 1

# Energy components:
   Eewald =    -1344.0480459008465459
       EH =      421.5177262141696701
     Eloc =     -994.9544403780791981
      Enl =     -194.6756586076745066
      Exc =     -304.7188772548746556
 Exc_core =       56.0959867281929405
       KE =      585.6941243952552441
-------------------------------------
     Etot =    -1775.0891848038572789
       TS =        0.0153115069830150
-------------------------------------
        F =    -1775.1044963108402044

IonicMinimize: Iter:   4  F: -1775.104496310840204  |grad|_K:  1.352e-03  alpha:  1.000e+00  linmin: -1.437e-01  t[s]:  16486.33

#--- Lowdin population analysis ---
# oxidation-state Pd +0.265 +0.265 +0.277 +0.277 +0.265 +0.265 +0.151 +0.277 +0.265 +0.265 +0.277 +0.151 +0.265 +0.265 +0.151 +0.151
# oxidation-state O -0.242 -0.252 -0.242 -0.248 -0.241 -0.245 -0.254 -0.229 -0.254 -0.245 -0.241 -0.229 -0.201 -0.244 -0.201


-------- Electronic minimization -----------
	FillingsUpdate:  mu: +0.486991595  nElectrons: 346.000000
ElecMinimize: Iter:   0  F: -1774.482734821732947  |grad|_K:  1.942e-04  alpha:  1.000e+00
	FillingsUpdate:  mu: +0.497635660  nElectrons: 346.000000
	SubspaceRotationAdjust: set factor to 0.221
ElecMinimize: Iter:   1  F: -1774.985336308995556  |grad|_K:  9.178e-05  alpha:  2.506e-01  linmin: -8.291e-04  t[s]:  16699.92
	FillingsUpdate:  mu: +0.472009911  nElectrons: 346.000000
	SubspaceRotationAdjust: set factor to 0.158
ElecMinimize: Iter:   2  F: -1775.066648566471486  |grad|_K:  2.746e-05  alpha:  1.812e-01  linmin:  4.300e-06  t[s]:  16822.48
	FillingsUpdate:  mu: +0.472144156  nElectrons: 346.000000
	SubspaceRotationAdjust: set factor to 0.237
ElecMinimize: Iter:   3  F: -1775.081171455070034  |grad|_K:  1.580e-05  alpha:  3.635e-01  linmin: -3.994e-05  t[s]:  16946.37
	FillingsUpdate:  mu: +0.472633582  nElectrons: 346.000000
	SubspaceRotationAdjust: set factor to 0.294
ElecMinimize: Iter:   4  F: -1775.088178396056264  |grad|_K:  1.476e-05  alpha:  5.295e-01  linmin: -2.999e-05  t[s]:  17069.43
	FillingsUpdate:  mu: +0.472155866  nElectrons: 346.000000
	SubspaceRotationAdjust: set factor to 0.34
ElecMinimize: Iter:   5  F: -1775.094453862119053  |grad|_K:  1.423e-05  alpha:  5.435e-01  linmin:  4.707e-05  t[s]:  17194.60
	FillingsUpdate:  mu: +0.472710798  nElectrons: 346.000000
	SubspaceRotationAdjust: set factor to 0.324
ElecMinimize: Iter:   6  F: -1775.100458138842441  |grad|_K:  1.263e-05  alpha:  5.622e-01  linmin: -6.353e-05  t[s]:  17315.12
	FillingsUpdate:  mu: +0.472058875  nElectrons: 346.000000
	SubspaceRotationAdjust: set factor to 0.251
ElecMinimize: Iter:   7  F: -1775.102939061134748  |grad|_K:  7.909e-06  alpha:  2.896e-01  linmin: -3.771e-05  t[s]:  17437.80
	FillingsUpdate:  mu: +0.472353714  nElectrons: 346.000000
	SubspaceRotationAdjust: set factor to 0.2
ElecMinimize: Iter:   8  F: -1775.104183716131729  |grad|_K:  4.669e-06  alpha:  3.742e-01  linmin: -3.742e-05  t[s]:  17558.72
	FillingsUpdate:  mu: +0.472261280  nElectrons: 346.000000
	SubspaceRotationAdjust: set factor to 0.19
ElecMinimize: Iter:   9  F: -1775.104580365755737  |grad|_K:  2.695e-06  alpha:  3.428e-01  linmin:  3.847e-06  t[s]:  17682.98
	FillingsUpdate:  mu: +0.472269073  nElectrons: 346.000000
	SubspaceRotationAdjust: set factor to 0.236
ElecMinimize: Iter:  10  F: -1775.104714027660293  |grad|_K:  1.476e-06  alpha:  3.476e-01  linmin:  7.343e-07  t[s]:  17807.40
	FillingsUpdate:  mu: +0.472317359  nElectrons: 346.000000
	SubspaceRotationAdjust: set factor to 0.256
ElecMinimize: Iter:  11  F: -1775.104761088137138  |grad|_K:  1.008e-06  alpha:  4.080e-01  linmin: -7.653e-06  t[s]:  17930.91
	FillingsUpdate:  mu: +0.472272861  nElectrons: 346.000000
	SubspaceRotationAdjust: set factor to 0.291
ElecMinimize: Iter:  12  F: -1775.104782482810151  |grad|_K:  7.838e-07  alpha:  3.978e-01  linmin:  2.735e-06  t[s]:  18056.17
	FillingsUpdate:  mu: +0.472299748  nElectrons: 346.000000
	SubspaceRotationAdjust: set factor to 0.384
ElecMinimize: Iter:  13  F: -1775.104799636498683  |grad|_K:  6.706e-07  alpha:  5.274e-01  linmin: -2.326e-06  t[s]:  18180.91
	FillingsUpdate:  mu: +0.472307125  nElectrons: 346.000000
	SubspaceRotationAdjust: set factor to 0.469
ElecMinimize: Iter:  14  F: -1775.104813298831232  |grad|_K:  5.956e-07  alpha:  5.736e-01  linmin: -1.380e-06  t[s]:  18303.80
	FillingsUpdate:  mu: +0.472273414  nElectrons: 346.000000
	SubspaceRotationAdjust: set factor to 0.393
ElecMinimize: Iter:  15  F: -1775.104819780087382  |grad|_K:  5.848e-07  alpha:  3.448e-01  linmin: -8.842e-07  t[s]:  18428.15
	FillingsUpdate:  mu: +0.472298110  nElectrons: 346.000000
	SubspaceRotationAdjust: set factor to 0.261
ElecMinimize: Iter:  16  F: -1775.104823642619749  |grad|_K:  3.328e-07  alpha:  2.133e-01  linmin:  2.619e-07  t[s]:  18551.92
	FillingsUpdate:  mu: +0.472293379  nElectrons: 346.000000
	SubspaceRotationAdjust: set factor to 0.295
ElecMinimize: Iter:  17  F: -1775.104825850449060  |grad|_K:  1.947e-07  alpha:  3.764e-01  linmin:  2.164e-07  t[s]:  18674.32
	FillingsUpdate:  mu: +0.472289166  nElectrons: 346.000000
	SubspaceRotationAdjust: set factor to 0.342
ElecMinimize: Iter:  18  F: -1775.104826694515623  |grad|_K:  1.251e-07  alpha:  4.204e-01  linmin:  1.208e-06  t[s]:  18799.22
	FillingsUpdate:  mu: +0.472292265  nElectrons: 346.000000
	SubspaceRotationAdjust: set factor to 0.33
ElecMinimize: Iter:  19  F: -1775.104827023732014  |grad|_K:  9.643e-08  alpha:  3.976e-01  linmin:  1.112e-06  t[s]:  18923.90
	FillingsUpdate:  mu: +0.472287440  nElectrons: 346.000000
	SubspaceRotationAdjust: set factor to 0.317
ElecMinimize: Iter:  20  F: -1775.104827202387924  |grad|_K:  8.233e-08  alpha:  3.629e-01  linmin: -1.418e-06  t[s]:  19047.28
	FillingsUpdate:  mu: +0.472290830  nElectrons: 346.000000
	SubspaceRotationAdjust: set factor to 0.365
ElecMinimize: Iter:  21  F: -1775.104827338577252  |grad|_K:  6.501e-08  alpha:  3.794e-01  linmin: -7.891e-07  t[s]:  19167.11
	FillingsUpdate:  mu: +0.472289522  nElectrons: 346.000000
	SubspaceRotationAdjust: set factor to 0.421
ElecMinimize: Iter:  22  F: -1775.104827447208891  |grad|_K:  4.873e-08  alpha:  4.854e-01  linmin: -2.355e-07  t[s]:  19288.99
	FillingsUpdate:  mu: +0.472289485  nElectrons: 346.000000
	SubspaceRotationAdjust: set factor to 0.453
ElecMinimize: Iter:  23  F: -1775.104827513124292  |grad|_K:  3.558e-08  alpha:  5.243e-01  linmin:  1.715e-06  t[s]:  19414.47
	FillingsUpdate:  mu: +0.472290796  nElectrons: 346.000000
	SubspaceRotationAdjust: set factor to 0.45
ElecMinimize: Iter:  24  F: -1775.104827538360269  |grad|_K:  2.681e-08  alpha:  3.768e-01  linmin: -8.962e-07  t[s]:  19537.18
	FillingsUpdate:  mu: +0.472289704  nElectrons: 346.000000
	SubspaceRotationAdjust: set factor to 0.364
ElecMinimize: Iter:  25  F: -1775.104827548135745  |grad|_K:  2.243e-08  alpha:  2.553e-01  linmin:  2.896e-06  t[s]:  19658.98
	FillingsUpdate:  mu: +0.472290691  nElectrons: 346.000000
	SubspaceRotationAdjust: set factor to 0.385
ElecMinimize: Iter:  26  F: -1775.104827554747544  |grad|_K:  1.298e-08  alpha:  2.466e-01  linmin: -1.601e-05  t[s]:  19780.11
ElecMinimize: Converged (|Delta F|<1.000000e-08 for 2 iters).
Setting wave functions to eigenvectors of Hamiltonian

# Ionic positions in cartesian coordinates:
ion Pd   2.914108048911351  -0.000000177419355   5.116975663037803 1
ion Pd  -0.000000177419355   2.914108048911351  -0.041874275941030 1
ion Pd   2.898510838120901  -0.000000177419355  15.219921203357254 1
ion Pd  -0.000000177419355   2.898510838120901  10.155589183739519 1
ion Pd   2.898572678958006   5.770475322580645   5.123309450015406 1
ion Pd  -0.000000177419355   8.626842596249940  -0.041874275941030 1
ion Pd   3.084746988828954   5.770475322580645  14.942602780888601 1
ion Pd  -0.000000177419355   8.642439807040390  10.155589183739519 1
ion Pd   8.626842596249940  -0.000000177419355   5.116975663037803 1
ion Pd   5.770475322580645   2.898572678958006  -0.048208062918633 1
ion Pd   8.642439807040390  -0.000000177419355  15.219921203357254 1
ion Pd   5.770475322580645   3.084746988828954  10.432907606208172 1
ion Pd   8.642377966203282   5.770475322580645   5.123309450015406 1
ion Pd   5.770475322580645   8.642377966203282  -0.048208062918633 1
ion Pd   8.456203656332336   5.770475322580645  14.942602780888601 1
ion Pd   5.770475322580645   8.456203656332336  10.432907606208172 1
ion O  -0.000000177419355  -0.000000177419355   7.638331820656796 1
ion O  -0.000000177419355  -0.000000177419355   2.537550693548387 1
ion O  -0.000000177419355  -0.000000177419355  17.737178566439972 1
ion O  -0.000000177419355  -0.000000177419355  12.687755193548385 1
ion O  -0.000000177419355   5.770475322580645   7.614971572982655 1
ion O  -0.000000177419355   5.770475322580645   2.542016881278337 1
ion O  -0.000000177419355   5.770475322580645  17.702535849060887 1
ion O  -0.000000177419355   5.770475322580645  12.626419021052104 1
ion O   5.770475322580645  -0.000000177419355   7.672974538035885 1
[...]
ion Pd   5.770475322580645   8.474825334633330  10.433174614660901 1
ion O  -0.000000177419355  -0.000000177419355   7.634033249911079 1
ion O  -0.000000177419355  -0.000000177419355   2.537550693548387 1
ion O  -0.000000177419355  -0.000000177419355  17.741477137185687 1
ion O  -0.000000177419355  -0.000000177419355  12.687755193548385 1
ion O  -0.000000177419355   5.770475322580645   7.606196095346713 1
ion O  -0.000000177419355   5.770475322580645   2.535784033803237 1
ion O  -0.000000177419355   5.770475322580645  17.681747735457829 1
ion O  -0.000000177419355   5.770475322580645  12.616408353256277 1
ion O   5.770475322580645  -0.000000177419355   7.693762651638941 1
ion O   5.770475322580645  -0.000000177419355   2.539317353293537 1
ion O   5.770475322580645  -0.000000177419355  17.769314291750060 1
ion O   5.770475322580645  -0.000000177419355  12.759102033840493 1
ion O   5.770475322580645   5.770475322580645   7.808182190093739 1
ion O   5.770475322580645   5.770475322580645   2.537550693548387 1
ion O   5.770475322580645   5.770475322580645  17.567328197003029 1

# Forces in Cartesian coordinates:
force Pd   0.000077262664053  -0.000000000000000   0.000066817740352 1
force Pd   0.000000000000000   0.000077262664053  -0.000066817740352 1
force Pd   0.000202223770937   0.000000000000000   0.000127220131134 1
force Pd   0.000000000000000   0.000202223770937  -0.000127220131134 1
force Pd   0.000017661876854  -0.000000000000000  -0.000187114777070 1
force Pd   0.000000000000000  -0.000077262664053  -0.000066817740352 1
force Pd   0.000094997229408  -0.000000000000000  -0.000053127920785 1
force Pd   0.000000000000000  -0.000202223770937  -0.000127220131134 1
force Pd  -0.000077262664053   0.000000000000000   0.000066817740352 1
force Pd   0.000000000000000   0.000017661876854   0.000187114777070 1
force Pd  -0.000202223770937   0.000000000000000   0.000127220131134 1
force Pd   0.000000000000000   0.000094997229408   0.000053127920785 1
force Pd  -0.000017661876854   0.000000000000000  -0.000187114777070 1
force Pd   0.000000000000000  -0.000017661876854   0.000187114777070 1
force Pd  -0.000094997229408  -0.000000000000000  -0.000053127920785 1
force Pd   0.000000000000000  -0.000094997229408   0.000053127920785 1
force O   0.000000000000000  -0.000000000000000  -0.000351909931840 1
force O   0.000000000000000  -0.000000000000000   0.000000000000000 1
force O   0.000000000000000   0.000000000000000   0.000351909931840 1
force O   0.000000000000000   0.000000000000000   0.000000000000000 1
force O   0.000000000000000   0.000000000000000  -0.000286367716946 1
force O   0.000000000000000   0.000000000000000  -0.000012077822097 1
force O   0.000000000000000  -0.000000000000000   0.000018762769242 1
force O   0.000000000000000  -0.000000000000000  -0.000189820912997 1
force O   0.000000000000000   0.000000000000000  -0.000018762769242 1
force O   0.000000000000000   0.000000000000000   0.000012077822097 1
force O   0.000000000000000   0.000000000000000   0.000286367716946 1
force O   0.000000000000000  -0.000000000000000   0.000189820912997 1
force O   0.000000000000000   0.000000000000000  -0.000079598986911 1
force O   0.000000000000000   0.000000000000000   0.000000000000000 1
force O   0.000000000000000   0.000000000000000   0.000079598986911 1

# Energy components:
   Eewald =    -1344.2302753504920929
       EH =      421.3491609920386054
     Eloc =     -994.5963305768874534
      Enl =     -194.6797477843618367
      Exc =     -304.7153708195023114
 Exc_core =       56.0959862410485428
       KE =      585.6863648778156630
-------------------------------------
     Etot =    -1775.0902124203407766
       TS =        0.0151347179442863
-------------------------------------
        F =    -1775.1053471382849693

IonicMinimize: Iter:   8  F: -1775.105347138284969  |grad|_K:  1.014e-04  alpha:  1.000e+00  linmin: -4.170e-01  t[s]:  25091.37

#--- Lowdin population analysis ---
# oxidation-state Pd +0.264 +0.264 +0.277 +0.277 +0.264 +0.264 +0.152 +0.277 +0.264 +0.264 +0.277 +0.152 +0.264 +0.264 +0.152 +0.152
# oxidation-state O -0.240 -0.254 -0.240 -0.251 -0.239 -0.245 -0.254 -0.226 -0.254 -0.245 -0.239 -0.226 -0.205 -0.243 -0.205


-------- Electronic minimization -----------
	FillingsUpdate:  mu: +0.472469489  nElectrons: 346.000000
ElecMinimize: Iter:   0  F: -1775.105338775131713  |grad|_K:  5.409e-07  alpha:  1.000e+00
	FillingsUpdate:  mu: +0.472462176  nElectrons: 346.000000
	SubspaceRotationAdjust: set factor to 0.348
ElecMinimize: Iter:   1  F: -1775.105344843510693  |grad|_K:  2.489e-07  alpha:  3.918e-01  linmin: -2.492e-07  t[s]:  25315.22
	FillingsUpdate:  mu: +0.472471794  nElectrons: 346.000000
	SubspaceRotationAdjust: set factor to 0.275
ElecMinimize: Iter:   2  F: -1775.105346113915402  |grad|_K:  2.264e-07  alpha:  3.874e-01  linmin: -2.861e-07  t[s]:  25437.78
	FillingsUpdate:  mu: +0.472460601  nElectrons: 346.000000
	SubspaceRotationAdjust: set factor to 0.253
ElecMinimize: Iter:   3  F: -1775.105347254072058  |grad|_K:  2.012e-07  alpha:  4.201e-01  linmin:  9.374e-07  t[s]:  25561.21
	FillingsUpdate:  mu: +0.472466765  nElectrons: 346.000000
	SubspaceRotationAdjust: set factor to 0.271
ElecMinimize: Iter:   4  F: -1775.105348195118495  |grad|_K:  1.489e-07  alpha:  4.390e-01  linmin: -5.077e-07  t[s]:  25684.91
	FillingsUpdate:  mu: +0.472467676  nElectrons: 346.000000
	SubspaceRotationAdjust: set factor to 0.308
ElecMinimize: Iter:   5  F: -1775.105348666167856  |grad|_K:  9.369e-08  alpha:  4.011e-01  linmin: -1.712e-06  t[s]:  25810.61
	FillingsUpdate:  mu: +0.472464652  nElectrons: 346.000000
	SubspaceRotationAdjust: set factor to 0.25
ElecMinimize: Iter:   6  F: -1775.105348829784816  |grad|_K:  5.972e-08  alpha:  3.521e-01  linmin:  4.732e-06  t[s]:  25934.43
	FillingsUpdate:  mu: +0.472467004  nElectrons: 346.000000
	SubspaceRotationAdjust: set factor to 0.172
ElecMinimize: Iter:   7  F: -1775.105348879422536  |grad|_K:  3.480e-08  alpha:  2.629e-01  linmin: -1.633e-06  t[s]:  26055.61
	FillingsUpdate:  mu: +0.472466226  nElectrons: 346.000000
	SubspaceRotationAdjust: set factor to 0.245
ElecMinimize: Iter:   8  F: -1775.105348904501170  |grad|_K:  1.865e-08  alpha:  3.907e-01  linmin: -2.659e-05  t[s]:  26175.00
	FillingsUpdate:  mu: +0.472465705  nElectrons: 346.000000
	SubspaceRotationAdjust: set factor to 0.247
ElecMinimize: Iter:   9  F: -1775.105348911680267  |grad|_K:  1.219e-08  alpha:  3.886e-01  linmin:  7.341e-06  t[s]:  26294.32
	FillingsUpdate:  mu: +0.472466322  nElectrons: 346.000000
	SubspaceRotationAdjust: set factor to 0.237
ElecMinimize: Iter:  10  F: -1775.105348914760498  |grad|_K:  8.751e-09  alpha:  3.903e-01  linmin:  1.104e-05  t[s]:  26414.67
ElecMinimize: Converged (|Delta F|<1.000000e-08 for 2 iters).
Setting wave functions to eigenvectors of Hamiltonian

# Ionic positions in cartesian coordinates:
ion Pd   2.904326315664495  -0.000000177419355   5.114322549280558 1
ion Pd  -0.000000177419355   2.904326315664495  -0.039221162183785 1
ion Pd   2.888156902710417  -0.000000177419355  15.239279325644864 1
ion Pd  -0.000000177419355   2.888156902710417  10.136231061451911 1
ion Pd   2.908595699862257   5.770475322580645   5.120214380870597 1
ion Pd  -0.000000177419355   8.636624329496795  -0.039221162183785 1
ion Pd   3.065834126091714   5.770475322580645  14.940190165179843 1
ion Pd  -0.000000177419355   8.652793742450875  10.136231061451911 1
ion Pd   8.636624329496795  -0.000000177419355   5.114322549280558 1
ion Pd   5.770475322580645   2.908595699862257  -0.045112993773823 1
ion Pd   8.652793742450875  -0.000000177419355  15.239279325644864 1
ion Pd   5.770475322580645   3.065834126091714  10.435320221916932 1
ion Pd   8.632354945299031   5.770475322580645   5.120214380870597 1
ion Pd   5.770475322580645   8.632354945299031  -0.045112993773823 1
ion Pd   8.475116519069578   5.770475322580645  14.940190165179843 1
ion Pd   5.770475322580645   8.475116519069578  10.435320221916932 1
ion O  -0.000000177419355  -0.000000177419355   7.630306089507121 1
ion O  -0.000000177419355  -0.000000177419355   2.537550693548387 1
ion O  -0.000000177419355  -0.000000177419355  17.745204297589645 1
ion O  -0.000000177419355  -0.000000177419355  12.687755193548385 1
ion O  -0.000000177419355   5.770475322580645   7.602890708493487 1
ion O  -0.000000177419355   5.770475322580645   2.535318490273171 1
ion O  -0.000000177419355   5.770475322580645  17.679527798089165 1
ion O  -0.000000177419355   5.770475322580645  12.613181535145893 1
ion O   5.770475322580645  -0.000000177419355   7.695982589007606 1
ion O   5.770475322580645  -0.000000177419355   2.539782896823603 1
ion O   5.770475322580645  -0.000000177419355  17.772619678603284 1
ion O   5.770475322580645  -0.000000177419355  12.762328851950878 1
ion O   5.770475322580645   5.770475322580645   7.808993966871514 1
ion O   5.770475322580645   5.770475322580645   2.537550693548387 1
ion O   5.770475322580645   5.770475322580645  17.566516420225256 1

# Forces in Cartesian coordinates:
force Pd   0.000201866380466  -0.000000000000000  -0.000203356992906 1
force Pd   0.000000000000000   0.000201866380466   0.000203356992906 1
force Pd  -0.000343616393074   0.000000000000000  -0.000060716265529 1
force Pd   0.000000000000000  -0.000343616393074   0.000060716265529 1
force Pd  -0.000216447723671   0.000000000000000   0.000089038552974 1
force Pd   0.000000000000000  -0.000201866380466   0.000203356992906 1
force Pd   0.000211742175156  -0.000000000000000   0.000058491551000 1
force Pd   0.000000000000000   0.000343616393074   0.000060716265529 1
force Pd  -0.000201866380466  -0.000000000000000  -0.000203356992906 1
force Pd   0.000000000000000  -0.000216447723672  -0.000089038552974 1
force Pd   0.000343616393074   0.000000000000000  -0.000060716265529 1
force Pd   0.000000000000000   0.000211742175156  -0.000058491551001 1
force Pd   0.000216447723671   0.000000000000000   0.000089038552974 1
force Pd   0.000000000000000   0.000216447723672  -0.000089038552974 1
force Pd  -0.000211742175156   0.000000000000000   0.000058491551000 1
force Pd   0.000000000000000  -0.000211742175156  -0.000058491551000 1
force O   0.000000000000000   0.000000000000000   0.000327631790051 1
force O   0.000000000000000   0.000000000000000   0.000000000000000 1
force O   0.000000000000000   0.000000000000000  -0.000327631790051 1
force O   0.000000000000000   0.000000000000000   0.000000000000000 1
force O   0.000000000000000   0.000000000000000  -0.000282444031782 1
force O   0.000000000000000   0.000000000000000  -0.000238424914990 1
force O   0.000000000000000   0.000000000000000   0.000051476149917 1
force O   0.000000000000000   0.000000000000000   0.000043374495575 1
force O   0.000000000000000   0.000000000000000  -0.000051476149917 1
force O   0.000000000000000   0.000000000000000   0.000238424914990 1
force O   0.000000000000000   0.000000000000000   0.000282444031782 1
force O   0.000000000000000   0.000000000000000  -0.000043374495575 1
force O   0.000000000000000   0.000000000000000  -0.000022520136087 1
force O   0.000000000000000   0.000000000000000   0.000000000000000 1
force O   0.000000000000000  -0.000000000000000   0.000022520136088 1

# Energy components:
   Eewald =    -1344.2406282481540529
       EH =      421.3389152502201682
     Eloc =     -994.5748819568917725
      Enl =     -194.6798797280914073
      Exc =     -304.7149337006026144
 Exc_core =       56.0959858080922515
       KE =      585.6852139442257794
-------------------------------------
     Etot =    -1775.0902086312012216
       TS =        0.0151402835592366
-------------------------------------
        F =    -1775.1053489147604978

IonicMinimize: Iter:   9  F: -1775.105348914760498  |grad|_K:  1.362e-04  alpha:  1.000e+00  linmin:  3.628e-01  t[s]:  26436.13

#--- Lowdin population analysis ---
# oxidation-state Pd +0.264 +0.264 +0.277 +0.277 +0.264 +0.264 +0.152 +0.277 +0.264 +0.264 +0.277 +0.152 +0.264 +0.264 +0.152 +0.152
# oxidation-state O -0.240 -0.255 -0.240 -0.251 -0.239 -0.245 -0.254 -0.225 -0.254 -0.245 -0.239 -0.225 -0.205 -0.243 -0.205


-------- Electronic minimization -----------
	FillingsUpdate:  mu: +0.472461235  nElectrons: 346.000000
ElecMinimize: Iter:   0  F: -1775.105349298014971  |grad|_K:  2.264e-07  alpha:  1.000e+00
	FillingsUpdate:  mu: +0.472469019  nElectrons: 346.000000
	SubspaceRotationAdjust: set factor to 0.211
ElecMinimize: Iter:   1  F: -1775.105350254186305  |grad|_K:  1.253e-07  alpha:  3.522e-01  linmin:  5.694e-07  t[s]:  26659.92
	FillingsUpdate:  mu: +0.472463215  nElectrons: 346.000000
	SubspaceRotationAdjust: set factor to 0.201
ElecMinimize: Iter:   2  F: -1775.105350555371160  |grad|_K:  8.950e-08  alpha:  3.620e-01  linmin:  3.187e-06  t[s]:  26781.82
	FillingsUpdate:  mu: +0.472466385  nElectrons: 346.000000
	SubspaceRotationAdjust: set factor to 0.25
ElecMinimize: Iter:   3  F: -1775.105350869775293  |grad|_K:  8.490e-08  alpha:  7.410e-01  linmin: -6.834e-06  t[s]:  26904.52
	FillingsUpdate:  mu: +0.472465846  nElectrons: 346.000000
	SubspaceRotationAdjust: set factor to 0.285
ElecMinimize: Iter:   4  F: -1775.105351117417968  |grad|_K:  7.637e-08  alpha:  6.486e-01  linmin: -7.035e-07  t[s]:  27024.80
	FillingsUpdate:  mu: +0.472464886  nElectrons: 346.000000
	SubspaceRotationAdjust: set factor to 0.3
ElecMinimize: Iter:   5  F: -1775.105351253482468  |grad|_K:  5.056e-08  alpha:  4.405e-01  linmin: -1.527e-06  t[s]:  27150.84
	FillingsUpdate:  mu: +0.472466087  nElectrons: 346.000000
	SubspaceRotationAdjust: set factor to 0.273
ElecMinimize: Iter:   6  F: -1775.105351304416217  |grad|_K:  2.685e-08  alpha:  3.766e-01  linmin: -2.698e-06  t[s]:  27275.80
	FillingsUpdate:  mu: +0.472464957  nElectrons: 346.000000
	SubspaceRotationAdjust: set factor to 0.197
ElecMinimize: Iter:   7  F: -1775.105351318225757  |grad|_K:  1.764e-08  alpha:  3.626e-01  linmin:  2.290e-05  t[s]:  27396.21
	FillingsUpdate:  mu: +0.472465594  nElectrons: 346.000000
	SubspaceRotationAdjust: set factor to 0.155
ElecMinimize: Iter:   8  F: -1775.105351322777096  |grad|_K:  8.713e-09  alpha:  2.748e-01  linmin:  5.593e-06  t[s]:  27520.04
	FillingsUpdate:  mu: +0.472465608  nElectrons: 346.000000
	SubspaceRotationAdjust: set factor to 0.195
ElecMinimize: Iter:   9  F: -1775.105351324446701  |grad|_K:  4.764e-09  alpha:  4.248e-01  linmin:  3.821e-05  t[s]:  27645.94
ElecMinimize: Converged (|Delta F|<1.000000e-08 for 2 iters).
Setting wave functions to eigenvectors of Hamiltonian

# Ionic positions in cartesian coordinates:
ion Pd   2.904864439693015  -0.000000177419355   5.113645615744597 1
ion Pd  -0.000000177419355   2.904864439693015  -0.038544228647824 1
ion Pd   2.887404486223681  -0.000000177419355  15.238905602127771 1
ion Pd  -0.000000177419355   2.887404486223681  10.136604784969004 1
ion Pd   2.907903073830044   5.770475322580645   5.120397571658968 1
ion Pd  -0.000000177419355   8.636086205468276  -0.038544228647824 1
ion Pd   3.066428633134288   5.770475322580645  14.940765293728873 1
ion Pd  -0.000000177419355   8.653546158937610  10.136604784969004 1
ion Pd   8.636086205468276  -0.000000177419355   5.113645615744597 1
ion Pd   5.770475322580645   2.907903073830044  -0.045296184562193 1
ion Pd   8.653546158937610  -0.000000177419355  15.238905602127771 1
ion Pd   5.770475322580645   3.066428633134288  10.434745093367900 1
ion Pd   8.633047571331243   5.770475322580645   5.120397571658968 1
ion Pd   5.770475322580645   8.633047571331243  -0.045296184562193 1
ion Pd   8.474522012027004   5.770475322580645  14.940765293728873 1
ion Pd   5.770475322580645   8.474522012027004  10.434745093367900 1
ion O  -0.000000177419355  -0.000000177419355   7.631184475733033 1
ion O  -0.000000177419355  -0.000000177419355   2.537550693548387 1
ion O  -0.000000177419355  -0.000000177419355  17.744325911363735 1
ion O  -0.000000177419355  -0.000000177419355  12.687755193548385 1
ion O  -0.000000177419355   5.770475322580645   7.602136855223609 1
ion O  -0.000000177419355   5.770475322580645   2.534714715394579 1
ion O  -0.000000177419355   5.770475322580645  17.679885103775895 1
ion O  -0.000000177419355   5.770475322580645  12.613620773755001 1
ion O   5.770475322580645  -0.000000177419355   7.695625283320874 1
ion O   5.770475322580645  -0.000000177419355   2.540386671702195 1
ion O   5.770475322580645  -0.000000177419355  17.773373531873162 1
ion O   5.770475322580645  -0.000000177419355  12.761889613341770 1
ion O   5.770475322580645   5.770475322580645   7.808449991401213 1
ion O   5.770475322580645   5.770475322580645   2.537550693548387 1
ion O   5.770475322580645   5.770475322580645  17.567060395695556 1

# Forces in Cartesian coordinates:
force Pd  -0.000062369555908   0.000000000000000   0.000028778167762 1
force Pd   0.000000000000000  -0.000062369555908  -0.000028778167762 1
force Pd   0.000022815827436  -0.000000000000000   0.000026698150744 1
force Pd   0.000000000000000   0.000022815827436  -0.000026698150744 1
force Pd   0.000019437316703   0.000000000000000  -0.000059312628579 1
force Pd   0.000000000000000   0.000062369555908  -0.000028778167762 1
force Pd   0.000062707629697  -0.000000000000000  -0.000002871843158 1
force Pd   0.000000000000000  -0.000022815827436  -0.000026698150744 1
force Pd   0.000062369555908   0.000000000000000   0.000028778167762 1
force Pd   0.000000000000000   0.000019437316703   0.000059312628579 1
force Pd  -0.000022815827436  -0.000000000000000   0.000026698150744 1
force Pd   0.000000000000000   0.000062707629697   0.000002871843158 1
force Pd  -0.000019437316703  -0.000000000000000  -0.000059312628579 1
force Pd   0.000000000000000  -0.000019437316703   0.000059312628579 1
force Pd  -0.000062707629697  -0.000000000000000  -0.000002871843158 1
force Pd   0.000000000000000  -0.000062707629697   0.000002871843158 1
force O   0.000000000000000   0.000000000000000   0.000013476461166 1
force O   0.000000000000000   0.000000000000000   0.000000000000000 1
force O   0.000000000000000   0.000000000000000  -0.000013476461166 1
force O   0.000000000000000  -0.000000000000000   0.000000000000000 1
force O   0.000000000000000  -0.000000000000000   0.000034104976369 1
force O   0.000000000000000  -0.000000000000000  -0.000060813558260 1
force O   0.000000000000000  -0.000000000000000   0.000030015844121 1
force O   0.000000000000000   0.000000000000000  -0.000003063805371 1
force O   0.000000000000000  -0.000000000000000  -0.000030015844122 1
force O   0.000000000000000   0.000000000000000   0.000060813558260 1
force O   0.000000000000000  -0.000000000000000  -0.000034104976369 1
force O   0.000000000000000   0.000000000000000   0.000003063805371 1
force O   0.000000000000000   0.000000000000000  -0.000058086379627 1
force O   0.000000000000000   0.000000000000000   0.000000000000000 1
force O   0.000000000000000  -0.000000000000000   0.000058086379627 1

# Energy components:
   Eewald =    -1344.2399418155366675
       EH =      421.3395580171272741
     Eloc =     -994.5763184807206017
      Enl =     -194.6798482029078343
      Exc =     -304.7149875749380499
 Exc_core =       56.0959857901162380
       KE =      585.6853417440572684
-------------------------------------
     Etot =    -1775.0902105228021810
       TS =        0.0151408016444656
-------------------------------------
        F =    -1775.1053513244467013

IonicMinimize: Iter:  10  F: -1775.105351324446701  |grad|_K:  2.817e-05  alpha:  1.000e+00  linmin:  1.394e-01  t[s]:  27668.10
IonicMinimize: Converged (|grad|_K<1.000000e-04).

#--- Lowdin population analysis ---
# oxidation-state Pd +0.264 +0.264 +0.277 +0.277 +0.264 +0.264 +0.152 +0.277 +0.264 +0.264 +0.277 +0.152 +0.264 +0.264 +0.152 +0.152
# oxidation-state O -0.240 -0.255 -0.240 -0.251 -0.239 -0.245 -0.254 -0.226 -0.254 -0.245 -0.239 -0.226 -0.205 -0.243 -0.205


Dumping 'Pd16O15.Ecomponents' ... done
End date and time: Fri Dec  8 22:53:10 2023  (Duration: 0-7:41:28.82)
Done!
