--------------------------------------------------------------------------
Initialization of PSM library failed.

  Error: PSM is in the finalized state
--------------------------------------------------------------------------

*************** JDFTx 1.7.0  ***************

Start date and time: Fri Dec  8 15:12:58 2023
Executable jdftx with command-line: -i /home/cam559/Valla_project/Pd/Pd16O16.in
Running on hosts (process indices):  node3202.physics.cornell.edu (0-9)
Divided in process groups (process indices):  0 (0)  1 (1)  2 (2)  3 (3)  4 (4)  5 (5)  6 (6)  7 (7)  8 (8)  9 (9)
Resource initialization completed at t[s]:      0.00
Run totals: 10 processes, 30 threads, 0 GPUs


Input parsed successfully to the following command list (including defaults):

basis kpoint-dependent
coords-type Cartesian
core-overlap-check vector
coulomb-interaction Periodic
davidson-band-ratio 1.1
dump End Ecomponents
dump-name Pd16O16.$VAR
elec-cutoff 20 100
elec-eigen-algo Davidson
elec-ex-corr gga-PBE
elec-smearing Fermi 0.004
electronic-minimize  \
	dirUpdateScheme      FletcherReeves \
	linminMethod         DirUpdateRecommended \
	nIterations          100 \
	history              15 \
	knormThreshold       0 \
	energyDiffThreshold  1e-08 \
	nEnergyDiff          2 \
	alphaTstart          1 \
	alphaTmin            1e-10 \
	updateTestStepSize   yes \
	alphaTreduceFactor   0.1 \
	alphaTincreaseFactor 3 \
	nAlphaAdjustMax      3 \
	wolfeEnergy          0.0001 \
	wolfeGradient        0.9 \
	fdTest               no
exchange-regularization WignerSeitzTruncated
fluid None
fluid-ex-corr lda-TF lda-PZ
fluid-gummel-loop 10 1.000000e-05
fluid-minimize  \
	dirUpdateScheme      PolakRibiere \
	linminMethod         DirUpdateRecommended \
	nIterations          100 \
	history              15 \
	knormThreshold       0 \
	energyDiffThreshold  0 \
	nEnergyDiff          2 \
	alphaTstart          1 \
	alphaTmin            1e-10 \
	updateTestStepSize   yes \
	alphaTreduceFactor   0.1 \
	alphaTincreaseFactor 3 \
	nAlphaAdjustMax      3 \
	wolfeEnergy          0.0001 \
	wolfeGradient        0.9 \
	fdTest               no
fluid-solvent H2O 55.338 ScalarEOS \
	epsBulk 78.4 \
	pMol 0.92466 \
	epsInf 1.77 \
	Pvap 1.06736e-10 \
	sigmaBulk 4.62e-05 \
	Rvdw 2.61727 \
	Res 1.42 \
	tauNuc 343133 \
	poleEl 15 7 1
forces-output-coords Positions
initial-state Pd16O16.$VAR
ion Pd   2.885238000000000   0.000000000000000   5.075101999999999 1
ion Pd   0.000000000000000   2.885238000000000   0.000000000000000 1
ion Pd   2.885238000000000   0.000000000000000  15.225305999999998 1
ion Pd   0.000000000000000   2.885238000000000  10.150203999999999 1
ion Pd   2.885238000000000   5.770474999999999   5.075101999999999 1
ion Pd   0.000000000000000   8.655713000000000   0.000000000000000 1
ion Pd   2.885238000000000   5.770474999999999  15.225305999999998 1
ion Pd   0.000000000000000   8.655713000000000  10.150203999999999 1
ion Pd   8.655713000000000   0.000000000000000   5.075101999999999 1
ion Pd   5.770474999999999   2.885238000000000   0.000000000000000 1
ion Pd   8.655713000000000   0.000000000000000  15.225305999999998 1
ion Pd   5.770474999999999   2.885238000000000  10.150203999999999 1
ion Pd   8.655713000000000   5.770474999999999   5.075101999999999 1
ion Pd   5.770474999999999   8.655713000000000   0.000000000000000 1
ion Pd   8.655713000000000   5.770474999999999  15.225305999999998 1
ion Pd   5.770474999999999   8.655713000000000  10.150203999999999 1
ion O   0.000000000000000   0.000000000000000   7.612652999999999 1
ion O   0.000000000000000   0.000000000000000   2.537551000000000 1
ion O   0.000000000000000   0.000000000000000  17.762857000000000 1
ion O   0.000000000000000   0.000000000000000  12.687754999999999 1
ion O   0.000000000000000   5.770474999999999   7.612652999999999 1
ion O   0.000000000000000   5.770474999999999   2.537551000000000 1
ion O   0.000000000000000   5.770474999999999  17.762857000000000 1
ion O   0.000000000000000   5.770474999999999  12.687754999999999 1
ion O   5.770474999999999   0.000000000000000   7.612652999999999 1
ion O   5.770474999999999   0.000000000000000   2.537551000000000 1
ion O   5.770474999999999   0.000000000000000  17.762857000000000 1
ion O   5.770474999999999   0.000000000000000  12.687754999999999 1
ion O   5.770474999999999   5.770474999999999   7.612652999999999 1
ion O   5.770474999999999   5.770474999999999   2.537551000000000 1
ion O   5.770474999999999   5.770474999999999  17.762857000000000 1
ion O   5.770474999999999   5.770474999999999  12.687754999999999 1
ion-species GBRV/$ID_pbe.uspp
ion-width 0
ionic-minimize  \
	dirUpdateScheme      L-BFGS \
	linminMethod         DirUpdateRecommended \
	nIterations          30 \
	history              15 \
	knormThreshold       0.0001 \
	energyDiffThreshold  1e-05 \
	nEnergyDiff          2 \
	alphaTstart          1 \
	alphaTmin            1e-10 \
	updateTestStepSize   yes \
	alphaTreduceFactor   0.1 \
	alphaTincreaseFactor 3 \
	nAlphaAdjustMax      3 \
	wolfeEnergy          0.0001 \
	wolfeGradient        0.9 \
	fdTest               no
kpoint   0.000000000000   0.000000000000   0.000000000000  1.00000000000000
kpoint-folding 4 4 4 
latt-move-scale 1 1 1
latt-scale 1 1 1 
lattice  \
	  11.540951000000000    0.000000000000000    0.000000000000000  \
	   0.000000000000000   11.540951000000000    0.000000000000000  \
	   0.000000000000000    0.000000000000000   20.300408999999998 
lattice-minimize  \
	dirUpdateScheme      L-BFGS \
	linminMethod         DirUpdateRecommended \
	nIterations          0 \
	history              15 \
	knormThreshold       0 \
	energyDiffThreshold  1e-06 \
	nEnergyDiff          2 \
	alphaTstart          1 \
	alphaTmin            1e-10 \
	updateTestStepSize   yes \
	alphaTreduceFactor   0.1 \
	alphaTincreaseFactor 3 \
	nAlphaAdjustMax      3 \
	wolfeEnergy          0.0001 \
	wolfeGradient        0.9 \
	fdTest               no
lcao-params -1 1e-06 0.004
pcm-variant GLSSA13
spintype no-spin
subspace-rotation-factor 1 yes
symmetries automatic
symmetry-threshold 0.0001



---------- Setting up symmetries ----------

Found 16 point-group symmetries of the bravais lattice
Found 128 space-group symmetries with basis
Applied RMS atom displacement 4.80072e-07 bohrs to make symmetries exact.

---------- Initializing the Grid ----------
R = 
[       11.541            0            0  ]
[            0       11.541            0  ]
[            0            0      20.3004  ]
unit cell volume = 2703.88
G =
[   0.544425          0          0  ]
[          0   0.544425          0  ]
[          0          0    0.30951  ]
Minimum fftbox size, Smin = [  52  52  92  ]
Chosen fftbox size, S = [  54  54  96  ]

---------- Initializing tighter grid for wavefunction operations ----------
R = 
[       11.541            0            0  ]
[            0       11.541            0  ]
[            0            0      20.3004  ]
unit cell volume = 2703.88
G =
[   0.544425          0          0  ]
[          0   0.544425          0  ]
[          0          0    0.30951  ]
Minimum fftbox size, Smin = [  48  48  84  ]
Chosen fftbox size, S = [  48  48  84  ]

---------- Exchange Correlation functional ----------
Initalized PBE GGA exchange.
Initalized PBE GGA correlation.

---------- Setting up pseudopotentials ----------
Width of ionic core gaussian charges (only for fluid interactions / plotting) set to 0

Reading pseudopotential file '/home/cam559/JDFTx/build/pseudopotentials/GBRV/pd_pbe.uspp':
  Title: Pd.  Created by USPP 7.3.6 on 31-3-15
  Reference state energy: -99.095797.  16 valence electrons in orbitals:
    |410>  occupation: 6  eigenvalue: -2.075344
    |420>  occupation: 9.5  eigenvalue: -0.331049
    |500>  occupation: 0  eigenvalue: -0.255738
    |510>  occupation: 0  eigenvalue: -0.109005
  lMax: 2  lLocal: 3  QijEcut: 6
  6 projectors sampled on a log grid with 717 points:
    l: 0  eig: -0.255738  rCut: 2.5
    l: 0  eig: 1.000000  rCut: 2.5
    l: 1  eig: -2.075343  rCut: 1.53
    l: 1  eig: -0.109006  rCut: 1.53
    l: 2  eig: -0.331048  rCut: 1.63
    l: 2  eig: 1.500000  rCut: 1.63
  Partial core density with radius 1
  Transforming core density to a uniform radial grid of dG=0.02 with 1283 points.
  Transforming local potential to a uniform radial grid of dG=0.02 with 1283 points.
  Transforming nonlocal projectors to a uniform radial grid of dG=0.02 with 432 points.
  Transforming density augmentations to a uniform radial grid of dG=0.02 with 1283 points.
  Transforming atomic orbitals to a uniform radial grid of dG=0.02 with 432 points.
  Core radius for overlap checks: 2.50 bohrs.

Reading pseudopotential file '/home/cam559/JDFTx/build/pseudopotentials/GBRV/o_pbe.uspp':
  Title: O.  Created by USPP 7.3.6 on 3-2-2014
  Reference state energy: -15.894388.  6 valence electrons in orbitals:
    |200>  occupation: 2  eigenvalue: -0.878823
    |210>  occupation: 4  eigenvalue: -0.332131
  lMax: 2  lLocal: 2  QijEcut: 6
  5 projectors sampled on a log grid with 511 points:
    l: 0  eig: -0.878823  rCut: 1.25
    l: 0  eig: 0.000000  rCut: 1.25
    l: 1  eig: -0.332132  rCut: 1.25
    l: 1  eig: 0.000000  rCut: 1.25
    l: 2  eig: 1.000000  rCut: 1.25
  Partial core density with radius 0.7
  Transforming core density to a uniform radial grid of dG=0.02 with 1283 points.
  Transforming local potential to a uniform radial grid of dG=0.02 with 1283 points.
  Transforming nonlocal projectors to a uniform radial grid of dG=0.02 with 432 points.
  Transforming density augmentations to a uniform radial grid of dG=0.02 with 1283 points.
  Transforming atomic orbitals to a uniform radial grid of dG=0.02 with 432 points.
  Core radius for overlap checks: 1.25 bohrs.

Initialized 2 species with 32 total atoms.

Folded 1 k-points by 4x4x4 to 64 k-points.

---------- Setting up k-points, bands, fillings ----------
Reduced to 18 k-points under symmetry. 
Computing the number of bands and number of electrons
Calculating initial fillings.
nElectrons: 352.000000   nBands: 256   nStates: 18

----- Setting up reduced wavefunction bases (one per k-point) -----
average nbasis = 11550.172 , ideal nbasis = 11551.197

---------- Setting up ewald sum ----------
Optimum gaussian width for ewald sums = 3.119232 bohr.
Real space sum over 567 unit cells with max indices [  4  4  3  ]
Reciprocal space sum over 5175 terms with max indices [  7  7  11  ]

---------- Allocating electronic variables ----------
Initializing wave functions:  linear combination of atomic orbitals
Pd pseudo-atom occupations:   s ( 0 )  p ( 6 0 )  d ( 10 )
O pseudo-atom occupations:   s ( 2 )  p ( 4 )
	FillingsUpdate:  mu: +0.643477561  nElectrons: 352.000000
LCAOMinimize: Iter:   0  F: -1781.5056379869934062  |grad|_K:  6.791e-03  alpha:  1.000e+00
	FillingsUpdate:  mu: +0.465341405  nElectrons: 352.000000
LCAOMinimize: Iter:   1  F: -1790.5041464524938419  |grad|_K:  8.898e-04  alpha:  3.109e-01  linmin:  2.440e-01  cgtest: -3.527e-01  t[s]:    130.71
	FillingsUpdate:  mu: +0.487969718  nElectrons: 352.000000
LCAOMinimize: Iter:   2  F: -1790.6868325395992088  |grad|_K:  1.996e-04  alpha:  6.346e-01  linmin:  1.840e-02  cgtest:  4.838e-01  t[s]:    170.90
LCAOMinimize: Encountered beta<0, resetting CG.
	FillingsUpdate:  mu: +0.484331583  nElectrons: 352.000000
LCAOMinimize: Iter:   3  F: -1790.6933955191386758  |grad|_K:  5.250e-05  alpha:  2.775e-01  linmin:  1.022e-03  cgtest: -1.269e-02  t[s]:    209.59
	FillingsUpdate:  mu: +0.482317712  nElectrons: 352.000000
LCAOMinimize: Iter:   4  F: -1790.6943705509072515  |grad|_K:  4.679e-06  alpha:  5.972e-01  linmin:  1.177e-02  cgtest:  3.122e-02  t[s]:    249.35
	FillingsUpdate:  mu: +0.482422000  nElectrons: 352.000000
LCAOMinimize: Iter:   5  F: -1790.6943791935761965  |grad|_K:  2.617e-06  alpha:  6.664e-01  linmin:  5.492e-05  cgtest:  5.414e-03  t[s]:    287.52
	FillingsUpdate:  mu: +0.482411018  nElectrons: 352.000000
LCAOMinimize: Iter:   6  F: -1790.6943804458201157  |grad|_K:  3.475e-07  alpha:  3.074e-01  linmin: -4.342e-04  cgtest:  2.306e-03  t[s]:    325.86
	FillingsUpdate:  mu: +0.482403785  nElectrons: 352.000000
LCAOMinimize: Iter:   7  F: -1790.6943805044752480  |grad|_K:  4.517e-08  alpha:  8.184e-01  linmin:  3.731e-03  cgtest: -1.782e-02  t[s]:    363.77
	FillingsUpdate:  mu: +0.482405761  nElectrons: 352.000000
LCAOMinimize: Iter:   8  F: -1790.6943805052383141  |grad|_K:  1.915e-08  alpha:  6.483e-01  linmin:  5.739e-03  cgtest: -1.457e-02  t[s]:    403.92
LCAOMinimize: Converged (|Delta F|<1.000000e-06 for 2 iters).


---- Citations for features of the code used in this run ----

   Software package:
      R. Sundararaman, K. Letchworth-Weaver, K.A. Schwarz, D. Gunceler, Y. Ozhabes and T.A. Arias, 'JDFTx: software for joint density-functional theory', SoftwareX 6, 278 (2017)

   gga-PBE exchange-correlation functional:
      J.P. Perdew, K. Burke and M. Ernzerhof, Phys. Rev. Lett. 77, 3865 (1996)

   Pseudopotentials:
      KF Garrity, JW Bennett, KM Rabe and D Vanderbilt, Comput. Mater. Sci. 81, 446 (2014)

   Total energy minimization with Auxiliary Hamiltonian:
      C. Freysoldt, S. Boeck, and J. Neugebauer, Phys. Rev. B 79, 241103(R) (2009)

This list may not be complete. Please suggest additional citations or
report any other bugs at https://github.com/shankar1729/jdftx/issues

Initialization completed successfully at t[s]:    434.54


-------- Electronic minimization -----------
	FillingsUpdate:  mu: +0.482405761  nElectrons: 352.000000
ElecMinimize: Iter:   0  F: -1790.694380505238087  |grad|_K:  1.346e-04  alpha:  1.000e+00
	FillingsUpdate:  mu: +0.501484943  nElectrons: 352.000000
	SubspaceRotationAdjust: set factor to 1
ElecMinimize: Iter:   1  F: -1791.076007833271888  |grad|_K:  6.988e-05  alpha:  3.925e-01  linmin:  6.333e-05  t[s]:    673.36
	FillingsUpdate:  mu: +0.486293753  nElectrons: 352.000000
	SubspaceRotationAdjust: set factor to 0.665
ElecMinimize: Iter:   2  F: -1791.160158888014394  |grad|_K:  2.827e-05  alpha:  3.220e-01  linmin: -1.274e-06  t[s]:    835.53
	FillingsUpdate:  mu: +0.484972651  nElectrons: 352.000000
	SubspaceRotationAdjust: set factor to 0.658
ElecMinimize: Iter:   3  F: -1791.177974569789058  |grad|_K:  1.340e-05  alpha:  4.152e-01  linmin:  5.692e-05  t[s]:   1000.65
	FillingsUpdate:  mu: +0.485649756  nElectrons: 352.000000
	SubspaceRotationAdjust: set factor to 0.839
ElecMinimize: Iter:   4  F: -1791.182389281261067  |grad|_K:  6.736e-06  alpha:  4.631e-01  linmin:  3.774e-05  t[s]:   1163.74
	FillingsUpdate:  mu: +0.484916501  nElectrons: 352.000000
	SubspaceRotationAdjust: set factor to 1.04
ElecMinimize: Iter:   5  F: -1791.183539566591207  |grad|_K:  3.616e-06  alpha:  4.756e-01  linmin:  3.168e-05  t[s]:   1334.80
	FillingsUpdate:  mu: +0.485473174  nElectrons: 352.000000
	SubspaceRotationAdjust: set factor to 1.19
ElecMinimize: Iter:   6  F: -1791.183856249376277  |grad|_K:  1.948e-06  alpha:  4.532e-01  linmin:  1.906e-05  t[s]:   1505.70
	FillingsUpdate:  mu: +0.485366630  nElectrons: 352.000000
	SubspaceRotationAdjust: set factor to 1.23
ElecMinimize: Iter:   7  F: -1791.183929760026331  |grad|_K:  9.990e-07  alpha:  3.617e-01  linmin:  4.955e-06  t[s]:   1676.63
	FillingsUpdate:  mu: +0.485357258  nElectrons: 352.000000
	SubspaceRotationAdjust: set factor to 1.16
ElecMinimize: Iter:   8  F: -1791.183949455018819  |grad|_K:  4.729e-07  alpha:  3.675e-01  linmin:  4.172e-06  t[s]:   1847.12
	FillingsUpdate:  mu: +0.485351005  nElectrons: 352.000000
	SubspaceRotationAdjust: set factor to 1.1
ElecMinimize: Iter:   9  F: -1791.183954374582072  |grad|_K:  2.357e-07  alpha:  4.096e-01  linmin:  2.801e-06  t[s]:   2007.10
	FillingsUpdate:  mu: +0.485375925  nElectrons: 352.000000
	SubspaceRotationAdjust: set factor to 1.09
ElecMinimize: Iter:  10  F: -1791.183955703521406  |grad|_K:  1.297e-07  alpha:  4.455e-01  linmin:  3.198e-06  t[s]:   2164.54
	FillingsUpdate:  mu: +0.485350908  nElectrons: 352.000000
	SubspaceRotationAdjust: set factor to 1.07
ElecMinimize: Iter:  11  F: -1791.183956036562904  |grad|_K:  7.561e-08  alpha:  3.685e-01  linmin:  1.235e-06  t[s]:   2328.31
	FillingsUpdate:  mu: +0.485357818  nElectrons: 352.000000
	SubspaceRotationAdjust: set factor to 1.12
ElecMinimize: Iter:  12  F: -1791.183956155112810  |grad|_K:  3.575e-08  alpha:  3.860e-01  linmin:  1.243e-06  t[s]:   2487.71
	FillingsUpdate:  mu: +0.485360597  nElectrons: 352.000000
	SubspaceRotationAdjust: set factor to 1.19
ElecMinimize: Iter:  13  F: -1791.183956185891248  |grad|_K:  1.923e-08  alpha:  4.479e-01  linmin: -8.406e-08  t[s]:   2654.30
	FillingsUpdate:  mu: +0.485358239  nElectrons: 352.000000
	SubspaceRotationAdjust: set factor to 1.3
ElecMinimize: Iter:  14  F: -1791.183956194680377  |grad|_K:  1.022e-08  alpha:  4.413e-01  linmin: -1.948e-07  t[s]:   2819.92
	FillingsUpdate:  mu: +0.485359191  nElectrons: 352.000000
	SubspaceRotationAdjust: set factor to 1.55
ElecMinimize: Iter:  15  F: -1791.183956197345879  |grad|_K:  5.626e-09  alpha:  4.727e-01  linmin: -3.260e-07  t[s]:   2976.91
ElecMinimize: Converged (|Delta F|<1.000000e-08 for 2 iters).
Setting wave functions to eigenvectors of Hamiltonian

# Ionic positions in cartesian coordinates:
ion Pd   2.885237562500000  -0.000000187500000   5.075101812500000 1
ion Pd  -0.000000187500000   2.885237562500000  -0.000000437500000 1
ion Pd   2.885237562500000  -0.000000187500000  15.225306312499997 1
ion Pd  -0.000000187500000   2.885237562500000  10.150204062499999 1
ion Pd   2.885237562500000   5.770475312500000   5.075101812500000 1
ion Pd  -0.000000187500000   8.655713062500000  -0.000000437500000 1
ion Pd   2.885237562500000   5.770475312500000  15.225306312499997 1
ion Pd  -0.000000187500000   8.655713062500000  10.150204062499999 1
ion Pd   8.655713062500000  -0.000000187500000   5.075101812500000 1
ion Pd   5.770475312500000   2.885237562500000  -0.000000437500000 1
ion Pd   8.655713062500000  -0.000000187500000  15.225306312499997 1
ion Pd   5.770475312500000   2.885237562500000  10.150204062499999 1
ion Pd   8.655713062500000   5.770475312500000   5.075101812500000 1
ion Pd   5.770475312500000   8.655713062500000  -0.000000437500000 1
ion Pd   8.655713062500000   5.770475312500000  15.225306312499997 1
ion Pd   5.770475312500000   8.655713062500000  10.150204062499999 1
ion O  -0.000000187500000  -0.000000187500000   7.612652937499999 1
ion O  -0.000000187500000  -0.000000187500000   2.537550687500000 1
ion O  -0.000000187500000  -0.000000187500000  17.762857437499999 1
ion O  -0.000000187500000  -0.000000187500000  12.687755187499999 1
ion O  -0.000000187500000   5.770475312500000   7.612652937499999 1
ion O  -0.000000187500000   5.770475312500000   2.537550687500000 1
ion O  -0.000000187500000   5.770475312500000  17.762857437499999 1
ion O  -0.000000187500000   5.770475312500000  12.687755187499999 1
ion O   5.770475312500000  -0.000000187500000   7.612652937499999 1
ion O   5.770475312500000  -0.000000187500000   2.537550687500000 1
ion O   5.770475312500000  -0.000000187500000  17.762857437499999 1
ion O   5.770475312500000  -0.000000187500000  12.687755187499999 1
ion O   5.770475312500000   5.770475312500000   7.612652937499999 1
ion O   5.770475312500000   5.770475312500000   2.537550687500000 1
ion O   5.770475312500000   5.770475312500000  17.762857437499999 1
ion O   5.770475312500000   5.770475312500000  12.687755187499999 1

# Forces in Cartesian coordinates:
force Pd   0.000000000000000  -0.000000000000000  -0.000000000000000 1
force Pd   0.000000000000000  -0.000000000000000   0.000000000000000 1
force Pd   0.000000000000000  -0.000000000000000  -0.000000000000000 1
force Pd  -0.000000000000000  -0.000000000000000  -0.000000000000000 1
force Pd   0.000000000000000   0.000000000000000  -0.000000000000000 1
force Pd   0.000000000000000   0.000000000000000  -0.000000000000000 1
force Pd  -0.000000000000000  -0.000000000000000   0.000000000000000 1
force Pd  -0.000000000000000   0.000000000000000  -0.000000000000000 1
force Pd  -0.000000000000000  -0.000000000000000   0.000000000000000 1
force Pd  -0.000000000000000   0.000000000000000   0.000000000000000 1
force Pd   0.000000000000000  -0.000000000000000   0.000000000000000 1
force Pd   0.000000000000000   0.000000000000000   0.000000000000000 1
force Pd   0.000000000000000   0.000000000000000   0.000000000000000 1
force Pd  -0.000000000000000  -0.000000000000000  -0.000000000000000 1
force Pd  -0.000000000000000  -0.000000000000000  -0.000000000000000 1
force Pd  -0.000000000000000   0.000000000000000   0.000000000000000 1
force O  -0.000000000000000  -0.000000000000000  -0.000000000000000 1
force O  -0.000000000000000   0.000000000000000  -0.000000000000000 1
force O  -0.000000000000000  -0.000000000000000   0.000000000000000 1
force O   0.000000000000000  -0.000000000000000   0.000000000000000 1
force O   0.000000000000000  -0.000000000000000   0.000000000000000 1
force O  -0.000000000000000   0.000000000000000   0.000000000000000 1
force O   0.000000000000000   0.000000000000000   0.000000000000000 1
force O  -0.000000000000000  -0.000000000000000  -0.000000000000000 1
force O   0.000000000000000   0.000000000000000   0.000000000000000 1
force O   0.000000000000000   0.000000000000000  -0.000000000000000 1
force O   0.000000000000000   0.000000000000000  -0.000000000000000 1
force O  -0.000000000000000  -0.000000000000000  -0.000000000000000 1
force O   0.000000000000000   0.000000000000000  -0.000000000000000 1
force O   0.000000000000000   0.000000000000000   0.000000000000000 1
force O  -0.000000000000000   0.000000000000000  -0.000000000000000 1
force O   0.000000000000000  -0.000000000000000  -0.000000000000000 1

# Energy components:
   Eewald =    -1363.2919005934970755
       EH =      422.5771459218870518
     Eloc =     -999.1919910079717511
      Enl =     -192.2304042075370205
      Exc =     -308.5474298494042387
 Exc_core =       56.1610377943727954
       KE =      593.3512520261469945
-------------------------------------
     Etot =    -1791.1722899160031375
       TS =        0.0116662813426864
-------------------------------------
        F =    -1791.1839561973458785

IonicMinimize: Iter:   0  F: -1791.183956197345879  |grad|_K:  2.366e-36  t[s]:   3001.60
IonicMinimize: Converged (|grad|_K<1.000000e-04).

#--- Lowdin population analysis ---
# oxidation-state Pd +0.261 +0.261 +0.261 +0.261 +0.261 +0.261 +0.261 +0.261 +0.261 +0.261 +0.261 +0.261 +0.261 +0.261 +0.261 +0.261
# oxidation-state O -0.244 -0.244 -0.244 -0.244 -0.244 -0.244 -0.244 -0.244 -0.244 -0.244 -0.244 -0.244 -0.244 -0.244 -0.244 -0.244


Dumping 'Pd16O16.Ecomponents' ... done
End date and time: Fri Dec  8 16:03:26 2023  (Duration: 0-0:50:28.18)
Done!
