--------------------------------------------------------------------------
[[8126,1],0]: A high-performance Open MPI point-to-point messaging module
was unable to find any relevant network interfaces:

Module: OpenFabrics (openib)
  Host: node3216

Another transport will be used instead, although this may result in
lower performance.
--------------------------------------------------------------------------

*************** JDFTx 1.7.0  ***************

Start date and time: Wed Apr 24 10:30:20 2024
Executable jdftx with command-line: -i /home/cam559/Valla_project/Hf/Hf8O16.in
Running on hosts (process indices):  node3216.physics.cornell.edu (0-9)
Divided in process groups (process indices):  0 (0)  1 (1)  2 (2)  3 (3)  4 (4)  5 (5)  6 (6)  7 (7)  8 (8)  9 (9)
Resource initialization completed at t[s]:      0.00
Run totals: 10 processes, 40 threads, 0 GPUs


Input parsed successfully to the following command list (including defaults):

basis kpoint-dependent
coords-type Cartesian
core-overlap-check vector
coulomb-interaction Periodic
davidson-band-ratio 1.1
dump End Ecomponents
dump-name Hf8O16.$VAR
elec-cutoff 20 100
elec-eigen-algo Davidson
elec-ex-corr gga-PBE
elec-smearing Fermi 0.004
electronic-minimize  \
	dirUpdateScheme      FletcherReeves \
	linminMethod         DirUpdateRecommended \
	nIterations          100 \
	history              15 \
	knormThreshold       0 \
	energyDiffThreshold  1e-08 \
	nEnergyDiff          2 \
	alphaTstart          1 \
	alphaTmin            1e-10 \
	updateTestStepSize   yes \
	alphaTreduceFactor   0.1 \
	alphaTincreaseFactor 3 \
	nAlphaAdjustMax      3 \
	wolfeEnergy          0.0001 \
	wolfeGradient        0.9 \
	fdTest               no
exchange-regularization WignerSeitzTruncated
fluid None
fluid-ex-corr lda-TF lda-PZ
fluid-gummel-loop 10 1.000000e-05
fluid-minimize  \
	dirUpdateScheme      PolakRibiere \
	linminMethod         DirUpdateRecommended \
	nIterations          100 \
	history              15 \
	knormThreshold       0 \
	energyDiffThreshold  0 \
	nEnergyDiff          2 \
	alphaTstart          1 \
	alphaTmin            1e-10 \
	updateTestStepSize   yes \
	alphaTreduceFactor   0.1 \
	alphaTincreaseFactor 3 \
	nAlphaAdjustMax      3 \
	wolfeEnergy          0.0001 \
	wolfeGradient        0.9 \
	fdTest               no
fluid-solvent H2O 55.338 ScalarEOS \
	epsBulk 78.4 \
	pMol 0.92466 \
	epsInf 1.77 \
	Pvap 1.06736e-10 \
	sigmaBulk 4.62e-05 \
	Rvdw 2.61727 \
	Res 1.42 \
	tauNuc 343133 \
	poleEl 15 7 1
forces-output-coords Positions
initial-state Hf8O16.$VAR
ion Hf   2.585714000000000   4.458485000000000   6.630828999999999 1
ion Hf   6.835245000000000   9.325138000000001   6.777328000000000 1
ion Hf   6.862057000000000   5.274823000000000   1.792104000000000 1
ion Hf   2.612526000000000   0.408169000000000   1.645605000000000 1
ion Hf  12.087110000000001   4.458485000000000   5.083314000000000 1
ion Hf  16.336641000000000   9.325138000000001   5.229813000000000 1
ion Hf  16.363454000000001   5.274823000000000   0.244588000000000 1
ion Hf  12.113923000000000   0.408169000000000   0.098089000000000 1
ion O   4.204128000000000   7.227233999999999   9.063578000000000 1
ion O   5.216830000000000   2.360580000000000   4.344579000000000 1
ion O   5.243643000000000   2.506074000000000  -0.640645000000000 1
ion O   4.230941000000000   7.372728000000000   4.078354000000001 1
ion O   0.630955000000000   3.219377999999999   3.346506000000001 1
ion O   8.843629000000000   8.086031999999999   0.091203000000000 1
ion O   8.816815999999999   6.513930000000000   5.076427000000000 1
ion O   0.604142000000000   1.647276000000000   8.331730000000000 1
ion O  13.705524999999998   7.227233999999999   7.516062000000000 1
ion O  14.718227000000001   2.360580000000000   2.797064000000001 1
ion O  14.745040000000001   2.506074000000000  -2.188160000000000 1
ion O  13.732338000000000   7.372728000000000   2.530838000000000 1
ion O  10.132351999999997   3.219377999999999   1.798991000000001 1
ion O  18.345026000000001   8.086031999999999  -1.456313000000001 1
ion O  18.318213000000004   6.513930000000000   3.528910999999999 1
ion O  10.105539000000000   1.647276000000000   6.784214999999999 1
ion-species GBRV/$ID_pbe.uspp
ion-width 0
ionic-minimize  \
	dirUpdateScheme      L-BFGS \
	linminMethod         DirUpdateRecommended \
	nIterations          50 \
	history              15 \
	knormThreshold       0.0001 \
	energyDiffThreshold  1e-06 \
	nEnergyDiff          2 \
	alphaTstart          1 \
	alphaTmin            1e-10 \
	updateTestStepSize   yes \
	alphaTreduceFactor   0.1 \
	alphaTincreaseFactor 3 \
	nAlphaAdjustMax      3 \
	wolfeEnergy          0.0001 \
	wolfeGradient        0.9 \
	fdTest               no
kpoint   0.000000000000   0.000000000000   0.000000000000  1.00000000000000
kpoint-folding 3 6 6 
latt-move-scale 1 1 1
latt-scale 1 1 1 
lattice  \
	  19.002793000000000    0.000000000000000   -0.053626000000000  \
	   0.000000000000000    9.733307999999999    0.000000000000000  \
	  -3.095031000000000    0.000000000000000    9.970449000000000 
lattice-minimize  \
	dirUpdateScheme      L-BFGS \
	linminMethod         DirUpdateRecommended \
	nIterations          0 \
	history              15 \
	knormThreshold       0 \
	energyDiffThreshold  1e-06 \
	nEnergyDiff          2 \
	alphaTstart          1 \
	alphaTmin            1e-10 \
	updateTestStepSize   yes \
	alphaTreduceFactor   0.1 \
	alphaTincreaseFactor 3 \
	nAlphaAdjustMax      3 \
	wolfeEnergy          0.0001 \
	wolfeGradient        0.9 \
	fdTest               no
lcao-params -1 1e-06 0.004
pcm-variant GLSSA13
spintype no-spin
subspace-rotation-factor 1 yes
symmetries automatic
symmetry-threshold 0.0001



---------- Setting up symmetries ----------

Found 4 point-group symmetries of the bravais lattice
Found 8 space-group symmetries with basis
Applied RMS atom displacement 5.06897e-07 bohrs to make symmetries exact.

---------- Initializing the Grid ----------
R = 
[      19.0028            0    -0.053626  ]
[            0      9.73331            0  ]
[     -3.09503            0      9.97045  ]
unit cell volume = 1842.52
G =
[   0.330935         -0 0.00177993  ]
[         -0   0.645534         -0  ]
[   0.102729         -0   0.630733  ]
Minimum fftbox size, Smin = [  88  44  48  ]
Chosen fftbox size, S = [  90  48  48  ]

---------- Initializing tighter grid for wavefunction operations ----------
R = 
[      19.0028            0    -0.053626  ]
[            0      9.73331            0  ]
[     -3.09503            0      9.97045  ]
unit cell volume = 1842.52
G =
[   0.330935         -0 0.00177993  ]
[         -0   0.645534         -0  ]
[   0.102729         -0   0.630733  ]
Minimum fftbox size, Smin = [  80  40  44  ]
Chosen fftbox size, S = [  80  40  48  ]

---------- Exchange Correlation functional ----------
Initalized PBE GGA exchange.
Initalized PBE GGA correlation.

---------- Setting up pseudopotentials ----------
Width of ionic core gaussian charges (only for fluid interactions / plotting) set to 0

Reading pseudopotential file '/home/cam559/JDFTx/build/pseudopotentials/GBRV/hf_pbe.uspp':
  Title: Hf.  Created by USPP 7.3.6 on 14-9-2013
  Reference state energy: -78.399178.  12 valence electrons in orbitals:
    |500>  occupation: 2  eigenvalue: -3.016121
    |510>  occupation: 6  eigenvalue: -1.860466
    |600>  occupation: 0  eigenvalue: -0.643057
    |610>  occupation: 0  eigenvalue: -0.441591
    |520>  occupation: 2  eigenvalue: -0.613878
  lMax: 3  lLocal: 3  QijEcut: 5
  8 projectors sampled on a log grid with 679 points:
    l: 0  eig: -3.016122  rCut: 1.5
    l: 0  eig: -0.643058  rCut: 1.5
    l: 0  eig: 1.000000  rCut: 1.5
    l: 1  eig: -1.860465  rCut: 1.6
    l: 1  eig: -0.441594  rCut: 1.6
    l: 2  eig: -0.613878  rCut: 1.75
    l: 2  eig: 1.000000  rCut: 1.75
    l: 3  eig: 1.000000  rCut: 2.3
  Partial core density with radius 1
  Transforming core density to a uniform radial grid of dG=0.02 with 1396 points.
  Transforming local potential to a uniform radial grid of dG=0.02 with 1396 points.
  Transforming nonlocal projectors to a uniform radial grid of dG=0.02 with 432 points.
  Transforming density augmentations to a uniform radial grid of dG=0.02 with 1396 points.
  Transforming atomic orbitals to a uniform radial grid of dG=0.02 with 432 points.
  Core radius for overlap checks: 2.30 bohrs.

Reading pseudopotential file '/home/cam559/JDFTx/build/pseudopotentials/GBRV/o_pbe.uspp':
  Title: O.  Created by USPP 7.3.6 on 3-2-2014
  Reference state energy: -15.894388.  6 valence electrons in orbitals:
    |200>  occupation: 2  eigenvalue: -0.878823
    |210>  occupation: 4  eigenvalue: -0.332131
  lMax: 2  lLocal: 2  QijEcut: 6
  5 projectors sampled on a log grid with 511 points:
    l: 0  eig: -0.878823  rCut: 1.25
    l: 0  eig: 0.000000  rCut: 1.25
    l: 1  eig: -0.332132  rCut: 1.25
    l: 1  eig: 0.000000  rCut: 1.25
    l: 2  eig: 1.000000  rCut: 1.25
  Partial core density with radius 0.7
  Transforming core density to a uniform radial grid of dG=0.02 with 1396 points.
  Transforming local potential to a uniform radial grid of dG=0.02 with 1396 points.
  Transforming nonlocal projectors to a uniform radial grid of dG=0.02 with 432 points.
  Transforming density augmentations to a uniform radial grid of dG=0.02 with 1396 points.
  Transforming atomic orbitals to a uniform radial grid of dG=0.02 with 432 points.
  Core radius for overlap checks: 1.25 bohrs.

Initialized 2 species with 24 total atoms.

Folded 1 k-points by 3x6x6 to 108 k-points.

---------- Setting up k-points, bands, fillings ----------
Reduced to 40 k-points under symmetry. 
Computing the number of bands and number of electrons
Calculating initial fillings.
nElectrons: 192.000000   nBands: 168   nStates: 40

----- Setting up reduced wavefunction bases (one per k-point) -----
average nbasis = 7872.602 , ideal nbasis = 7871.382

---------- Setting up ewald sum ----------
Optimum gaussian width for ewald sums = 2.879689 bohr.
Real space sum over 567 unit cells with max indices [  3  4  4  ]
Reciprocal space sum over 5625 terms with max indices [  12  7  7  ]

---------- Allocating electronic variables ----------
Initializing wave functions:  linear combination of atomic orbitals
Hf pseudo-atom occupations:   s ( 2 2 )  p ( 6 0 )  d ( 2 )
O pseudo-atom occupations:   s ( 2 )  p ( 4 )
	FillingsUpdate:  mu: +0.578969755  nElectrons: 192.000000
LCAOMinimize: Iter:   0  F: -653.6068619356618683  |grad|_K:  3.573e-03  alpha:  1.000e+00
	FillingsUpdate:  mu: +0.558300714  nElectrons: 192.000000
LCAOMinimize: Iter:   1  F: -655.4229234075220347  |grad|_K:  2.672e-03  alpha:  1.348e-01  linmin: -4.644e-01  cgtest:  9.046e-01  t[s]:     25.89
LCAOMinimize: Encountered beta<0, resetting CG.
LCAOMinimize: 	Predicted alpha/alphaT>3.000000, increasing alphaT to 4.044006e-01.
	FillingsUpdate:  mu: +0.487675506  nElectrons: 192.000000
LCAOMinimize: Iter:   2  F: -657.0621966468312394  |grad|_K:  5.933e-04  alpha:  3.991e-01  linmin:  4.647e-01  cgtest: -7.833e-01  t[s]:     36.96
LCAOMinimize: 	Bad step direction: g.d > 0.
LCAOMinimize: 	Undoing step.
LCAOMinimize: 	Step failed: resetting search direction.
	FillingsUpdate:  mu: +0.487675506  nElectrons: 192.000000
LCAOMinimize: Iter:   3  F: -657.0621966468312394  |grad|_K:  5.933e-04  alpha:  0.000e+00
	FillingsUpdate:  mu: +0.505197250  nElectrons: 192.000000
LCAOMinimize: Iter:   4  F: -657.1186274503825189  |grad|_K:  5.839e-05  alpha:  2.873e-01  linmin: -3.873e-02  cgtest:  3.476e-02  t[s]:     52.65
	FillingsUpdate:  mu: +0.503911011  nElectrons: 192.000000
LCAOMinimize: Iter:   5  F: -657.1192078206541964  |grad|_K:  1.985e-05  alpha:  2.966e-01  linmin: -3.145e-04  cgtest: -8.700e-03  t[s]:     61.50
	FillingsUpdate:  mu: +0.504598278  nElectrons: 192.000000
LCAOMinimize: Iter:   6  F: -657.1193675748590977  |grad|_K:  3.521e-06  alpha:  7.096e-01  linmin:  6.745e-04  cgtest:  1.489e-02  t[s]:     70.44
	FillingsUpdate:  mu: +0.504486677  nElectrons: 192.000000
LCAOMinimize: Iter:   7  F: -657.1193698761317137  |grad|_K:  8.513e-07  alpha:  3.248e-01  linmin: -1.175e-03  cgtest:  5.946e-03  t[s]:     79.41
	FillingsUpdate:  mu: +0.504505488  nElectrons: 192.000000
LCAOMinimize: Iter:   8  F: -657.1193701381245091  |grad|_K:  3.656e-07  alpha:  6.325e-01  linmin:  3.077e-05  cgtest: -1.455e-03  t[s]:     88.35
	FillingsUpdate:  mu: +0.504496368  nElectrons: 192.000000
LCAOMinimize: Iter:   9  F: -657.1193701617876286  |grad|_K:  9.906e-08  alpha:  3.099e-01  linmin:  1.123e-05  cgtest:  2.831e-04  t[s]:     97.28
LCAOMinimize: Converged (|Delta F|<1.000000e-06 for 2 iters).


---- Citations for features of the code used in this run ----

   Software package:
      R. Sundararaman, K. Letchworth-Weaver, K.A. Schwarz, D. Gunceler, Y. Ozhabes and T.A. Arias, 'JDFTx: software for joint density-functional theory', SoftwareX 6, 278 (2017)

   gga-PBE exchange-correlation functional:
      J.P. Perdew, K. Burke and M. Ernzerhof, Phys. Rev. Lett. 77, 3865 (1996)

   Pseudopotentials:
      KF Garrity, JW Bennett, KM Rabe and D Vanderbilt, Comput. Mater. Sci. 81, 446 (2014)

   Total energy minimization with Auxiliary Hamiltonian:
      C. Freysoldt, S. Boeck, and J. Neugebauer, Phys. Rev. B 79, 241103(R) (2009)

This list may not be complete. Please suggest additional citations or
report any other bugs at https://github.com/shankar1729/jdftx/issues

Initialization completed successfully at t[s]:    100.69


-------- Electronic minimization -----------
	FillingsUpdate:  mu: +0.504496368  nElectrons: 192.000000
ElecMinimize: Iter:   0  F: -657.119370161787742  |grad|_K:  1.222e-04  alpha:  1.000e+00
	FillingsUpdate:  mu: +0.476045457  nElectrons: 192.000000
	SubspaceRotationAdjust: set factor to 0.901
ElecMinimize: Iter:   1  F: -657.479127405534541  |grad|_K:  6.907e-05  alpha:  4.491e-01  linmin:  4.447e-04  t[s]:    129.76
	FillingsUpdate:  mu: +0.485317796  nElectrons: 192.000000
	SubspaceRotationAdjust: set factor to 0.843
ElecMinimize: Iter:   2  F: -657.582050494001578  |grad|_K:  2.272e-05  alpha:  4.086e-01  linmin: -4.503e-04  t[s]:    147.96
	FillingsUpdate:  mu: +0.483095618  nElectrons: 192.000000
	SubspaceRotationAdjust: set factor to 1.13
ElecMinimize: Iter:   3  F: -657.599353795698903  |grad|_K:  1.024e-05  alpha:  6.217e-01  linmin:  3.043e-04  t[s]:    166.40
	FillingsUpdate:  mu: +0.482515088  nElectrons: 192.000000
	SubspaceRotationAdjust: set factor to 1.21
ElecMinimize: Iter:   4  F: -657.602363844964771  |grad|_K:  5.647e-06  alpha:  5.457e-01  linmin:  1.045e-04  t[s]:    184.64
	FillingsUpdate:  mu: +0.482544421  nElectrons: 192.000000
	SubspaceRotationAdjust: set factor to 1.09
ElecMinimize: Iter:   5  F: -657.603055484065976  |grad|_K:  2.625e-06  alpha:  4.091e-01  linmin:  1.993e-05  t[s]:    202.80
	FillingsUpdate:  mu: +0.482550096  nElectrons: 192.000000
	SubspaceRotationAdjust: set factor to 0.854
ElecMinimize: Iter:   6  F: -657.603208216618100  |grad|_K:  1.163e-06  alpha:  4.156e-01  linmin:  3.111e-05  t[s]:    221.23
	FillingsUpdate:  mu: +0.482376266  nElectrons: 192.000000
	SubspaceRotationAdjust: set factor to 0.804
ElecMinimize: Iter:   7  F: -657.603242216761032  |grad|_K:  5.860e-07  alpha:  4.725e-01  linmin:  1.283e-05  t[s]:    239.55
	FillingsUpdate:  mu: +0.482509331  nElectrons: 192.000000
	SubspaceRotationAdjust: set factor to 0.85
ElecMinimize: Iter:   8  F: -657.603250522537451  |grad|_K:  2.933e-07  alpha:  4.536e-01  linmin:  8.209e-06  t[s]:    257.91
	FillingsUpdate:  mu: +0.482470064  nElectrons: 192.000000
	SubspaceRotationAdjust: set factor to 1.11
ElecMinimize: Iter:   9  F: -657.603252837924401  |grad|_K:  1.398e-07  alpha:  5.047e-01  linmin:  4.676e-06  t[s]:    276.21
	FillingsUpdate:  mu: +0.482468341  nElectrons: 192.000000
	SubspaceRotationAdjust: set factor to 1.42
ElecMinimize: Iter:  10  F: -657.603253371050641  |grad|_K:  7.083e-08  alpha:  5.109e-01  linmin:  2.935e-06  t[s]:    294.58
	FillingsUpdate:  mu: +0.482476827  nElectrons: 192.000000
	SubspaceRotationAdjust: set factor to 1.39
ElecMinimize: Iter:  11  F: -657.603253497983701  |grad|_K:  3.597e-08  alpha:  4.742e-01  linmin:  8.923e-07  t[s]:    313.03
	FillingsUpdate:  mu: +0.482469537  nElectrons: 192.000000
	SubspaceRotationAdjust: set factor to 1.06
ElecMinimize: Iter:  12  F: -657.603253522560863  |grad|_K:  2.086e-08  alpha:  3.558e-01  linmin:  6.253e-08  t[s]:    331.37
	FillingsUpdate:  mu: +0.482474013  nElectrons: 192.000000
	SubspaceRotationAdjust: set factor to 0.836
ElecMinimize: Iter:  13  F: -657.603253531077144  |grad|_K:  1.042e-08  alpha:  3.661e-01  linmin:  9.331e-08  t[s]:    349.79
	FillingsUpdate:  mu: +0.482473242  nElectrons: 192.000000
	SubspaceRotationAdjust: set factor to 1.18
ElecMinimize: Iter:  14  F: -657.603253533843031  |grad|_K:  4.970e-09  alpha:  4.767e-01  linmin:  6.770e-08  t[s]:    368.15
ElecMinimize: Converged (|Delta F|<1.000000e-08 for 2 iters).
Setting wave functions to eigenvectors of Hamiltonian

# Ionic positions in cartesian coordinates:
ion Hf   2.585713666666666   4.458484666666667   6.630829250000000 1
ion Hf   6.835244666666667   9.325138666666666   6.777328250000000 1
ion Hf   6.862057666666666   5.274823166666666   1.792103750000000 1
ion Hf   2.612526666666667   0.408169166666667   1.645604750000000 1
ion Hf  12.087110166666665   4.458484666666667   5.083313749999999 1
ion Hf  16.336641166666666   9.325138666666666   5.229812750000000 1
ion Hf  16.363454166666667   5.274823166666666   0.244588250000000 1
ion Hf  12.113923166666666   0.408169166666667   0.098089250000000 1
ion O   4.204128166666667   7.227233916666666   9.063578000000000 1
ion O   5.216830166666667   2.360579916666667   4.344579500000000 1
ion O   5.243643166666666   2.506073916666667  -0.640645000000000 1
ion O   4.230941166666666   7.372727916666666   4.078353500000000 1
ion O   0.630955166666666   3.219377916666666   3.346506000000001 1
ion O   8.843629166666666   8.086031916666666   0.091202500000000 1
ion O   8.816816166666667   6.513929916666666   5.076427000000001 1
ion O   0.604142166666666   1.647275916666666   8.331730500000001 1
ion O  13.705524666666665   7.227233916666666   7.516062499999999 1
ion O  14.718226666666666   2.360579916666667   2.797064000000000 1
ion O  14.745039666666667   2.506073916666667  -2.188160500000000 1
ion O  13.732337666666666   7.372727916666666   2.530838000000000 1
ion O  10.132351666666667   3.219377916666666   1.798990500000000 1
ion O  18.345025666666668   8.086031916666666  -1.456313000000001 1
ion O  18.318212666666671   6.513929916666666   3.528911500000000 1
ion O  10.105538666666668   1.647275916666666   6.784215000000001 1

# Forces in Cartesian coordinates:
force Hf   0.002905906009056   0.000644449694672   0.000698225192643 1
force Hf  -0.002905906009056   0.000644449694672  -0.000698225192643 1
force Hf  -0.002905906009056  -0.000644449694672  -0.000698225192643 1
force Hf   0.002905906009056  -0.000644449694672   0.000698225192643 1
force Hf   0.002905906009056   0.000644449694672   0.000698225192643 1
force Hf  -0.002905906009056   0.000644449694672  -0.000698225192643 1
force Hf  -0.002905906009056  -0.000644449694672  -0.000698225192643 1
force Hf   0.002905906009056  -0.000644449694672   0.000698225192643 1
force O  -0.001375425828766   0.000169300838195   0.000803466079368 1
force O   0.001375425828766   0.000169300838195  -0.000803466079368 1
force O   0.001375425828766  -0.000169300838195  -0.000803466079368 1
force O  -0.001375425828766  -0.000169300838195   0.000803466079368 1
force O  -0.000476312552150  -0.000020271740542  -0.001085157550248 1
force O   0.000476312552150  -0.000020271740542   0.001085157550248 1
force O   0.000476312552150   0.000020271740542   0.001085157550248 1
force O  -0.000476312552150   0.000020271740542  -0.001085157550248 1
force O  -0.001375425828766   0.000169300838195   0.000803466079368 1
force O   0.001375425828766   0.000169300838195  -0.000803466079368 1
force O   0.001375425828766  -0.000169300838195  -0.000803466079368 1
force O  -0.001375425828766  -0.000169300838195   0.000803466079368 1
force O  -0.000476312552150  -0.000020271740542  -0.001085157550248 1
force O   0.000476312552150  -0.000020271740542   0.001085157550249 1
force O   0.000476312552150   0.000020271740542   0.001085157550248 1
force O  -0.000476312552150   0.000020271740542  -0.001085157550249 1

# Energy components:
   Eewald =     -522.2352231397903779
       EH =      124.1619400253712087
     Eloc =     -318.0156185124184844
      Enl =      -78.0691357565719386
      Exc =     -362.4490772170712489
 Exc_core =      238.5850517038434759
       KE =      260.4188093630842786
-------------------------------------
     Etot =     -657.6032535335533566
       TS =        0.0000000002897292
-------------------------------------
        F =     -657.6032535338430307

IonicMinimize: Iter:   0  F: -657.603253533843031  |grad|_K:  1.216e-03  t[s]:    372.51

#--- Lowdin population analysis ---
# oxidation-state Hf +0.766 +0.766 +0.766 +0.766 +0.766 +0.766 +0.766 +0.766
# oxidation-state O -0.371 -0.371 -0.371 -0.371 -0.353 -0.353 -0.353 -0.353 -0.371 -0.371 -0.371 -0.371 -0.353 -0.353 -0.353 -0.353


-------- Electronic minimization -----------
	FillingsUpdate:  mu: +0.482735177  nElectrons: 192.000000
ElecMinimize: Iter:   0  F: -657.603325503025758  |grad|_K:  7.975e-07  alpha:  1.000e+00
	FillingsUpdate:  mu: +0.482506766  nElectrons: 192.000000
	SubspaceRotationAdjust: set factor to 0.845
ElecMinimize: Iter:   1  F: -657.603336548168386  |grad|_K:  4.449e-07  alpha:  3.244e-01  linmin: -2.776e-05  t[s]:    407.19
	FillingsUpdate:  mu: +0.482587442  nElectrons: 192.000000
	SubspaceRotationAdjust: set factor to 1.5
ElecMinimize: Iter:   2  F: -657.603340933005825  |grad|_K:  1.606e-07  alpha:  4.138e-01  linmin:  2.016e-06  t[s]:    425.62
	FillingsUpdate:  mu: +0.482584565  nElectrons: 192.000000
	SubspaceRotationAdjust: set factor to 2.17
ElecMinimize: Iter:   3  F: -657.603341554474355  |grad|_K:  5.233e-08  alpha:  4.504e-01  linmin:  7.582e-08  t[s]:    444.05
	FillingsUpdate:  mu: +0.482588016  nElectrons: 192.000000
	SubspaceRotationAdjust: set factor to 1.9
ElecMinimize: Iter:   4  F: -657.603341620574270  |grad|_K:  2.316e-08  alpha:  4.514e-01  linmin:  2.518e-07  t[s]:    462.52
	FillingsUpdate:  mu: +0.482583343  nElectrons: 192.000000
	SubspaceRotationAdjust: set factor to 1.06
ElecMinimize: Iter:   5  F: -657.603341626144129  |grad|_K:  1.383e-08  alpha:  1.942e-01  linmin: -4.828e-08  t[s]:    481.07
	FillingsUpdate:  mu: +0.482585260  nElectrons: 192.000000
	SubspaceRotationAdjust: set factor to 1.34
ElecMinimize: Iter:   6  F: -657.603341630780278  |grad|_K:  6.334e-09  alpha:  4.530e-01  linmin:  1.115e-07  t[s]:    499.41
ElecMinimize: Converged (|Delta F|<1.000000e-08 for 2 iters).
Setting wave functions to eigenvectors of Hamiltonian

# Ionic positions in cartesian coordinates:
ion Hf   2.588619572675723   4.459129116361339   6.631527475192642 1
ion Hf   6.832338760657612   9.325783116361340   6.776630024807357 1
ion Hf   6.859151760657610   5.274178716971994   1.791405524807357 1
ion Hf   2.615432572675723   0.407524716971995   1.646302975192643 1
ion Hf  12.090016072675722   4.459129116361339   5.084011975192642 1
ion Hf  16.333735260657612   9.325783116361340   5.229114524807358 1
ion Hf  16.360548260657612   5.274178716971994   0.243890024807357 1
ion Hf  12.116829072675721   0.407524716971995   0.098787475192643 1
ion O   4.202752740837901   7.227403217504861   9.064381466079370 1
ion O   5.218205592495432   2.360749217504862   4.343776033920631 1
ion O   5.245018592495431   2.505904615828471  -0.641448466079368 1
ion O   4.229565740837900   7.372558615828471   4.079156966079367 1
ion O   0.630478854114516   3.219357644926125   3.345420842449752 1
ion O   8.844105479218817   8.086011644926126   0.092287657550248 1
ion O   8.817292479218818   6.513950188407208   5.077512157550249 1
ion O   0.603665854114516   1.647296188407208   8.330645342449753 1
ion O  13.704149240837900   7.227403217504861   7.516865966079369 1
ion O  14.719602092495434   2.360749217504862   2.796260533920631 1
ion O  14.746415092495434   2.505904615828471  -2.188963966079368 1
ion O  13.730962240837899   7.372558615828471   2.531641466079368 1
ion O  10.131875354114515   3.219357644926125   1.797905342449752 1
ion O  18.345501979218820   8.086011644926126  -1.455227842449752 1
ion O  18.318688979218820   6.513950188407208   3.529996657550249 1
ion O  10.105062354114516   1.647296188407208   6.783129842449752 1

# Forces in Cartesian coordinates:
force Hf   0.001610570677377   0.000328325771186   0.000473022551716 1
force Hf  -0.001610570677377   0.000328325771186  -0.000473022551716 1
force Hf  -0.001610570677377  -0.000328325771186  -0.000473022551716 1
force Hf   0.001610570677378  -0.000328325771186   0.000473022551716 1
force Hf   0.001610570677377   0.000328325771186   0.000473022551715 1
force Hf  -0.001610570677378   0.000328325771186  -0.000473022551716 1
force Hf  -0.001610570677377  -0.000328325771186  -0.000473022551716 1
force Hf   0.001610570677378  -0.000328325771186   0.000473022551716 1
force O  -0.001214606621861   0.000175678879584   0.000829884698745 1
force O   0.001214606621861   0.000175678879584  -0.000829884698745 1
force O   0.001214606621861  -0.000175678879584  -0.000829884698745 1
force O  -0.001214606621861  -0.000175678879584   0.000829884698745 1
force O  -0.000235572190451  -0.000003018495825  -0.000976196568233 1
force O   0.000235572190451  -0.000003018495825   0.000976196568233 1
force O   0.000235572190451   0.000003018495825   0.000976196568233 1
force O  -0.000235572190451   0.000003018495825  -0.000976196568233 1
force O  -0.001214606621861   0.000175678879584   0.000829884698745 1
force O   0.001214606621861   0.000175678879584  -0.000829884698745 1
force O   0.001214606621861  -0.000175678879584  -0.000829884698745 1
force O  -0.001214606621860  -0.000175678879584   0.000829884698745 1
force O  -0.000235572190451  -0.000003018495825  -0.000976196568233 1
force O   0.000235572190451  -0.000003018495825   0.000976196568233 1
force O   0.000235572190451   0.000003018495825   0.000976196568233 1
force O  -0.000235572190451   0.000003018495825  -0.000976196568233 1

# Energy components:
   Eewald =     -522.2584762812753070
       EH =      124.1338155137265602
     Eloc =     -317.9593716054467905
      Enl =      -78.0685498245575786
      Exc =     -362.4464110326908326
 Exc_core =      238.5850503659710284
       KE =      260.4106012338023675
-------------------------------------
     Etot =     -657.6033416304704815
       TS =        0.0000000003098313
-------------------------------------
        F =     -657.6033416307802781

IonicMinimize: Iter:   1  F: -657.603341630780278  |grad|_K:  8.252e-04  alpha:  1.000e+00  linmin: -9.697e-01  t[s]:    503.70

#--- Lowdin population analysis ---
# oxidation-state Hf +0.766 +0.766 +0.766 +0.766 +0.766 +0.766 +0.766 +0.766
# oxidation-state O -0.371 -0.371 -0.371 -0.371 -0.354 -0.354 -0.354 -0.354 -0.371 -0.371 -0.371 -0.371 -0.354 -0.354 -0.354 -0.354


-------- Electronic minimization -----------
	FillingsUpdate:  mu: +0.483041110  nElectrons: 192.000000
ElecMinimize: Iter:   0  F: -657.603353490841869  |grad|_K:  1.947e-06  alpha:  1.000e+00
	FillingsUpdate:  mu: +0.482501119  nElectrons: 192.000000
	SubspaceRotationAdjust: set factor to 0.872
ElecMinimize: Iter:   1  F: -657.603427933039939  |grad|_K:  1.274e-06  alpha:  3.663e-01  linmin: -6.339e-05  t[s]:    538.02
	FillingsUpdate:  mu: +0.482772633  nElectrons: 192.000000
	SubspaceRotationAdjust: set factor to 1.4
ElecMinimize: Iter:   2  F: -657.603455862173632  |grad|_K:  3.495e-07  alpha:  3.212e-01  linmin:  1.878e-06  t[s]:    556.44
	FillingsUpdate:  mu: +0.482762160  nElectrons: 192.000000
	SubspaceRotationAdjust: set factor to 1.84
ElecMinimize: Iter:   3  F: -657.603458693084349  |grad|_K:  1.158e-07  alpha:  4.335e-01  linmin:  1.368e-08  t[s]:    574.80
	FillingsUpdate:  mu: +0.482762414  nElectrons: 192.000000
	SubspaceRotationAdjust: set factor to 1.78
ElecMinimize: Iter:   4  F: -657.603459039781342  |grad|_K:  4.558e-08  alpha:  4.836e-01  linmin:  6.110e-07  t[s]:    593.23
	FillingsUpdate:  mu: +0.482755345  nElectrons: 192.000000
	SubspaceRotationAdjust: set factor to 1.31
ElecMinimize: Iter:   5  F: -657.603459084472206  |grad|_K:  3.708e-08  alpha:  4.023e-01  linmin:  1.685e-07  t[s]:    611.54
	FillingsUpdate:  mu: +0.482762242  nElectrons: 192.000000
	SubspaceRotationAdjust: set factor to 0.829
ElecMinimize: Iter:   6  F: -657.603459104403896  |grad|_K:  1.564e-08  alpha:  2.711e-01  linmin: -5.739e-08  t[s]:    629.88
	FillingsUpdate:  mu: +0.482759891  nElectrons: 192.000000
	SubspaceRotationAdjust: set factor to 0.932
ElecMinimize: Iter:   7  F: -657.603459109830851  |grad|_K:  7.868e-09  alpha:  4.151e-01  linmin:  2.489e-08  t[s]:    648.37
	FillingsUpdate:  mu: +0.482760090  nElectrons: 192.000000
	SubspaceRotationAdjust: set factor to 1.04
ElecMinimize: Iter:   8  F: -657.603459111175198  |grad|_K:  3.339e-09  alpha:  4.062e-01  linmin: -2.966e-08  t[s]:    666.81
ElecMinimize: Converged (|Delta F|<1.000000e-08 for 2 iters).
Setting wave functions to eigenvectors of Hamiltonian

# Ionic positions in cartesian coordinates:
ion Hf   2.593737576727106   4.460064549657169   6.633352382624306 1
ion Hf   6.827220756606228   9.326718549657167   6.774805117375694 1
ion Hf   6.854033756606227   5.273243283676164   1.789580617375693 1
ion Hf   2.620550576727106   0.406589283676166   1.648127882624307 1
ion Hf  12.095134076727104   4.460064549657169   5.085836882624306 1
ion Hf  16.328617256606229   9.326718549657167   5.227289617375694 1
ion Hf  16.355430256606230   5.273243283676164   0.242065117375693 1
ion Hf  12.121947076727105   0.406589283676166   0.100612382624307 1
ion O   4.197201584693665   7.228267560353681   9.068456821237403 1
ion O   5.223756748639668   2.361613560353681   4.339700678762595 1
ion O   5.250569748639667   2.505040272979652  -0.645523821237403 1
ion O   4.224014584693665   7.371694272979652   4.083232321237403 1
ion O   0.629836543142703   3.219378781725848   3.340917241040138 1
ion O   8.844747790190629   8.086032781725848   0.096791258959862 1
ion O   8.817934790190629   6.513929051607485   5.082015758959862 1
ion O   0.603023543142703   1.647275051607485   8.326141741040137 1
ion O  13.698598084693662   7.228267560353681   7.520941321237403 1
ion O  14.725153248639669   2.361613560353681   2.792185178762595 1
ion O  14.751966248639672   2.505040272979652  -2.193039321237404 1
ion O  13.725411084693663   7.371694272979652   2.535716821237404 1
ion O  10.131233043142702   3.219378781725848   1.793401741040137 1
ion O  18.346144290190633   8.086032781725848  -1.450724241040138 1
ion O  18.319331290190632   6.513929051607485   3.534500258959862 1
ion O  10.104420043142701   1.647275051607485   6.778626241040138 1

# Forces in Cartesian coordinates:
force Hf  -0.000576506538090  -0.000124335789040  -0.000166142674764 1
force Hf   0.000576506538090  -0.000124335789040   0.000166142674764 1
force Hf   0.000576506538090   0.000124335789040   0.000166142674764 1
force Hf  -0.000576506538090   0.000124335789040  -0.000166142674764 1
force Hf  -0.000576506538089  -0.000124335789040  -0.000166142674764 1
force Hf   0.000576506538090  -0.000124335789040   0.000166142674764 1
force Hf   0.000576506538090   0.000124335789040   0.000166142674764 1
force Hf  -0.000576506538090   0.000124335789040  -0.000166142674764 1
force O  -0.000627361089633   0.000054054244110   0.000701854033487 1
force O   0.000627361089633   0.000054054244110  -0.000701854033487 1
force O   0.000627361089633  -0.000054054244110  -0.000701854033487 1
force O  -0.000627361089633  -0.000054054244110   0.000701854033487 1
force O   0.000227744470574   0.000280626580009  -0.000497759783947 1
force O  -0.000227744470574   0.000280626580009   0.000497759783947 1
force O  -0.000227744470574  -0.000280626580009   0.000497759783947 1
force O   0.000227744470574  -0.000280626580009  -0.000497759783947 1
force O  -0.000627361089633   0.000054054244110   0.000701854033487 1
force O   0.000627361089633   0.000054054244110  -0.000701854033487 1
force O   0.000627361089633  -0.000054054244110  -0.000701854033487 1
force O  -0.000627361089633  -0.000054054244110   0.000701854033487 1
force O   0.000227744470574   0.000280626580009  -0.000497759783947 1
force O  -0.000227744470574   0.000280626580009   0.000497759783947 1
force O  -0.000227744470574  -0.000280626580009   0.000497759783947 1
force O   0.000227744470574  -0.000280626580009  -0.000497759783947 1

# Energy components:
   Eewald =     -522.3551172056641008
       EH =      124.0271722476236675
     Eloc =     -317.7429019418279950
      Enl =      -78.0675227321206933
      Exc =     -362.4392803311058060
 Exc_core =      238.5850476114075036
       KE =      260.3891432408654509
-------------------------------------
     Etot =     -657.6034591108219729
       TS =        0.0000000003531724
-------------------------------------
        F =     -657.6034591111751979

IonicMinimize: Iter:   2  F: -657.603459111175198  |grad|_K:  4.273e-04  alpha:  1.000e+00  linmin: -4.010e-01  t[s]:    671.12

#--- Lowdin population analysis ---
# oxidation-state Hf +0.766 +0.766 +0.766 +0.766 +0.766 +0.766 +0.766 +0.766
# oxidation-state O -0.370 -0.370 -0.370 -0.370 -0.355 -0.355 -0.355 -0.355 -0.370 -0.370 -0.370 -0.370 -0.355 -0.355 -0.355 -0.355


-------- Electronic minimization -----------
	FillingsUpdate:  mu: +0.482772734  nElectrons: 192.000000
ElecMinimize: Iter:   0  F: -657.603465664717987  |grad|_K:  9.503e-07  alpha:  1.000e+00
	FillingsUpdate:  mu: +0.482676972  nElectrons: 192.000000
	SubspaceRotationAdjust: set factor to 1.03
ElecMinimize: Iter:   1  F: -657.603497567995419  |grad|_K:  4.021e-07  alpha:  6.606e-01  linmin: -3.123e-07  t[s]:    705.59
	FillingsUpdate:  mu: +0.482778694  nElectrons: 192.000000
	SubspaceRotationAdjust: set factor to 0.842
ElecMinimize: Iter:   2  F: -657.603501065328715  |grad|_K:  2.083e-07  alpha:  4.044e-01  linmin:  9.344e-08  t[s]:    723.96
	FillingsUpdate:  mu: +0.482734345  nElectrons: 192.000000
	SubspaceRotationAdjust: set factor to 0.782
ElecMinimize: Iter:   3  F: -657.603501870852256  |grad|_K:  5.757e-08  alpha:  3.474e-01  linmin:  3.905e-08  t[s]:    742.25
	FillingsUpdate:  mu: +0.482736770  nElectrons: 192.000000
	SubspaceRotationAdjust: set factor to 0.946
ElecMinimize: Iter:   4  F: -657.603501944409231  |grad|_K:  2.022e-08  alpha:  4.151e-01  linmin:  1.802e-07  t[s]:    760.63
	FillingsUpdate:  mu: +0.482737459  nElectrons: 192.000000
	SubspaceRotationAdjust: set factor to 1.13
ElecMinimize: Iter:   5  F: -657.603501955623983  |grad|_K:  9.184e-09  alpha:  5.128e-01  linmin:  1.256e-07  t[s]:    779.07
	FillingsUpdate:  mu: +0.482737081  nElectrons: 192.000000
	SubspaceRotationAdjust: set factor to 1.24
ElecMinimize: Iter:   6  F: -657.603501957742765  |grad|_K:  4.588e-09  alpha:  4.698e-01  linmin:  9.025e-08  t[s]:    797.49
	FillingsUpdate:  mu: +0.482737579  nElectrons: 192.000000
	SubspaceRotationAdjust: set factor to 1.15
ElecMinimize: Iter:   7  F: -657.603501958248557  |grad|_K:  2.322e-09  alpha:  4.495e-01  linmin: -8.005e-08  t[s]:    815.97
ElecMinimize: Converged (|Delta F|<1.000000e-08 for 2 iters).
Setting wave functions to eigenvectors of Hamiltonian

# Ionic positions in cartesian coordinates:
ion Hf   2.594255513119463   4.460174150120207   6.633426580481344 1
ion Hf   6.826702820213871   9.326828150120207   6.774730919518657 1
ion Hf   6.853515820213871   5.273133683213126   1.789506419518655 1
ion Hf   2.621068513119464   0.406479683213127   1.648202080481345 1
ion Hf  12.095652013119462   4.460174150120207   5.085911080481344 1
ion Hf  16.328099320213870   9.326828150120207   5.227215419518656 1
ion Hf  16.354912320213870   5.273133683213126   0.241990919518655 1
ion Hf  12.122465013119463   0.406479683213127   0.100686580481345 1
ion O   4.193196575206727   7.228688416589966   9.072165723358310 1
ion O   5.227761758126607   2.362034416589966   4.335991776641690 1
ion O   5.254574758126606   2.504619416743368  -0.649232723358310 1
ion O   4.220009575206726   7.371273416743366   4.086941223358309 1
ion O   0.630283057982340   3.220445214906977   3.337735004114037 1
ion O   8.844301275350992   8.087099214906978   0.099973495885963 1
ion O   8.817488275350993   6.512862618426355   5.085197995885963 1
ion O   0.603470057982340   1.646208618426356   8.322959504114037 1
ion O  13.694593075206724   7.228688416589966   7.524650223358310 1
ion O  14.729158258126608   2.362034416589966   2.788476276641690 1
ion O  14.755971258126612   2.504619416743368  -2.196748223358310 1
ion O  13.721406075206724   7.371273416743366   2.539425723358310 1
ion O  10.131679557982338   3.220445214906977   1.790219504114037 1
ion O  18.345697775350995   8.087099214906978  -1.447542004114038 1
ion O  18.318884775350998   6.512862618426355   3.537682495885962 1
ion O  10.104866557982337   1.646208618426356   6.775444004114037 1

# Forces in Cartesian coordinates:
force Hf  -0.000652600972793  -0.000150644488504  -0.000340782960230 1
force Hf   0.000652600972793  -0.000150644488504   0.000340782960230 1
force Hf   0.000652600972793   0.000150644488504   0.000340782960230 1
force Hf  -0.000652600972793   0.000150644488504  -0.000340782960230 1
force Hf  -0.000652600972793  -0.000150644488504  -0.000340782960230 1
force Hf   0.000652600972793  -0.000150644488504   0.000340782960230 1
force Hf   0.000652600972793   0.000150644488504   0.000340782960230 1
force Hf  -0.000652600972793   0.000150644488504  -0.000340782960230 1
force O  -0.000229000282697  -0.000089287801752   0.000500688166593 1
force O   0.000229000282697  -0.000089287801752  -0.000500688166593 1
force O   0.000229000282697   0.000089287801752  -0.000500688166593 1
force O  -0.000229000282697   0.000089287801752   0.000500688166593 1
force O   0.000372168645135   0.000449828796048  -0.000263633812070 1
force O  -0.000372168645134   0.000449828796048   0.000263633812070 1
force O  -0.000372168645135  -0.000449828796048   0.000263633812070 1
force O   0.000372168645135  -0.000449828796048  -0.000263633812070 1
force O  -0.000229000282696  -0.000089287801752   0.000500688166593 1
force O   0.000229000282697  -0.000089287801752  -0.000500688166593 1
force O   0.000229000282697   0.000089287801752  -0.000500688166593 1
force O  -0.000229000282697   0.000089287801752   0.000500688166593 1
force O   0.000372168645135   0.000449828796048  -0.000263633812070 1
force O  -0.000372168645134   0.000449828796048   0.000263633812070 1
force O  -0.000372168645135  -0.000449828796048   0.000263633812070 1
force O   0.000372168645135  -0.000449828796048  -0.000263633812070 1

# Energy components:
   Eewald =     -522.4191068526752133
       EH =      123.9608743590278834
     Eloc =     -317.6064886723529526
      Enl =      -78.0673002947983576
      Exc =     -362.4359986899115711
 Exc_core =      238.5850472823744326
       KE =      260.3794709104495837
-------------------------------------
     Etot =     -657.6035019578862375
       TS =        0.0000000003623122
-------------------------------------
        F =     -657.6035019582485575

IonicMinimize: Iter:   3  F: -657.603501958248557  |grad|_K:  3.780e-04  alpha:  1.000e+00  linmin: -5.244e-01  t[s]:    820.28

#--- Lowdin population analysis ---
# oxidation-state Hf +0.766 +0.766 +0.766 +0.766 +0.766 +0.766 +0.766 +0.766
# oxidation-state O -0.370 -0.370 -0.370 -0.370 -0.355 -0.355 -0.355 -0.355 -0.370 -0.370 -0.370 -0.370 -0.355 -0.355 -0.355 -0.355


-------- Electronic minimization -----------
	FillingsUpdate:  mu: +0.482647568  nElectrons: 192.000000
ElecMinimize: Iter:   0  F: -657.603362624735041  |grad|_K:  2.368e-06  alpha:  1.000e+00
	FillingsUpdate:  mu: +0.482551255  nElectrons: 192.000000
	SubspaceRotationAdjust: set factor to 1.68
ElecMinimize: Iter:   1  F: -657.603558933372938  |grad|_K:  8.048e-07  alpha:  6.549e-01  linmin: -4.800e-07  t[s]:    854.76
	FillingsUpdate:  mu: +0.482678608  nElectrons: 192.000000
	SubspaceRotationAdjust: set factor to 1.67
ElecMinimize: Iter:   2  F: -657.603575274849732  |grad|_K:  3.783e-07  alpha:  4.718e-01  linmin:  2.404e-07  t[s]:    873.04
	FillingsUpdate:  mu: +0.482582729  nElectrons: 192.000000
	SubspaceRotationAdjust: set factor to 0.9
ElecMinimize: Iter:   3  F: -657.603577080850187  |grad|_K:  1.643e-07  alpha:  2.359e-01  linmin: -1.290e-06  t[s]:    891.31
	FillingsUpdate:  mu: +0.482610848  nElectrons: 192.000000
	SubspaceRotationAdjust: set factor to 0.604
ElecMinimize: Iter:   4  F: -657.603577513976347  |grad|_K:  5.793e-08  alpha:  3.001e-01  linmin:  1.384e-07  t[s]:    909.72
	FillingsUpdate:  mu: +0.482612167  nElectrons: 192.000000
	SubspaceRotationAdjust: set factor to 0.694
ElecMinimize: Iter:   5  F: -657.603577599686332  |grad|_K:  3.071e-08  alpha:  4.776e-01  linmin:  2.726e-07  t[s]:    928.15
	FillingsUpdate:  mu: +0.482608126  nElectrons: 192.000000
	SubspaceRotationAdjust: set factor to 0.793
ElecMinimize: Iter:   6  F: -657.603577624240302  |grad|_K:  1.655e-08  alpha:  4.868e-01  linmin:  2.360e-07  t[s]:    946.59
	FillingsUpdate:  mu: +0.482609130  nElectrons: 192.000000
	SubspaceRotationAdjust: set factor to 1.01
ElecMinimize: Iter:   7  F: -657.603577631415988  |grad|_K:  8.034e-09  alpha:  4.898e-01  linmin:  1.084e-07  t[s]:    964.89
	FillingsUpdate:  mu: +0.482609210  nElectrons: 192.000000
	SubspaceRotationAdjust: set factor to 1.43
ElecMinimize: Iter:   8  F: -657.603577633073314  |grad|_K:  3.619e-09  alpha:  4.801e-01  linmin: -4.545e-08  t[s]:    983.15
ElecMinimize: Converged (|Delta F|<1.000000e-08 for 2 iters).
Setting wave functions to eigenvectors of Hamiltonian

# Ionic positions in cartesian coordinates:
ion Hf   2.595128105888520   4.460178130454131   6.630492743896490 1
ion Hf   6.825830227444814   9.326832130454131   6.777664756103509 1
ion Hf   6.852643227444813   5.273129702879202   1.792440256103508 1
ion Hf   2.621941105888521   0.406475702879203   1.645268243896492 1
ion Hf  12.096524605888519   4.460178130454131   5.082977243896490 1
ion Hf  16.327226727444813   9.326832130454131   5.230149256103509 1
ion Hf  16.354039727444814   5.273129702879202   0.244924756103508 1
ion Hf  12.123337605888517   0.406475702879203   0.097752743896492 1
ion O   4.186366671372189   7.227490714399851   9.081582416583570 1
ion O   5.234591661961145   2.360836714399850   4.326575083416428 1
ion O   5.261404661961144   2.505817118933483  -0.658649416583571 1
ion O   4.213179671372188   7.372471118933482   4.096357916583571 1
ion O   0.634505052195602   3.227412722110250   3.330761218463325 1
ion O   8.840079281137731   8.094066722110250   0.106947281536676 1
ion O   8.813266281137730   6.505895111223083   5.092171781536676 1
ion O   0.607692052195602   1.639241111223083   8.315985718463326 1
ion O  13.687763171372188   7.227490714399851   7.534066916583571 1
ion O  14.735988161961146   2.360836714399850   2.779059583416428 1
ion O  14.762801161961148   2.505817118933483  -2.206164916583572 1
ion O  13.714576171372189   7.372471118933482   2.548842416583572 1
ion O  10.135901552195600   3.227412722110250   1.783245718463325 1
ion O  18.341475781137735   8.094066722110250  -1.440568218463325 1
ion O  18.314662781137734   6.505895111223083   3.544656281536675 1
ion O  10.109088552195599   1.639241111223083   6.768470218463325 1

# Forces in Cartesian coordinates:
force Hf  -0.000599796259312  -0.000145594546199  -0.000210578433460 1
force Hf   0.000599796259312  -0.000145594546198   0.000210578433460 1
force Hf   0.000599796259312   0.000145594546199   0.000210578433460 1
force Hf  -0.000599796259312   0.000145594546199  -0.000210578433460 1
force Hf  -0.000599796259312  -0.000145594546198  -0.000210578433460 1
force Hf   0.000599796259312  -0.000145594546199   0.000210578433460 1
force Hf   0.000599796259312   0.000145594546199   0.000210578433461 1
force Hf  -0.000599796259312   0.000145594546199  -0.000210578433461 1
force O   0.000305955849240  -0.000197374894616   0.000028700648306 1
force O  -0.000305955849239  -0.000197374894617  -0.000028700648306 1
force O  -0.000305955849239   0.000197374894616  -0.000028700648306 1
force O   0.000305955849240   0.000197374894616   0.000028700648306 1
force O   0.000406210498345   0.000507316096655  -0.000224752871445 1
force O  -0.000406210498345   0.000507316096655   0.000224752871445 1
force O  -0.000406210498345  -0.000507316096655   0.000224752871445 1
force O   0.000406210498345  -0.000507316096655  -0.000224752871445 1
force O   0.000305955849240  -0.000197374894616   0.000028700648306 1
force O  -0.000305955849240  -0.000197374894616  -0.000028700648306 1
force O  -0.000305955849240   0.000197374894616  -0.000028700648306 1
force O   0.000305955849240   0.000197374894616   0.000028700648306 1
force O   0.000406210498344   0.000507316096655  -0.000224752871445 1
force O  -0.000406210498345   0.000507316096655   0.000224752871445 1
force O  -0.000406210498345  -0.000507316096655   0.000224752871445 1
force O   0.000406210498344  -0.000507316096655  -0.000224752871445 1

# Energy components:
   Eewald =     -522.4929782585593330
       EH =      123.8819255796700247
     Eloc =     -317.4436702651315159
      Enl =      -78.0668680364362189
      Exc =     -362.4306978451701298
 Exc_core =      238.5850456509391506
       KE =      260.3636655419882686
-------------------------------------
     Etot =     -657.6035776326996256
       TS =        0.0000000003736811
-------------------------------------
        F =     -657.6035776330733142

IonicMinimize: Iter:   4  F: -657.603577633073314  |grad|_K:  3.386e-04  alpha:  1.000e+00  linmin: -3.246e-01  t[s]:    987.41

#--- Lowdin population analysis ---
# oxidation-state Hf +0.766 +0.766 +0.766 +0.766 +0.766 +0.766 +0.766 +0.766
# oxidation-state O -0.370 -0.370 -0.370 -0.370 -0.355 -0.355 -0.355 -0.355 -0.370 -0.370 -0.370 -0.370 -0.355 -0.355 -0.355 -0.355


-------- Electronic minimization -----------
	FillingsUpdate:  mu: +0.482911217  nElectrons: 192.000000
ElecMinimize: Iter:   0  F: -657.567931517444777  |grad|_K:  3.693e-05  alpha:  1.000e+00
	FillingsUpdate:  mu: +0.482427287  nElectrons: 192.000000
	SubspaceRotationAdjust: set factor to 1.13
ElecMinimize: Iter:   1  F: -657.601674467381599  |grad|_K:  8.161e-06  alpha:  4.629e-01  linmin:  4.037e-05  t[s]:   1021.14
	FillingsUpdate:  mu: +0.482525743  nElectrons: 192.000000
	SubspaceRotationAdjust: set factor to 1.3
ElecMinimize: Iter:   2  F: -657.603360999974711  |grad|_K:  3.025e-06  alpha:  4.737e-01  linmin:  3.047e-06  t[s]:   1039.58
	FillingsUpdate:  mu: +0.482324338  nElectrons: 192.000000
	SubspaceRotationAdjust: set factor to 0.933
ElecMinimize: Iter:   3  F: -657.603593035617791  |grad|_K:  1.738e-06  alpha:  4.744e-01  linmin: -2.521e-06  t[s]:   1057.87
	FillingsUpdate:  mu: +0.482516521  nElectrons: 192.000000
	SubspaceRotationAdjust: set factor to 0.548
ElecMinimize: Iter:   4  F: -657.603644821745434  |grad|_K:  6.924e-07  alpha:  3.207e-01  linmin: -4.810e-07  t[s]:   1076.06
	FillingsUpdate:  mu: +0.482386702  nElectrons: 192.000000
	SubspaceRotationAdjust: set factor to 0.564
ElecMinimize: Iter:   5  F: -657.603657441974860  |grad|_K:  3.711e-07  alpha:  4.923e-01  linmin:  6.076e-06  t[s]:   1094.43
	FillingsUpdate:  mu: +0.482435300  nElectrons: 192.000000
	SubspaceRotationAdjust: set factor to 0.629
ElecMinimize: Iter:   6  F: -657.603660810998122  |grad|_K:  1.480e-07  alpha:  4.576e-01  linmin:  2.926e-06  t[s]:   1112.61
	FillingsUpdate:  mu: +0.482438215  nElectrons: 192.000000
	SubspaceRotationAdjust: set factor to 0.701
ElecMinimize: Iter:   7  F: -657.603661378167317  |grad|_K:  8.019e-08  alpha:  4.840e-01  linmin:  1.549e-06  t[s]:   1130.82
	FillingsUpdate:  mu: +0.482434756  nElectrons: 192.000000
	SubspaceRotationAdjust: set factor to 0.884
ElecMinimize: Iter:   8  F: -657.603661543060639  |grad|_K:  3.455e-08  alpha:  4.796e-01  linmin:  1.241e-06  t[s]:   1149.39
	FillingsUpdate:  mu: +0.482440437  nElectrons: 192.000000
	SubspaceRotationAdjust: set factor to 1.02
ElecMinimize: Iter:   9  F: -657.603661574279045  |grad|_K:  1.918e-08  alpha:  4.893e-01  linmin:  4.132e-07  t[s]:   1167.69
	FillingsUpdate:  mu: +0.482436557  nElectrons: 192.000000
	SubspaceRotationAdjust: set factor to 1.03
ElecMinimize: Iter:  10  F: -657.603661582896052  |grad|_K:  8.389e-09  alpha:  4.381e-01  linmin:  1.869e-07  t[s]:   1185.84
	FillingsUpdate:  mu: +0.482437551  nElectrons: 192.000000
	SubspaceRotationAdjust: set factor to 0.919
ElecMinimize: Iter:  11  F: -657.603661584654105  |grad|_K:  3.468e-09  alpha:  4.671e-01  linmin:  5.050e-08  t[s]:   1204.14
ElecMinimize: Converged (|Delta F|<1.000000e-08 for 2 iters).
Setting wave functions to eigenvectors of Hamiltonian

# Ionic positions in cartesian coordinates:
ion Hf   2.594935042473397   4.459753490814545   6.628822802614323 1
ion Hf   6.826023290859937   9.326407490814544   6.779334697385676 1
ion Hf   6.852836290859937   5.273554342518789   1.794110197385675 1
ion Hf   2.621748042473397   0.406900342518790   1.643598302614325 1
ion Hf  12.096331542473395   4.459753490814545   5.081307302614324 1
ion Hf  16.327419790859938   9.326407490814544   5.231819197385676 1
ion Hf  16.354232790859939   5.273554342518789   0.246594697385675 1
ion Hf  12.123144542473396   0.406900342518790   0.096082802614326 1
ion O   4.182848045337991   7.223925923911805   9.090267338478935 1
ion O   5.238110287995342   2.357271923911804   4.317890161521067 1
ion O   5.264923287995340   2.509381909421529  -0.667334338478933 1
ion O   4.209661045337992   7.376035909421527   4.105042838478933 1
ion O   0.642733772794287   3.240874999102008   3.316459518792555 1
ion O   8.831850560539046   8.107528999102009   0.121248981207446 1
ion O   8.805037560539045   6.492432834231324   5.106473481207446 1
ion O   0.615920772794288   1.625778834231325   8.301684018792557 1
ion O  13.684244545337991   7.223925923911805   7.542751838478933 1
ion O  14.739506787995342   2.357271923911804   2.770374661521066 1
ion O  14.766319787995345   2.509381909421529  -2.214849838478933 1
ion O  13.711057545337992   7.376035909421527   2.557527338478934 1
ion O  10.144130272794285   3.240874999102008   1.768944018792555 1
ion O  18.333247060539048   8.107528999102009  -1.426266518792555 1
ion O  18.306434060539051   6.492432834231324   3.558957981207445 1
ion O  10.117317272794285   1.625778834231325   6.754168518792556 1

# Forces in Cartesian coordinates:
force Hf  -0.000072414936964   0.000101978440933  -0.000328970112956 1
force Hf   0.000072414936964   0.000101978440933   0.000328970112956 1
force Hf   0.000072414936964  -0.000101978440933   0.000328970112955 1
force Hf  -0.000072414936964  -0.000101978440932  -0.000328970112955 1
force Hf  -0.000072414936964   0.000101978440933  -0.000328970112956 1
force Hf   0.000072414936964   0.000101978440933   0.000328970112956 1
force Hf   0.000072414936964  -0.000101978440933   0.000328970112955 1
force Hf  -0.000072414936964  -0.000101978440933  -0.000328970112956 1
force O   0.000428150361233   0.000023791982178  -0.000375919747842 1
force O  -0.000428150361233   0.000023791982178   0.000375919747842 1
force O  -0.000428150361233  -0.000023791982178   0.000375919747842 1
force O   0.000428150361234  -0.000023791982178  -0.000375919747842 1
force O   0.000134505302225   0.000798969756927   0.000035456816708 1
force O  -0.000134505302225   0.000798969756927  -0.000035456816708 1
force O  -0.000134505302225  -0.000798969756927  -0.000035456816708 1
force O   0.000134505302225  -0.000798969756927   0.000035456816708 1
force O   0.000428150361233   0.000023791982178  -0.000375919747842 1
force O  -0.000428150361234   0.000023791982178   0.000375919747842 1
force O  -0.000428150361233  -0.000023791982178   0.000375919747842 1
force O   0.000428150361233  -0.000023791982178  -0.000375919747842 1
force O   0.000134505302225   0.000798969756927   0.000035456816708 1
force O  -0.000134505302225   0.000798969756927  -0.000035456816708 1
force O  -0.000134505302225  -0.000798969756927  -0.000035456816708 1
force O   0.000134505302225  -0.000798969756927   0.000035456816708 1

# Energy components:
   Eewald =     -522.5666530342812166
       EH =      123.8054270232587015
     Eloc =     -317.2843970174662900
      Enl =      -78.0664599889280737
      Exc =     -362.4257961385413864
 Exc_core =      238.5850406798973040
       KE =      260.3491768917767217
-------------------------------------
     Etot =     -657.6036615842842821
       TS =        0.0000000003698600
-------------------------------------
        F =     -657.6036615846541054

IonicMinimize: Iter:   5  F: -657.603661584654105  |grad|_K:  3.507e-04  alpha:  1.000e+00  linmin: -2.827e-01  t[s]:   1208.45

#--- Lowdin population analysis ---
# oxidation-state Hf +0.766 +0.766 +0.766 +0.766 +0.766 +0.766 +0.766 +0.766
# oxidation-state O -0.370 -0.370 -0.370 -0.370 -0.355 -0.355 -0.355 -0.355 -0.370 -0.370 -0.370 -0.370 -0.355 -0.355 -0.355 -0.355


-------- Electronic minimization -----------
	FillingsUpdate:  mu: +0.484913125  nElectrons: 192.000000
ElecMinimize: Iter:   0  F: -657.417504143651399  |grad|_K:  8.320e-05  alpha:  1.000e+00
	FillingsUpdate:  mu: +0.482373437  nElectrons: 192.000000
	SubspaceRotationAdjust: set factor to 1.08
ElecMinimize: Iter:   1  F: -657.592915248971167  |grad|_K:  1.878e-05  alpha:  4.756e-01  linmin:  4.038e-04  t[s]:   1242.25
	FillingsUpdate:  mu: +0.481519455  nElectrons: 192.000000
	SubspaceRotationAdjust: set factor to 1.41
ElecMinimize: Iter:   2  F: -657.601827053554302  |grad|_K:  7.587e-06  alpha:  4.737e-01  linmin: -3.843e-05  t[s]:   1260.54
	FillingsUpdate:  mu: +0.482933773  nElectrons: 192.000000
	SubspaceRotationAdjust: set factor to 1.38
ElecMinimize: Iter:   3  F: -657.603393965538771  |grad|_K:  4.157e-06  alpha:  5.090e-01  linmin:  2.807e-05  t[s]:   1278.93
	FillingsUpdate:  mu: +0.481841499  nElectrons: 192.000000
	SubspaceRotationAdjust: set factor to 0.798
ElecMinimize: Iter:   4  F: -657.603683501662090  |grad|_K:  1.682e-06  alpha:  3.134e-01  linmin:  4.031e-06  t[s]:   1297.20
	FillingsUpdate:  mu: +0.482236788  nElectrons: 192.000000
	SubspaceRotationAdjust: set factor to 0.532
ElecMinimize: Iter:   5  F: -657.603743189984243  |grad|_K:  8.416e-07  alpha:  3.947e-01  linmin: -5.628e-06  t[s]:   1315.35
	FillingsUpdate:  mu: +0.482173520  nElectrons: 192.000000
	SubspaceRotationAdjust: set factor to 0.582
ElecMinimize: Iter:   6  F: -657.603760213967462  |grad|_K:  3.871e-07  alpha:  4.495e-01  linmin: -1.251e-06  t[s]:   1333.77
	FillingsUpdate:  mu: +0.482127419  nElectrons: 192.000000
	SubspaceRotationAdjust: set factor to 0.73
ElecMinimize: Iter:   7  F: -657.603763927253794  |grad|_K:  1.924e-07  alpha:  4.633e-01  linmin: -1.079e-06  t[s]:   1352.01
	FillingsUpdate:  mu: +0.482128289  nElectrons: 192.000000
	SubspaceRotationAdjust: set factor to 0.993
ElecMinimize: Iter:   8  F: -657.603765093992365  |grad|_K:  1.008e-07  alpha:  5.892e-01  linmin: -1.978e-06  t[s]:   1370.43
	FillingsUpdate:  mu: +0.482130849  nElectrons: 192.000000
	SubspaceRotationAdjust: set factor to 1.34
ElecMinimize: Iter:   9  F: -657.603765362651984  |grad|_K:  6.038e-08  alpha:  4.947e-01  linmin: -2.124e-07  t[s]:   1388.81
	FillingsUpdate:  mu: +0.482135734  nElectrons: 192.000000
	SubspaceRotationAdjust: set factor to 1.35
ElecMinimize: Iter:  10  F: -657.603765448060244  |grad|_K:  3.024e-08  alpha:  4.382e-01  linmin: -2.374e-08  t[s]:   1407.13
	FillingsUpdate:  mu: +0.482130029  nElectrons: 192.000000
	SubspaceRotationAdjust: set factor to 0.911
ElecMinimize: Iter:  11  F: -657.603765466511504  |grad|_K:  1.606e-08  alpha:  3.773e-01  linmin:  4.039e-08  t[s]:   1425.38
	FillingsUpdate:  mu: +0.482133253  nElectrons: 192.000000
	SubspaceRotationAdjust: set factor to 0.79
ElecMinimize: Iter:  12  F: -657.603765472242685  |grad|_K:  9.337e-09  alpha:  4.154e-01  linmin: -1.134e-07  t[s]:   1443.71
	FillingsUpdate:  mu: +0.482132152  nElectrons: 192.000000
	SubspaceRotationAdjust: set factor to 1.02
ElecMinimize: Iter:  13  F: -657.603765474490729  |grad|_K:  5.416e-09  alpha:  4.822e-01  linmin:  9.663e-08  t[s]:   1462.03
ElecMinimize: Converged (|Delta F|<1.000000e-08 for 2 iters).
Setting wave functions to eigenvectors of Hamiltonian

# Ionic positions in cartesian coordinates:
ion Hf   2.595577226137628   4.461209293540903   6.622198287128360 1
ion Hf   6.825381107195708   9.327863293540902   6.785959212871639 1
ion Hf   6.852194107195706   5.272098539792431   1.800734712871637 1
ion Hf   2.622390226137628   0.405444539792431   1.636973787128363 1
ion Hf  12.096973726137625   4.461209293540903   5.074682787128361 1
ion Hf  16.326777607195705   9.327863293540902   5.238443712871639 1
ion Hf  16.353590607195706   5.272098539792431   0.253219212871637 1
ion Hf  12.123786726137626   0.405444539792431   0.089458287128363 1
ion O   4.177561809027003   7.219308701021912   9.103837257345836 1
ion O   5.243396524306330   2.352654701021911   4.304320242654162 1
ion O   5.270209524306328   2.513999132311422  -0.680904257345837 1
ion O   4.204374809027002   7.380653132311420   4.118612757345836 1
ion O   0.659013627013941   3.278332362719908   3.286305375174865 1
ion O   8.815570706319392   8.144986362719909   0.151403124825136 1
ion O   8.788757706319391   6.454975470613424   5.136627624825136 1
ion O   0.632200627013941   1.588321470613425   8.271529875174865 1
ion O  13.678958309027003   7.219308701021912   7.556321757345836 1
ion O  14.744793024306331   2.352654701021911   2.756804742654162 1
ion O  14.771606024306333   2.513999132311422  -2.228419757345837 1
ion O  13.705771309027003   7.380653132311420   2.571097257345837 1
ion O  10.160410127013938   3.278332362719908   1.738789875174864 1
ion O  18.316967206319394   8.144986362719909  -1.396112375174865 1
ion O  18.290154206319396   6.454975470613424   3.589112124825136 1
ion O  10.133597127013939   1.588321470613425   6.724014375174866 1

# Forces in Cartesian coordinates:
force Hf   0.000171892043812  -0.000284521463089   0.000206355321930 1
force Hf  -0.000171892043812  -0.000284521463089  -0.000206355321929 1
force Hf  -0.000171892043812   0.000284521463089  -0.000206355321930 1
force Hf   0.000171892043812   0.000284521463089   0.000206355321929 1
force Hf   0.000171892043812  -0.000284521463089   0.000206355321930 1
force Hf  -0.000171892043812  -0.000284521463089  -0.000206355321930 1
force Hf  -0.000171892043812   0.000284521463089  -0.000206355321930 1
force Hf   0.000171892043812   0.000284521463089   0.000206355321929 1
force O   0.000604645790750  -0.000053586056925  -0.000797536232880 1
force O  -0.000604645790750  -0.000053586056925   0.000797536232880 1
force O  -0.000604645790750   0.000053586056925   0.000797536232880 1
force O   0.000604645790750   0.000053586056925  -0.000797536232880 1
force O   0.000561532498894   0.000020789221223  -0.000193865082867 1
force O  -0.000561532498894   0.000020789221223   0.000193865082867 1
force O  -0.000561532498894  -0.000020789221223   0.000193865082867 1
force O   0.000561532498894  -0.000020789221223  -0.000193865082867 1
force O   0.000604645790750  -0.000053586056925  -0.000797536232880 1
force O  -0.000604645790750  -0.000053586056925   0.000797536232880 1
force O  -0.000604645790750   0.000053586056925   0.000797536232880 1
force O   0.000604645790750   0.000053586056925  -0.000797536232880 1
force O   0.000561532498894   0.000020789221223  -0.000193865082867 1
force O  -0.000561532498894   0.000020789221223   0.000193865082867 1
force O  -0.000561532498894  -0.000020789221223   0.000193865082867 1
force O   0.000561532498894  -0.000020789221223  -0.000193865082867 1

# Energy components:
   Eewald =     -522.6829634036257630
       EH =      123.6831715884780607
     Eloc =     -317.0264565282107583
      Enl =      -78.0650317950798751
      Exc =     -362.4154134697070049
 Exc_core =      238.5850229948703145
       KE =      260.3179051391578014
-------------------------------------
     Etot =     -657.6037654741171536
       TS =        0.0000000003735964
-------------------------------------
        F =     -657.6037654744907286

IonicMinimize: Iter:   6  F: -657.603765474490729  |grad|_K:  4.097e-04  alpha:  1.000e+00  linmin: -4.931e-03  t[s]:   1466.44

#--- Lowdin population analysis ---
# oxidation-state Hf +0.767 +0.767 +0.767 +0.767 +0.767 +0.767 +0.767 +0.767
# oxidation-state O -0.370 -0.370 -0.370 -0.370 -0.356 -0.356 -0.356 -0.356 -0.370 -0.370 -0.370 -0.370 -0.356 -0.356 -0.356 -0.356


-------- Electronic minimization -----------
	FillingsUpdate:  mu: +0.483345331  nElectrons: 192.000000
ElecMinimize: Iter:   0  F: -657.527920226303195  |grad|_K:  5.388e-05  alpha:  1.000e+00
	FillingsUpdate:  mu: +0.481368376  nElectrons: 192.000000
	SubspaceRotationAdjust: set factor to 0.954
ElecMinimize: Iter:   1  F: -657.599372775725328  |grad|_K:  1.241e-05  alpha:  4.612e-01  linmin:  2.088e-04  t[s]:   1500.34
	FillingsUpdate:  mu: +0.482485062  nElectrons: 192.000000
	SubspaceRotationAdjust: set factor to 0.934
ElecMinimize: Iter:   2  F: -657.603065723969280  |grad|_K:  4.632e-06  alpha:  4.494e-01  linmin:  3.446e-05  t[s]:   1518.70
	FillingsUpdate:  mu: +0.481627664  nElectrons: 192.000000
	SubspaceRotationAdjust: set factor to 0.762
ElecMinimize: Iter:   3  F: -657.603624642227942  |grad|_K:  2.570e-06  alpha:  4.873e-01  linmin: -1.283e-05  t[s]:   1536.86
	FillingsUpdate:  mu: +0.482028663  nElectrons: 192.000000
	SubspaceRotationAdjust: set factor to 0.663
ElecMinimize: Iter:   4  F: -657.603757764331363  |grad|_K:  9.393e-07  alpha:  3.768e-01  linmin:  5.712e-06  t[s]:   1555.11
	FillingsUpdate:  mu: +0.481957549  nElectrons: 192.000000
	SubspaceRotationAdjust: set factor to 0.695
ElecMinimize: Iter:   5  F: -657.603781408908958  |grad|_K:  4.291e-07  alpha:  5.013e-01  linmin:  4.550e-06  t[s]:   1573.31
	FillingsUpdate:  mu: +0.481977083  nElectrons: 192.000000
	SubspaceRotationAdjust: set factor to 0.696
ElecMinimize: Iter:   6  F: -657.603786258675200  |grad|_K:  1.649e-07  alpha:  4.925e-01  linmin:  3.674e-06  t[s]:   1591.50
	FillingsUpdate:  mu: +0.481969278  nElectrons: 192.000000
	SubspaceRotationAdjust: set factor to 0.7
ElecMinimize: Iter:   7  F: -657.603786973666047  |grad|_K:  8.672e-08  alpha:  4.917e-01  linmin:  1.683e-06  t[s]:   1609.79
	FillingsUpdate:  mu: +0.481967480  nElectrons: 192.000000
	SubspaceRotationAdjust: set factor to 0.735
ElecMinimize: Iter:   8  F: -657.603787156299177  |grad|_K:  3.534e-08  alpha:  4.542e-01  linmin:  1.634e-06  t[s]:   1628.15
	FillingsUpdate:  mu: +0.481973779  nElectrons: 192.000000
	SubspaceRotationAdjust: set factor to 0.747
ElecMinimize: Iter:   9  F: -657.603787190339176  |grad|_K:  1.702e-08  alpha:  5.098e-01  linmin:  7.206e-07  t[s]:   1646.48
	FillingsUpdate:  mu: +0.481970661  nElectrons: 192.000000
	SubspaceRotationAdjust: set factor to 0.836
ElecMinimize: Iter:  10  F: -657.603787197916404  |grad|_K:  8.047e-09  alpha:  4.891e-01  linmin:  3.236e-07  t[s]:   1664.73
	FillingsUpdate:  mu: +0.481971339  nElectrons: 192.000000
	SubspaceRotationAdjust: set factor to 0.981
ElecMinimize: Iter:  11  F: -657.603787199456065  |grad|_K:  3.388e-09  alpha:  4.447e-01  linmin:  9.011e-08  t[s]:   1683.13
ElecMinimize: Converged (|Delta F|<1.000000e-08 for 2 iters).
Setting wave functions to eigenvectors of Hamiltonian

# Ionic positions in cartesian coordinates:
ion Hf   2.597051390891131   4.457097210180582   6.621656252312095 1
ion Hf   6.823906942442204   9.323751210180582   6.786501247687904 1
ion Hf   6.850719942442203   5.276210623152751   1.801276747687903 1
ion Hf   2.623864390891131   0.409556623152752   1.636431752312097 1
ion Hf  12.098447890891130   4.457097210180582   5.074140752312095 1
ion Hf  16.325303442442202   9.323751210180582   5.238985747687904 1
ion Hf  16.352116442442203   5.276210623152751   0.253761247687903 1
ion Hf  12.125260890891129   0.409556623152752   0.088916252312097 1
ion O   4.178935688111726   7.217678977872971   9.102206120158018 1
ion O   5.242022645221607   2.351024977872971   4.305951379841981 1
ion O   5.268835645221606   2.515628855460363  -0.679273120158018 1
ion O   4.205748688111725   7.382282855460361   4.116981620158018 1
ion O   0.676239435944771   3.297828854299518   3.265477483131829 1
ion O   8.798344897388562   8.164482854299520   0.172231016868172 1
ion O   8.771531897388561   6.435478979033815   5.157455516868171 1
ion O   0.649426435944771   1.568824979033815   8.250701983131830 1
ion O  13.680332188111725   7.217678977872971   7.554690620158018 1
ion O  14.743419145221607   2.351024977872971   2.758435879841981 1
ion O  14.770232145221609   2.515628855460363  -2.226788620158019 1
ion O  13.707145188111724   7.382282855460361   2.569466120158019 1
ion O  10.177635935944769   3.297828854299518   1.717961983131829 1
ion O  18.299741397388562   8.164482854299520  -1.375284483131829 1
ion O  18.272928397388569   6.435478979033815   3.609940016868170 1
ion O  10.150822935944769   1.568824979033815   6.703186483131829 1

# Forces in Cartesian coordinates:
force Hf  -0.000033974337994   0.000972567573829   0.000151546158282 1
force Hf   0.000033974337994   0.000972567573829  -0.000151546158281 1
force Hf   0.000033974337994  -0.000972567573829  -0.000151546158281 1
force Hf  -0.000033974337994  -0.000972567573829   0.000151546158281 1
force Hf  -0.000033974337994   0.000972567573829   0.000151546158281 1
force Hf   0.000033974337994   0.000972567573829  -0.000151546158282 1
force Hf   0.000033974337994  -0.000972567573829  -0.000151546158281 1
force Hf  -0.000033974337994  -0.000972567573829   0.000151546158281 1
force O  -0.000077490701756  -0.000279535147231  -0.000684141553022 1
force O   0.000077490701756  -0.000279535147231   0.000684141553022 1
force O   0.000077490701756   0.000279535147231   0.000684141553022 1
force O  -0.000077490701756   0.000279535147231  -0.000684141553022 1
force O  -0.001101872145246   0.000927603388898   0.000417134278789 1
force O   0.001101872145246   0.000927603388898  -0.000417134278789 1
force O   0.001101872145246  -0.000927603388898  -0.000417134278789 1
force O  -0.001101872145246  -0.000927603388898   0.000417134278789 1
force O  -0.000077490701756  -0.000279535147231  -0.000684141553022 1
force O   0.000077490701756  -0.000279535147231   0.000684141553022 1
force O   0.000077490701756   0.000279535147231   0.000684141553022 1
force O  -0.000077490701756   0.000279535147231  -0.000684141553022 1
force O  -0.001101872145246   0.000927603388898   0.000417134278789 1
force O   0.001101872145246   0.000927603388898  -0.000417134278789 1
force O   0.001101872145246  -0.000927603388898  -0.000417134278789 1
force O  -0.001101872145246  -0.000927603388898   0.000417134278789 1

# Energy components:
   Eewald =     -522.6904354785447140
       EH =      123.6706345264116322
     Eloc =     -316.9985236516748159
      Enl =      -78.0643428167778950
      Exc =     -362.4111188780364046
 Exc_core =      238.5850155972273967
       KE =      260.3049835022997627
-------------------------------------
     Etot =     -657.6037871990949952
       TS =        0.0000000003610319
-------------------------------------
        F =     -657.6037871994560646

IonicMinimize: Iter:   7  F: -657.603787199456065  |grad|_K:  6.473e-04  alpha:  1.000e+00  linmin:  1.871e-01  t[s]:   1687.38

#--- Lowdin population analysis ---
# oxidation-state Hf +0.767 +0.767 +0.767 +0.767 +0.767 +0.767 +0.767 +0.767
# oxidation-state O -0.370 -0.370 -0.370 -0.370 -0.356 -0.356 -0.356 -0.356 -0.370 -0.370 -0.370 -0.370 -0.356 -0.356 -0.356 -0.356


-------- Electronic minimization -----------
	FillingsUpdate:  mu: +0.482017138  nElectrons: 192.000000
ElecMinimize: Iter:   0  F: -657.603714130580784  |grad|_K:  1.826e-06  alpha:  1.000e+00
	FillingsUpdate:  mu: +0.482054788  nElectrons: 192.000000
	SubspaceRotationAdjust: set factor to 1.29
ElecMinimize: Iter:   1  F: -657.603831028479362  |grad|_K:  7.165e-07  alpha:  6.560e-01  linmin: -1.116e-07  t[s]:   1721.55
	FillingsUpdate:  mu: +0.482002877  nElectrons: 192.000000
	SubspaceRotationAdjust: set factor to 1.75
ElecMinimize: Iter:   2  F: -657.603846208471737  |grad|_K:  3.001e-07  alpha:  5.530e-01  linmin:  3.678e-07  t[s]:   1739.95
	FillingsUpdate:  mu: +0.482051161  nElectrons: 192.000000
	SubspaceRotationAdjust: set factor to 1.3
ElecMinimize: Iter:   3  F: -657.603847910372338  |grad|_K:  1.252e-07  alpha:  3.535e-01  linmin:  1.821e-07  t[s]:   1758.27
	FillingsUpdate:  mu: +0.482022630  nElectrons: 192.000000
	SubspaceRotationAdjust: set factor to 0.7
ElecMinimize: Iter:   4  F: -657.603848113158961  |grad|_K:  5.611e-08  alpha:  2.420e-01  linmin:  6.964e-08  t[s]:   1776.69
	FillingsUpdate:  mu: +0.482029933  nElectrons: 192.000000
	SubspaceRotationAdjust: set factor to 0.833
ElecMinimize: Iter:   5  F: -657.603848175435473  |grad|_K:  2.264e-08  alpha:  3.699e-01  linmin:  3.233e-07  t[s]:   1795.06
	FillingsUpdate:  mu: +0.482032070  nElectrons: 192.000000
	SubspaceRotationAdjust: set factor to 0.926
ElecMinimize: Iter:   6  F: -657.603848186481287  |grad|_K:  1.174e-08  alpha:  4.030e-01  linmin: -7.191e-09  t[s]:   1813.37
	FillingsUpdate:  mu: +0.482030121  nElectrons: 192.000000
	SubspaceRotationAdjust: set factor to 1.01
ElecMinimize: Iter:   7  F: -657.603848189896894  |grad|_K:  6.524e-09  alpha:  4.633e-01  linmin: -1.226e-08  t[s]:   1831.60
	FillingsUpdate:  mu: +0.482030796  nElectrons: 192.000000
	SubspaceRotationAdjust: set factor to 1.1
ElecMinimize: Iter:   8  F: -657.603848191018187  |grad|_K:  3.286e-09  alpha:  4.929e-01  linmin:  5.247e-07  t[s]:   1849.78
ElecMinimize: Converged (|Delta F|<1.000000e-08 for 2 iters).
Setting wave functions to eigenvectors of Hamiltonian

# Ionic positions in cartesian coordinates:
ion Hf   2.595373104714072   4.459536101783764   6.623688259394829 1
ion Hf   6.825585228619262   9.326190101783764   6.784469240605170 1
ion Hf   6.852398228619261   5.273771731549569   1.799244740605169 1
ion Hf   2.622186104714072   0.407117731549570   1.638463759394831 1
ion Hf  12.096769604714071   4.459536101783764   5.076172759394829 1
ion Hf  16.326981728619263   9.326190101783764   5.236953740605170 1
ion Hf  16.353794728619263   5.273771731549569   0.251729240605168 1
ion Hf  12.123582604714070   0.407117731549570   0.090948259394831 1
ion O   4.181370237982100   7.217674223263640   9.096158688977480 1
ion O   5.239588095351233   2.351020223263639   4.311998811022519 1
ion O   5.266401095351231   2.515633610069695  -0.673225688977480 1
ion O   4.208183237982100   7.382287610069692   4.110934188977480 1
ion O   0.669722520108725   3.293490191351611   3.272661708048023 1
ion O   8.804861813224608   8.160144191351613   0.165046791951978 1
ion O   8.778048813224608   6.439817641981721   5.150271291951976 1
ion O   0.642909520108725   1.573163641981722   8.257886208048024 1
ion O  13.682766737982099   7.217674223263640   7.548643188977480 1
ion O  14.740984595351232   2.351020223263639   2.764483311022519 1
ion O  14.767797595351235   2.515633610069695  -2.220741188977480 1
ion O  13.709579737982100   7.382287610069692   2.563418688977481 1
ion O  10.171119020108723   3.293490191351611   1.725146208048023 1
ion O  18.306258313224610   8.160144191351613  -1.382468708048023 1
ion O  18.279445313224613   6.439817641981721   3.602755791951976 1
ion O  10.144306020108722   1.573163641981722   6.710370708048025 1

# Forces in Cartesian coordinates:
force Hf   0.000290910393530   0.000211899377961   0.000062063626166 1
force Hf  -0.000290910393530   0.000211899377961  -0.000062063626166 1
force Hf  -0.000290910393530  -0.000211899377961  -0.000062063626166 1
force Hf   0.000290910393530  -0.000211899377961   0.000062063626166 1
force Hf   0.000290910393530   0.000211899377961   0.000062063626166 1
force Hf  -0.000290910393530   0.000211899377961  -0.000062063626166 1
force Hf  -0.000290910393530  -0.000211899377961  -0.000062063626166 1
force Hf   0.000290910393530  -0.000211899377961   0.000062063626166 1
force O   0.000003552037252   0.000131543175953  -0.000278915263521 1
force O  -0.000003552037252   0.000131543175953   0.000278915263521 1
force O  -0.000003552037252  -0.000131543175953   0.000278915263521 1
force O   0.000003552037252  -0.000131543175953  -0.000278915263521 1
force O  -0.000199858913529   0.000243247861161   0.000039672520518 1
force O   0.000199858913529   0.000243247861161  -0.000039672520518 1
force O   0.000199858913529  -0.000243247861161  -0.000039672520518 1
force O  -0.000199858913529  -0.000243247861161   0.000039672520518 1
force O   0.000003552037252   0.000131543175953  -0.000278915263521 1
force O  -0.000003552037252   0.000131543175953   0.000278915263521 1
force O  -0.000003552037252  -0.000131543175953   0.000278915263521 1
force O   0.000003552037252  -0.000131543175953  -0.000278915263521 1
force O  -0.000199858913529   0.000243247861161   0.000039672520518 1
force O   0.000199858913529   0.000243247861161  -0.000039672520518 1
force O   0.000199858913529  -0.000243247861161  -0.000039672520518 1
force O  -0.000199858913529  -0.000243247861161   0.000039672520518 1

# Energy components:
   Eewald =     -522.6726116397717306
       EH =      123.6946664013912311
     Eloc =     -317.0471644484841818
      Enl =      -78.0646933656258852
      Exc =     -362.4146593917843120
 Exc_core =      238.5850195186432074
       KE =      260.3155947349706594
-------------------------------------
     Etot =     -657.6038481906609832
       TS =        0.0000000003571645
-------------------------------------
        F =     -657.6038481910181872

IonicMinimize: Iter:   8  F: -657.603848191018187  |grad|_K:  1.912e-04  alpha:  1.000e+00  linmin: -3.200e-01  t[s]:   1854.04

#--- Lowdin population analysis ---
# oxidation-state Hf +0.767 +0.767 +0.767 +0.767 +0.767 +0.767 +0.767 +0.767
# oxidation-state O -0.370 -0.370 -0.370 -0.370 -0.356 -0.356 -0.356 -0.356 -0.370 -0.370 -0.370 -0.370 -0.356 -0.356 -0.356 -0.356


-------- Electronic minimization -----------
	FillingsUpdate:  mu: +0.482062622  nElectrons: 192.000000
ElecMinimize: Iter:   0  F: -657.603837958379358  |grad|_K:  6.760e-07  alpha:  1.000e+00
	FillingsUpdate:  mu: +0.482019180  nElectrons: 192.000000
	SubspaceRotationAdjust: set factor to 1.47
ElecMinimize: Iter:   1  F: -657.603854323264500  |grad|_K:  2.551e-07  alpha:  6.698e-01  linmin: -2.172e-08  t[s]:   1888.48
	FillingsUpdate:  mu: +0.482070351  nElectrons: 192.000000
	SubspaceRotationAdjust: set factor to 1.34
ElecMinimize: Iter:   2  F: -657.603855835231457  |grad|_K:  1.304e-07  alpha:  4.344e-01  linmin:  4.881e-08  t[s]:   1906.72
	FillingsUpdate:  mu: +0.482041239  nElectrons: 192.000000
	SubspaceRotationAdjust: set factor to 0.697
ElecMinimize: Iter:   3  F: -657.603856068354162  |grad|_K:  4.587e-08  alpha:  2.562e-01  linmin: -1.642e-07  t[s]:   1924.86
	FillingsUpdate:  mu: +0.482047403  nElectrons: 192.000000
	SubspaceRotationAdjust: set factor to 0.591
ElecMinimize: Iter:   4  F: -657.603856108434798  |grad|_K:  1.505e-08  alpha:  3.562e-01  linmin: -2.605e-08  t[s]:   1943.08
	FillingsUpdate:  mu: +0.482047342  nElectrons: 192.000000
	SubspaceRotationAdjust: set factor to 0.691
ElecMinimize: Iter:   5  F: -657.603856114334917  |grad|_K:  7.681e-09  alpha:  4.874e-01  linmin:  2.576e-08  t[s]:   1961.33
	FillingsUpdate:  mu: +0.482046601  nElectrons: 192.000000
	SubspaceRotationAdjust: set factor to 0.795
ElecMinimize: Iter:   6  F: -657.603856115839221  |grad|_K:  4.150e-09  alpha:  4.769e-01  linmin:  1.039e-06  t[s]:   1979.51
ElecMinimize: Converged (|Delta F|<1.000000e-08 for 2 iters).
Setting wave functions to eigenvectors of Hamiltonian

# Ionic positions in cartesian coordinates:
ion Hf   2.595545070142681   4.460091753480613   6.624253548824353 1
ion Hf   6.825413263190653   9.326745753480614   6.783903951175646 1
ion Hf   6.852226263190652   5.273216079852719   1.798679451175644 1
ion Hf   2.622358070142682   0.406562079852720   1.639029048824356 1
ion Hf  12.096941570142681   4.460091753480613   5.076738048824353 1
ion Hf  16.326809763190653   9.326745753480614   5.236388451175646 1
ion Hf  16.353622763190650   5.273216079852719   0.251163951175644 1
ion Hf  12.123754570142681   0.406562079852720   0.091513548824355 1
ion O   4.182218574375039   7.218275052947305   9.093290801589053 1
ion O   5.238739758958293   2.351621052947304   4.314866698410948 1
ion O   5.265552758958292   2.515032780386030  -0.670357801589051 1
ion O   4.209031574375039   7.381686780386027   4.108066301589052 1
ion O   0.670060399057524   3.296240632481943   3.271443682040044 1
ion O   8.804523934275808   8.162894632481944   0.166264817959956 1
ion O   8.777710934275808   6.437067200851390   5.151489317959956 1
ion O   0.643247399057524   1.570413200851390   8.256668182040045 1
ion O  13.683615074375041   7.218275052947305   7.545775301589051 1
ion O  14.740136258958291   2.351621052947304   2.767351198410949 1
ion O  14.766949258958295   2.515032780386030  -2.217873301589051 1
ion O  13.710428074375040   7.381686780386027   2.560550801589051 1
ion O  10.171456899057521   3.296240632481943   1.723928182040044 1
ion O  18.305920434275812   8.162894632481944  -1.381250682040044 1
ion O  18.279107434275815   6.437067200851390   3.603973817959955 1
ion O  10.144643899057520   1.570413200851390   6.709152682040045 1

# Forces in Cartesian coordinates:
force Hf   0.000098439174982   0.000007896209457   0.000065218041153 1
force Hf  -0.000098439174982   0.000007896209457  -0.000065218041153 1
force Hf  -0.000098439174982  -0.000007896209457  -0.000065218041153 1
force Hf   0.000098439174982  -0.000007896209457   0.000065218041153 1
force Hf   0.000098439174982   0.000007896209457   0.000065218041153 1
force Hf  -0.000098439174982   0.000007896209457  -0.000065218041153 1
force Hf  -0.000098439174982  -0.000007896209457  -0.000065218041153 1
force Hf   0.000098439174982  -0.000007896209457   0.000065218041153 1
force O  -0.000032576549693   0.000083344757785  -0.000081453982280 1
force O   0.000032576549694   0.000083344757785   0.000081453982280 1
force O   0.000032576549694  -0.000083344757785   0.000081453982280 1
force O  -0.000032576549693  -0.000083344757785  -0.000081453982280 1
force O   0.000004924705575   0.000004781466720  -0.000043997974872 1
force O  -0.000004924705575   0.000004781466720   0.000043997974872 1
force O  -0.000004924705575  -0.000004781466720   0.000043997974872 1
force O   0.000004924705575  -0.000004781466720  -0.000043997974872 1
force O  -0.000032576549693   0.000083344757785  -0.000081453982280 1
force O   0.000032576549693   0.000083344757785   0.000081453982280 1
force O   0.000032576549693  -0.000083344757785   0.000081453982280 1
force O  -0.000032576549694  -0.000083344757785  -0.000081453982280 1
force O   0.000004924705575   0.000004781466720  -0.000043997974872 1
force O  -0.000004924705575   0.000004781466720   0.000043997974872 1
force O  -0.000004924705575  -0.000004781466720   0.000043997974872 1
force O   0.000004924705575  -0.000004781466720  -0.000043997974872 1

# Energy components:
   Eewald =     -522.6691415853231319
       EH =      123.6989078470280816
     Eloc =     -317.0550899892136272
      Enl =      -78.0645439801992040
      Exc =     -362.4147304335019726
 Exc_core =      238.5850194287650652
       KE =      260.3157225969646902
-------------------------------------
     Etot =     -657.6038561154803119
       TS =        0.0000000003589646
-------------------------------------
        F =     -657.6038561158392213

IonicMinimize: Iter:   9  F: -657.603856115839221  |grad|_K:  5.834e-05  alpha:  1.000e+00  linmin: -4.999e-01  t[s]:   1983.73
IonicMinimize: Converged (|grad|_K<1.000000e-04).

#--- Lowdin population analysis ---
# oxidation-state Hf +0.767 +0.767 +0.767 +0.767 +0.767 +0.767 +0.767 +0.767
# oxidation-state O -0.370 -0.370 -0.370 -0.370 -0.356 -0.356 -0.356 -0.356 -0.370 -0.370 -0.370 -0.370 -0.356 -0.356 -0.356 -0.356


Dumping 'Hf8O16.Ecomponents' ... done
End date and time: Wed Apr 24 11:03:26 2024  (Duration: 0-0:33:06.18)
Done!
