--------------------------------------------------------------------------
[[6278,1],9]: A high-performance Open MPI point-to-point messaging module
was unable to find any relevant network interfaces:

Module: OpenFabrics (openib)
  Host: node3219

Another transport will be used instead, although this may result in
lower performance.
--------------------------------------------------------------------------

*************** JDFTx 1.7.0  ***************

Start date and time: Wed Apr 24 10:30:15 2024
Executable jdftx with command-line: -i /home/cam559/Valla_project/Hf/Hf8O15.in
Running on hosts (process indices):  node3219.physics.cornell.edu (0-9)
Divided in process groups (process indices):  0 (0)  1 (1)  2 (2)  3 (3)  4 (4)  5 (5)  6 (6)  7 (7)  8 (8)  9 (9)
Resource initialization completed at t[s]:      0.00
Run totals: 10 processes, 40 threads, 0 GPUs


Input parsed successfully to the following command list (including defaults):

basis kpoint-dependent
coords-type Cartesian
core-overlap-check vector
coulomb-interaction Periodic
davidson-band-ratio 1.1
dump End Ecomponents
dump-name Hf8O15.$VAR
elec-cutoff 20 100
elec-eigen-algo Davidson
elec-ex-corr gga-PBE
elec-smearing Fermi 0.004
electronic-minimize  \
	dirUpdateScheme      FletcherReeves \
	linminMethod         DirUpdateRecommended \
	nIterations          100 \
	history              15 \
	knormThreshold       0 \
	energyDiffThreshold  1e-08 \
	nEnergyDiff          2 \
	alphaTstart          1 \
	alphaTmin            1e-10 \
	updateTestStepSize   yes \
	alphaTreduceFactor   0.1 \
	alphaTincreaseFactor 3 \
	nAlphaAdjustMax      3 \
	wolfeEnergy          0.0001 \
	wolfeGradient        0.9 \
	fdTest               no
exchange-regularization WignerSeitzTruncated
fluid None
fluid-ex-corr lda-TF lda-PZ
fluid-gummel-loop 10 1.000000e-05
fluid-minimize  \
	dirUpdateScheme      PolakRibiere \
	linminMethod         DirUpdateRecommended \
	nIterations          100 \
	history              15 \
	knormThreshold       0 \
	energyDiffThreshold  0 \
	nEnergyDiff          2 \
	alphaTstart          1 \
	alphaTmin            1e-10 \
	updateTestStepSize   yes \
	alphaTreduceFactor   0.1 \
	alphaTincreaseFactor 3 \
	nAlphaAdjustMax      3 \
	wolfeEnergy          0.0001 \
	wolfeGradient        0.9 \
	fdTest               no
fluid-solvent H2O 55.338 ScalarEOS \
	epsBulk 78.4 \
	pMol 0.92466 \
	epsInf 1.77 \
	Pvap 1.06736e-10 \
	sigmaBulk 4.62e-05 \
	Rvdw 2.61727 \
	Res 1.42 \
	tauNuc 343133 \
	poleEl 15 7 1
forces-output-coords Positions
initial-state Hf8O15.$VAR
ion Hf   2.585714000000000   4.458485000000000   6.630828999999999 1
ion Hf   6.835245000000000   9.325138000000001   6.777328000000000 1
ion Hf   6.862057000000000   5.274823000000000   1.792104000000000 1
ion Hf   2.612526000000000   0.408169000000000   1.645605000000000 1
ion Hf  12.087110000000001   4.458485000000000   5.083314000000000 1
ion Hf  16.336641000000000   9.325138000000001   5.229813000000000 1
ion Hf  16.363454000000001   5.274823000000000   0.244588000000000 1
ion Hf  12.113923000000000   0.408169000000000   0.098089000000000 1
ion O   4.204128000000000   7.227233999999999   9.063578000000000 1
ion O   5.216830000000000   2.360580000000000   4.344579000000000 1
ion O   5.243643000000000   2.506074000000000  -0.640645000000000 1
ion O   4.230941000000000   7.372728000000000   4.078354000000001 1
ion O   0.630955000000000   3.219377999999999   3.346506000000001 1
ion O   8.843629000000000   8.086031999999999   0.091203000000000 1
ion O   8.816815999999999   6.513930000000000   5.076427000000000 1
ion O   0.604142000000000   1.647276000000000   8.331730000000000 1
ion O  13.705524999999998   7.227233999999999   7.516062000000000 1
ion O  14.718227000000001   2.360580000000000   2.797064000000001 1
ion O  14.745040000000001   2.506074000000000  -2.188160000000000 1
ion O  13.732338000000000   7.372728000000000   2.530838000000000 1
ion O  10.132351999999997   3.219377999999999   1.798991000000001 1
ion O  18.345026000000001   8.086031999999999  -1.456313000000001 1
ion O  18.318213000000004   6.513930000000000   3.528910999999999 1
ion-species GBRV/$ID_pbe.uspp
ion-width 0
ionic-minimize  \
	dirUpdateScheme      L-BFGS \
	linminMethod         DirUpdateRecommended \
	nIterations          50 \
	history              15 \
	knormThreshold       0.0001 \
	energyDiffThreshold  1e-06 \
	nEnergyDiff          2 \
	alphaTstart          1 \
	alphaTmin            1e-10 \
	updateTestStepSize   yes \
	alphaTreduceFactor   0.1 \
	alphaTincreaseFactor 3 \
	nAlphaAdjustMax      3 \
	wolfeEnergy          0.0001 \
	wolfeGradient        0.9 \
	fdTest               no
kpoint   0.000000000000   0.000000000000   0.000000000000  1.00000000000000
kpoint-folding 3 6 6 
latt-move-scale 1 1 1
latt-scale 1 1 1 
lattice  \
	  19.002793000000000    0.000000000000000   -0.053626000000000  \
	   0.000000000000000    9.733307999999999    0.000000000000000  \
	  -3.095031000000000    0.000000000000000    9.970449000000000 
lattice-minimize  \
	dirUpdateScheme      L-BFGS \
	linminMethod         DirUpdateRecommended \
	nIterations          0 \
	history              15 \
	knormThreshold       0 \
	energyDiffThreshold  1e-06 \
	nEnergyDiff          2 \
	alphaTstart          1 \
	alphaTmin            1e-10 \
	updateTestStepSize   yes \
	alphaTreduceFactor   0.1 \
	alphaTincreaseFactor 3 \
	nAlphaAdjustMax      3 \
	wolfeEnergy          0.0001 \
	wolfeGradient        0.9 \
	fdTest               no
lcao-params -1 1e-06 0.004
pcm-variant GLSSA13
spintype no-spin
subspace-rotation-factor 1 yes
symmetries automatic
symmetry-threshold 0.0001



---------- Setting up symmetries ----------

Found 4 point-group symmetries of the bravais lattice
Found 1 space-group symmetries with basis
Applied RMS atom displacement 0 bohrs to make symmetries exact.

---------- Initializing the Grid ----------
R = 
[      19.0028            0    -0.053626  ]
[            0      9.73331            0  ]
[     -3.09503            0      9.97045  ]
unit cell volume = 1842.52
G =
[   0.330935         -0 0.00177993  ]
[         -0   0.645534         -0  ]
[   0.102729         -0   0.630733  ]
Minimum fftbox size, Smin = [  88  44  48  ]
Chosen fftbox size, S = [  90  48  48  ]

---------- Initializing tighter grid for wavefunction operations ----------
R = 
[      19.0028            0    -0.053626  ]
[            0      9.73331            0  ]
[     -3.09503            0      9.97045  ]
unit cell volume = 1842.52
G =
[   0.330935         -0 0.00177993  ]
[         -0   0.645534         -0  ]
[   0.102729         -0   0.630733  ]
Minimum fftbox size, Smin = [  80  40  44  ]
Chosen fftbox size, S = [  80  40  48  ]

---------- Exchange Correlation functional ----------
Initalized PBE GGA exchange.
Initalized PBE GGA correlation.

---------- Setting up pseudopotentials ----------
Width of ionic core gaussian charges (only for fluid interactions / plotting) set to 0

Reading pseudopotential file '/home/cam559/JDFTx/build/pseudopotentials/GBRV/hf_pbe.uspp':
  Title: Hf.  Created by USPP 7.3.6 on 14-9-2013
  Reference state energy: -78.399178.  12 valence electrons in orbitals:
    |500>  occupation: 2  eigenvalue: -3.016121
    |510>  occupation: 6  eigenvalue: -1.860466
    |600>  occupation: 0  eigenvalue: -0.643057
    |610>  occupation: 0  eigenvalue: -0.441591
    |520>  occupation: 2  eigenvalue: -0.613878
  lMax: 3  lLocal: 3  QijEcut: 5
  8 projectors sampled on a log grid with 679 points:
    l: 0  eig: -3.016122  rCut: 1.5
    l: 0  eig: -0.643058  rCut: 1.5
    l: 0  eig: 1.000000  rCut: 1.5
    l: 1  eig: -1.860465  rCut: 1.6
    l: 1  eig: -0.441594  rCut: 1.6
    l: 2  eig: -0.613878  rCut: 1.75
    l: 2  eig: 1.000000  rCut: 1.75
    l: 3  eig: 1.000000  rCut: 2.3
  Partial core density with radius 1
  Transforming core density to a uniform radial grid of dG=0.02 with 1396 points.
  Transforming local potential to a uniform radial grid of dG=0.02 with 1396 points.
  Transforming nonlocal projectors to a uniform radial grid of dG=0.02 with 432 points.
  Transforming density augmentations to a uniform radial grid of dG=0.02 with 1396 points.
  Transforming atomic orbitals to a uniform radial grid of dG=0.02 with 432 points.
  Core radius for overlap checks: 2.30 bohrs.

Reading pseudopotential file '/home/cam559/JDFTx/build/pseudopotentials/GBRV/o_pbe.uspp':
  Title: O.  Created by USPP 7.3.6 on 3-2-2014
  Reference state energy: -15.894388.  6 valence electrons in orbitals:
    |200>  occupation: 2  eigenvalue: -0.878823
    |210>  occupation: 4  eigenvalue: -0.332131
  lMax: 2  lLocal: 2  QijEcut: 6
  5 projectors sampled on a log grid with 511 points:
    l: 0  eig: -0.878823  rCut: 1.25
    l: 0  eig: 0.000000  rCut: 1.25
    l: 1  eig: -0.332132  rCut: 1.25
    l: 1  eig: 0.000000  rCut: 1.25
    l: 2  eig: 1.000000  rCut: 1.25
  Partial core density with radius 0.7
  Transforming core density to a uniform radial grid of dG=0.02 with 1396 points.
  Transforming local potential to a uniform radial grid of dG=0.02 with 1396 points.
  Transforming nonlocal projectors to a uniform radial grid of dG=0.02 with 432 points.
  Transforming density augmentations to a uniform radial grid of dG=0.02 with 1396 points.
  Transforming atomic orbitals to a uniform radial grid of dG=0.02 with 432 points.
  Core radius for overlap checks: 1.25 bohrs.

Initialized 2 species with 23 total atoms.

Folded 1 k-points by 3x6x6 to 108 k-points.

---------- Setting up k-points, bands, fillings ----------
Adding inversion symmetry to k-mesh for non-inversion-symmetric unit cell.
Reduced to 56 k-points under symmetry. 
Computing the number of bands and number of electrons
Calculating initial fillings.
nElectrons: 186.000000   nBands: 164   nStates: 56

----- Setting up reduced wavefunction bases (one per k-point) -----
average nbasis = 7872.602 , ideal nbasis = 7871.382

---------- Setting up ewald sum ----------
Optimum gaussian width for ewald sums = 2.900188 bohr.
Real space sum over 567 unit cells with max indices [  3  4  4  ]
Reciprocal space sum over 5625 terms with max indices [  12  7  7  ]

---------- Allocating electronic variables ----------
Initializing wave functions:  linear combination of atomic orbitals
Hf pseudo-atom occupations:   s ( 2 2 )  p ( 6 0 )  d ( 2 )
O pseudo-atom occupations:   s ( 2 )  p ( 4 )
	FillingsUpdate:  mu: +0.562314785  nElectrons: 186.000000
LCAOMinimize: Iter:   0  F: -637.5312292339567648  |grad|_K:  3.051e-03  alpha:  1.000e+00
	FillingsUpdate:  mu: +0.541925905  nElectrons: 186.000000
LCAOMinimize: Iter:   1  F: -639.2093251937187688  |grad|_K:  2.318e-03  alpha:  1.274e-01  linmin: -4.861e-01  cgtest:  9.084e-01  t[s]:     41.50
LCAOMinimize: Encountered beta<0, resetting CG.
LCAOMinimize: 	Predicted alpha/alphaT>3.000000, increasing alphaT to 3.822530e-01.
	FillingsUpdate:  mu: +0.557066603  nElectrons: 186.000000
LCAOMinimize: Iter:   2  F: -640.8105174672961084  |grad|_K:  6.469e-04  alpha:  4.043e-01  linmin:  4.965e-01  cgtest: -7.598e-01  t[s]:     60.03
LCAOMinimize: 	Bad step direction: g.d > 0.
LCAOMinimize: 	Undoing step.
LCAOMinimize: 	Step failed: resetting search direction.
	FillingsUpdate:  mu: +0.557066603  nElectrons: 186.000000
LCAOMinimize: Iter:   3  F: -640.8105174672961084  |grad|_K:  6.469e-04  alpha:  0.000e+00
	FillingsUpdate:  mu: +0.538719615  nElectrons: 186.000000
LCAOMinimize: Iter:   4  F: -640.8969557352104403  |grad|_K:  6.669e-05  alpha:  2.806e-01  linmin: -2.365e-02  cgtest:  1.685e-02  t[s]:     85.39
	FillingsUpdate:  mu: +0.540660476  nElectrons: 186.000000
LCAOMinimize: Iter:   5  F: -640.8979177499990101  |grad|_K:  2.457e-05  alpha:  2.824e-01  linmin: -1.349e-03  cgtest: -6.857e-03  t[s]:    100.04
	FillingsUpdate:  mu: +0.540292026  nElectrons: 186.000000
LCAOMinimize: Iter:   6  F: -640.8981730314707193  |grad|_K:  1.142e-05  alpha:  5.580e-01  linmin:  6.736e-03  cgtest: -2.227e-02  t[s]:    115.18
	FillingsUpdate:  mu: +0.540371281  nElectrons: 186.000000
LCAOMinimize: Iter:   7  F: -640.8981987515368246  |grad|_K:  2.814e-06  alpha:  2.625e-01  linmin: -1.246e-03  cgtest:  7.799e-02  t[s]:    130.05
	FillingsUpdate:  mu: +0.540445399  nElectrons: 186.000000
LCAOMinimize: Iter:   8  F: -640.8982017303449084  |grad|_K:  1.344e-06  alpha:  4.930e-01  linmin:  7.897e-05  cgtest: -3.432e-03  t[s]:    144.77
	FillingsUpdate:  mu: +0.540407582  nElectrons: 186.000000
LCAOMinimize: Iter:   9  F: -640.8982021432368583  |grad|_K:  3.740e-07  alpha:  3.000e-01  linmin:  7.411e-06  cgtest:  6.525e-04  t[s]:    159.68
	FillingsUpdate:  mu: +0.540433245  nElectrons: 186.000000
LCAOMinimize: Iter:  10  F: -640.8982021810085143  |grad|_K:  1.369e-07  alpha:  3.543e-01  linmin: -5.529e-05  cgtest:  1.112e-04  t[s]:    174.24
LCAOMinimize: Converged (|Delta F|<1.000000e-06 for 2 iters).


---- Citations for features of the code used in this run ----

   Software package:
      R. Sundararaman, K. Letchworth-Weaver, K.A. Schwarz, D. Gunceler, Y. Ozhabes and T.A. Arias, 'JDFTx: software for joint density-functional theory', SoftwareX 6, 278 (2017)

   gga-PBE exchange-correlation functional:
      J.P. Perdew, K. Burke and M. Ernzerhof, Phys. Rev. Lett. 77, 3865 (1996)

   Pseudopotentials:
      KF Garrity, JW Bennett, KM Rabe and D Vanderbilt, Comput. Mater. Sci. 81, 446 (2014)

   Total energy minimization with Auxiliary Hamiltonian:
      C. Freysoldt, S. Boeck, and J. Neugebauer, Phys. Rev. B 79, 241103(R) (2009)

This list may not be complete. Please suggest additional citations or
report any other bugs at https://github.com/shankar1729/jdftx/issues

Initialization completed successfully at t[s]:    179.58


-------- Electronic minimization -----------
	FillingsUpdate:  mu: +0.540433245  nElectrons: 186.000000
ElecMinimize: Iter:   0  F: -640.898202181008401  |grad|_K:  1.011e-04  alpha:  1.000e+00
	FillingsUpdate:  mu: +0.530940018  nElectrons: 186.000000
	SubspaceRotationAdjust: set factor to 0.914
ElecMinimize: Iter:   1  F: -641.236681191591060  |grad|_K:  5.766e-05  alpha:  4.519e-01  linmin:  8.829e-04  t[s]:    228.62
	FillingsUpdate:  mu: +0.522630476  nElectrons: 186.000000
	SubspaceRotationAdjust: set factor to 0.804
ElecMinimize: Iter:   2  F: -641.334137768447363  |grad|_K:  1.956e-05  alpha:  4.066e-01  linmin: -5.884e-04  t[s]:    259.56
	FillingsUpdate:  mu: +0.525950197  nElectrons: 186.000000
	SubspaceRotationAdjust: set factor to 1.01
ElecMinimize: Iter:   3  F: -641.351664843499179  |grad|_K:  9.124e-06  alpha:  6.225e-01  linmin:  3.887e-04  t[s]:    290.40
	FillingsUpdate:  mu: +0.523383152  nElectrons: 186.000000
	SubspaceRotationAdjust: set factor to 1.02
ElecMinimize: Iter:   4  F: -641.354905631313159  |grad|_K:  5.163e-06  alpha:  5.413e-01  linmin:  1.274e-04  t[s]:    320.99
	FillingsUpdate:  mu: +0.523860457  nElectrons: 186.000000
	SubspaceRotationAdjust: set factor to 0.839
ElecMinimize: Iter:   5  F: -641.355718157466299  |grad|_K:  2.579e-06  alpha:  4.207e-01  linmin:  3.591e-05  t[s]:    351.69
	FillingsUpdate:  mu: +0.524003745  nElectrons: 186.000000
	SubspaceRotationAdjust: set factor to 0.628
ElecMinimize: Iter:   6  F: -641.355919885212074  |grad|_K:  1.301e-06  alpha:  4.165e-01  linmin:  4.297e-05  t[s]:    382.37
	FillingsUpdate:  mu: +0.523830306  nElectrons: 186.000000
	SubspaceRotationAdjust: set factor to 0.552
ElecMinimize: Iter:   7  F: -641.355974742766307  |grad|_K:  6.926e-07  alpha:  4.462e-01  linmin:  2.248e-05  t[s]:    413.31
	FillingsUpdate:  mu: +0.523803594  nElectrons: 186.000000
	SubspaceRotationAdjust: set factor to 0.683
ElecMinimize: Iter:   8  F: -641.355992351174791  |grad|_K:  3.619e-07  alpha:  5.048e-01  linmin:  2.263e-05  t[s]:    444.47
	FillingsUpdate:  mu: +0.523844311  nElectrons: 186.000000
	SubspaceRotationAdjust: set factor to 0.782
ElecMinimize: Iter:   9  F: -641.355997532477431  |grad|_K:  2.122e-07  alpha:  5.444e-01  linmin:  1.432e-05  t[s]:    475.80
	FillingsUpdate:  mu: +0.523844836  nElectrons: 186.000000
	SubspaceRotationAdjust: set factor to 0.89
ElecMinimize: Iter:  10  F: -641.355999178907723  |grad|_K:  1.257e-07  alpha:  5.025e-01  linmin:  5.106e-06  t[s]:    506.71
	FillingsUpdate:  mu: +0.523834168  nElectrons: 186.000000
	SubspaceRotationAdjust: set factor to 0.972
ElecMinimize: Iter:  11  F: -641.355999750798901  |grad|_K:  6.718e-08  alpha:  4.968e-01  linmin:  2.986e-06  t[s]:    537.95
	FillingsUpdate:  mu: +0.523847255  nElectrons: 186.000000
	SubspaceRotationAdjust: set factor to 0.979
ElecMinimize: Iter:  12  F: -641.355999899296876  |grad|_K:  3.352e-08  alpha:  4.518e-01  linmin:  6.056e-07  t[s]:    568.78
	FillingsUpdate:  mu: +0.523840398  nElectrons: 186.000000
	SubspaceRotationAdjust: set factor to 0.915
ElecMinimize: Iter:  13  F: -641.355999938804416  |grad|_K:  1.911e-08  alpha:  4.817e-01  linmin:  4.231e-07  t[s]:    599.72
	FillingsUpdate:  mu: +0.523841295  nElectrons: 186.000000
	SubspaceRotationAdjust: set factor to 0.83
ElecMinimize: Iter:  14  F: -641.355999950039859  |grad|_K:  1.134e-08  alpha:  4.216e-01  linmin:  2.964e-07  t[s]:    630.77
	FillingsUpdate:  mu: +0.523842827  nElectrons: 186.000000
	SubspaceRotationAdjust: set factor to 0.809
ElecMinimize: Iter:  15  F: -641.355999954204322  |grad|_K:  6.256e-09  alpha:  4.441e-01  linmin:  3.512e-07  t[s]:    662.02
	FillingsUpdate:  mu: +0.523841847  nElectrons: 186.000000
	SubspaceRotationAdjust: set factor to 0.878
ElecMinimize: Iter:  16  F: -641.355999955620177  |grad|_K:  3.468e-09  alpha:  4.961e-01  linmin:  2.546e-07  t[s]:    693.47
ElecMinimize: Converged (|Delta F|<1.000000e-08 for 2 iters).
Setting wave functions to eigenvectors of Hamiltonian

# Ionic positions in cartesian coordinates:
ion Hf   2.585714000000000   4.458485000000000   6.630828999999999 1
ion Hf   6.835245000000000   9.325138000000001   6.777328000000000 1
ion Hf   6.862057000000000   5.274823000000000   1.792104000000000 1
ion Hf   2.612526000000000   0.408169000000000   1.645605000000000 1
ion Hf  12.087110000000001   4.458485000000000   5.083314000000000 1
ion Hf  16.336641000000000   9.325138000000001   5.229813000000000 1
ion Hf  16.363454000000001   5.274823000000000   0.244588000000000 1
ion Hf  12.113923000000000   0.408169000000000   0.098089000000000 1
ion O   4.204128000000000   7.227233999999999   9.063578000000000 1
ion O   5.216830000000000   2.360580000000000   4.344579000000000 1
ion O   5.243643000000000   2.506074000000000  -0.640645000000000 1
ion O   4.230941000000000   7.372728000000000   4.078354000000001 1
ion O   0.630955000000000   3.219377999999999   3.346506000000001 1
ion O   8.843629000000000   8.086031999999999   0.091203000000000 1
ion O   8.816815999999999   6.513930000000000   5.076427000000000 1
ion O   0.604142000000000   1.647276000000000   8.331730000000000 1
ion O  13.705524999999998   7.227233999999999   7.516062000000000 1
ion O  14.718227000000001   2.360580000000000   2.797064000000001 1
ion O  14.745040000000001   2.506074000000000  -2.188160000000000 1
ion O  13.732338000000000   7.372728000000000   2.530838000000000 1
ion O  10.132351999999997   3.219377999999999   1.798991000000001 1
ion O  18.345026000000001   8.086031999999999  -1.456313000000001 1
ion O  18.318213000000004   6.513930000000000   3.528910999999999 1

# Forces in Cartesian coordinates:
force Hf   0.001327458394334   0.001085780835642   0.000744583132248 1
force Hf   0.002650166265432   0.006424611911145   0.003344748986435 1
force Hf  -0.004988160882298  -0.000698646984838  -0.005111901389222 1
force Hf   0.001398827277237  -0.001119331707484   0.000345499629820 1
force Hf   0.001536125477270  -0.007733270694814   0.006165915419716 1
force Hf  -0.006600225973242  -0.000096388772271  -0.002203774474247 1
force Hf  -0.004635484004828   0.001273225072891   0.001558944027083 1
force Hf  -0.000338193259807  -0.000443508925593  -0.001816265808215 1
force O   0.001042071660504   0.000590584226772   0.000497961841113 1
force O   0.005542760794950  -0.000847130444570   0.001017698425252 1
force O   0.002809495523641  -0.001655193179079  -0.002516220832548 1
force O  -0.000802471149349  -0.000748211615475  -0.000325036593375 1
force O   0.000609861060317  -0.000463747906705  -0.001055069030660 1
force O   0.003176811163948   0.008318161962563  -0.005820019375258 1
force O   0.003748282470844  -0.000918170423904   0.004340505252421 1
force O  -0.000232076393356   0.000350525004271  -0.000728479239436 1
force O  -0.001824900766055  -0.002403866959552   0.000089730813717 1
force O   0.002082806280545   0.002600249792951   0.001054769489536 1
force O  -0.010229628846282   0.000561549207073  -0.003313550565484 1
force O   0.000478947715589  -0.003374612414960  -0.000097111751460 1
force O   0.000183055609086  -0.001079057897543   0.001892162374990 1
force O   0.001621544892590   0.000434708982595   0.000858428566950 1
force O   0.001436700872835  -0.000071401539693   0.001063546639096 1

# Energy components:
   Eewald =     -498.5657472239022923
       EH =      127.8027054261554838
     Eloc =     -322.8418602232398484
      Enl =      -80.3569901035881031
      Exc =     -358.6210342996370173
 Exc_core =      238.5199550600655698
       KE =      252.7071818949927717
-------------------------------------
     Etot =     -641.3557894691534784
       TS =        0.0002104864666909
-------------------------------------
        F =     -641.3559999556201774

IonicMinimize: Iter:   0  F: -641.355999955620177  |grad|_K:  3.087e-03  t[s]:    700.93

#--- Lowdin population analysis ---
# oxidation-state Hf +0.764 +0.636 +0.753 +0.763 +0.641 +0.760 +0.759 +0.598
# oxidation-state O -0.362 -0.369 -0.369 -0.368 -0.353 -0.341 -0.344 -0.353 -0.366 -0.368 -0.359 -0.355 -0.344 -0.354 -0.353


-------- Electronic minimization -----------
	FillingsUpdate:  mu: +0.523622071  nElectrons: 186.000000
ElecMinimize: Iter:   0  F: -641.356506923900838  |grad|_K:  1.228e-06  alpha:  1.000e+00
	FillingsUpdate:  mu: +0.523707036  nElectrons: 186.000000
	SubspaceRotationAdjust: set factor to 0.651
ElecMinimize: Iter:   1  F: -641.356567853316051  |grad|_K:  7.417e-07  alpha:  5.525e-01  linmin: -5.592e-06  t[s]:    758.40
	FillingsUpdate:  mu: +0.523687378  nElectrons: 186.000000
	SubspaceRotationAdjust: set factor to 0.757
ElecMinimize: Iter:   2  F: -641.356584697148492  |grad|_K:  3.448e-07  alpha:  4.191e-01  linmin:  8.478e-08  t[s]:    789.53
	FillingsUpdate:  mu: +0.523673949  nElectrons: 186.000000
	SubspaceRotationAdjust: set factor to 1.06
ElecMinimize: Iter:   3  F: -641.356588781834489  |grad|_K:  1.196e-07  alpha:  4.704e-01  linmin: -2.567e-07  t[s]:    820.57
	FillingsUpdate:  mu: +0.523672378  nElectrons: 186.000000
	SubspaceRotationAdjust: set factor to 1.28
ElecMinimize: Iter:   4  F: -641.356589267171671  |grad|_K:  4.144e-08  alpha:  4.641e-01  linmin:  3.357e-07  t[s]:    851.73
	FillingsUpdate:  mu: +0.523670578  nElectrons: 186.000000
	SubspaceRotationAdjust: set factor to 1.36
ElecMinimize: Iter:   5  F: -641.356589325724258  |grad|_K:  2.036e-08  alpha:  4.668e-01  linmin:  1.563e-07  t[s]:    882.48
	FillingsUpdate:  mu: +0.523673239  nElectrons: 186.000000
	SubspaceRotationAdjust: set factor to 0.929
ElecMinimize: Iter:   6  F: -641.356589335658441  |grad|_K:  8.914e-09  alpha:  3.281e-01  linmin:  5.120e-08  t[s]:    913.70
	FillingsUpdate:  mu: +0.523671516  nElectrons: 186.000000
	SubspaceRotationAdjust: set factor to 0.546
ElecMinimize: Iter:   7  F: -641.356589337596233  |grad|_K:  4.586e-09  alpha:  3.339e-01  linmin:  2.802e-08  t[s]:    944.95
ElecMinimize: Converged (|Delta F|<1.000000e-08 for 2 iters).
Setting wave functions to eigenvectors of Hamiltonian

# Ionic positions in cartesian coordinates:
ion Hf   2.587041729081990   4.459571352247406   6.631574145500141 1
ion Hf   6.837895436953090   9.331563183322910   6.780673311354326 1
ion Hf   6.857069109805360   5.274124924426926   1.786992660978670 1
ion Hf   2.613925097964894   0.407050239704281   1.645951061997713 1
ion Hf  12.088646396164926   4.450752300716950   5.089480477787607 1
ion Hf  16.330041044714413   9.325042182639494   5.227609787893646 1
ion Hf  16.358818786682832   5.276096796484655   0.246147506394976 1
ion Hf  12.113585077427850   0.407726062486171   0.096273296559677 1
ion O   4.205170342348160   7.227825155638536   9.064076524209007 1
ion O   5.222373031482606   2.359733440967194   4.345597260793145 1
ion O   5.246452766211298   2.504419378232685  -0.643160658464656 1
ion O   4.230138799538306   7.371980359796289   4.078029525774518 1
ion O   0.631565131747974   3.218914823505058   3.345451493337234 1
ion O   8.846806081851604   8.094350733374327   0.085383542992634 1
ion O   8.820564553158500   6.513012400987860   5.080768067620314 1
ion O   0.603910194294301   1.647627096416035   8.331002083128459 1
ion O  13.703700369921600   7.224830704452211   7.516152293181609 1
ion O  14.720310076968202   2.363180821204716   2.798119331857428 1
ion O  14.734810641841374   2.506636120618837  -2.191472988197592 1
ion O  13.732817218403248   7.369353958996805   2.530741450616432 1
ion O  10.132535326296741   3.218299513514221   1.800883724742883 1
ion O  18.346647815580248   8.086467280394357  -1.455454009065157 1
ion O  18.319649971560494   6.513859169872071   3.529975109006988 1

# Forces in Cartesian coordinates:
force Hf   0.000662516313518   0.000753066133220   0.000140944434692 1
force Hf   0.003176424923218   0.004667532502668   0.001990010913446 1
force Hf  -0.002819864178223   0.000233152659374  -0.003622018355872 1
force Hf   0.000447857537691  -0.000883658133226   0.000423693750357 1
force Hf  -0.000069745207525  -0.006367851887879   0.005245524784283 1
force Hf  -0.004748260201350  -0.000508081874297  -0.001824408404893 1
force Hf  -0.003211390430072   0.001105832363893   0.001368679677702 1
force Hf  -0.000517130406541  -0.000286568048635  -0.001128879961549 1
force O   0.001195385879601   0.000461764173940   0.000554131380037 1
force O   0.005040479337107  -0.000223150672600   0.000392340230217 1
force O   0.002574031500832  -0.001290404292029  -0.002135405906308 1
force O  -0.000424307448937  -0.000801528366820  -0.000362665802876 1
force O   0.000500970527890  -0.000229400347878  -0.000900348600565 1
force O   0.002005372101374   0.006610349142863  -0.004505407230257 1
force O   0.002848475620751  -0.000707804277445   0.003607116723143 1
force O  -0.000416571529413   0.000138614983756  -0.000621937759393 1
force O  -0.001428402910639  -0.002083330073922   0.000169591602049 1
force O   0.002045958380200   0.002025562950050   0.000734528601278 1
force O  -0.009172779030631   0.000483157171561  -0.002802955425537 1
force O   0.000389019731223  -0.002725289870203  -0.000074071530988 1
force O  -0.000050960235676  -0.000837594938836   0.001677486733416 1
force O   0.000836642979938   0.000270712219213   0.000701636344643 1
force O   0.000980968760916   0.000222703506874   0.000999022460638 1

# Energy components:
   Eewald =     -498.6810828257544017
       EH =      127.6888292196885430
     Eloc =     -322.6068434469555086
      Enl =      -80.3563804045660675
      Exc =     -358.6178822458640525
 Exc_core =      238.5199563749969514
       KE =      252.6970231543171224
-------------------------------------
     Etot =     -641.3563801741373709
       TS =        0.0002091634588667
-------------------------------------
        F =     -641.3565893375962332

IonicMinimize: Iter:   1  F: -641.356589337596233  |grad|_K:  2.476e-03  alpha:  1.000e+00  linmin: -9.872e-01  t[s]:    952.21

#--- Lowdin population analysis ---
# oxidation-state Hf +0.764 +0.636 +0.755 +0.762 +0.640 +0.761 +0.760 +0.598
# oxidation-state O -0.362 -0.369 -0.368 -0.368 -0.354 -0.340 -0.346 -0.354 -0.365 -0.367 -0.358 -0.355 -0.344 -0.354 -0.353


-------- Electronic minimization -----------
	FillingsUpdate:  mu: +0.475337324  nElectrons: 186.000000
ElecMinimize: Iter:   0  F: -641.117548303641570  |grad|_K:  8.192e-05  alpha:  1.000e+00
	FillingsUpdate:  mu: +0.527641322  nElectrons: 186.000000
	SubspaceRotationAdjust: set factor to 0.689
ElecMinimize: Iter:   1  F: -641.328935890756497  |grad|_K:  2.281e-05  alpha:  4.327e-01  linmin:  2.220e-04  t[s]:   1008.86
	FillingsUpdate:  mu: +0.521063378  nElectrons: 186.000000
	SubspaceRotationAdjust: set factor to 0.83
ElecMinimize: Iter:   2  F: -641.349591276898195  |grad|_K:  1.271e-05  alpha:  5.444e-01  linmin: -2.399e-05  t[s]:   1040.28
	FillingsUpdate:  mu: +0.522702334  nElectrons: 186.000000
	SubspaceRotationAdjust: set factor to 1.1
ElecMinimize: Iter:   3  F: -641.356470683277735  |grad|_K:  6.617e-06  alpha:  5.827e-01  linmin:  2.186e-05  t[s]:   1071.74
	FillingsUpdate:  mu: +0.522804955  nElectrons: 186.000000
	SubspaceRotationAdjust: set factor to 1.12
ElecMinimize: Iter:   4  F: -641.357822965748483  |grad|_K:  2.658e-06  alpha:  4.232e-01  linmin: -1.234e-06  t[s]:   1102.92
	FillingsUpdate:  mu: +0.522497507  nElectrons: 186.000000
	SubspaceRotationAdjust: set factor to 1.06
ElecMinimize: Iter:   5  F: -641.358064328785758  |grad|_K:  1.191e-06  alpha:  4.678e-01  linmin:  2.565e-05  t[s]:   1133.74
	FillingsUpdate:  mu: +0.522242432  nElectrons: 186.000000
	SubspaceRotationAdjust: set factor to 0.9
ElecMinimize: Iter:   6  F: -641.358108225034130  |grad|_K:  5.199e-07  alpha:  4.235e-01  linmin: -5.716e-07  t[s]:   1164.69
	FillingsUpdate:  mu: +0.522533110  nElectrons: 186.000000
	SubspaceRotationAdjust: set factor to 0.676
ElecMinimize: Iter:   7  F: -641.358115490661930  |grad|_K:  2.547e-07  alpha:  3.679e-01  linmin: -7.740e-07  t[s]:   1195.69
	FillingsUpdate:  mu: +0.522416760  nElectrons: 186.000000
	SubspaceRotationAdjust: set factor to 0.699
ElecMinimize: Iter:   8  F: -641.358117455120464  |grad|_K:  1.021e-07  alpha:  4.145e-01  linmin:  1.264e-06  t[s]:   1226.83
	FillingsUpdate:  mu: +0.522426593  nElectrons: 186.000000
	SubspaceRotationAdjust: set factor to 0.837
ElecMinimize: Iter:   9  F: -641.358117831404570  |grad|_K:  5.310e-08  alpha:  4.940e-01  linmin:  9.977e-07  t[s]:   1257.76
	FillingsUpdate:  mu: +0.522444083  nElectrons: 186.000000
	SubspaceRotationAdjust: set factor to 0.936
ElecMinimize: Iter:  10  F: -641.358117925663237  |grad|_K:  2.783e-08  alpha:  4.577e-01  linmin:  5.919e-07  t[s]:   1288.61
	FillingsUpdate:  mu: +0.522435892  nElectrons: 186.000000
	SubspaceRotationAdjust: set factor to 1.04
ElecMinimize: Iter:  11  F: -641.358117953598139  |grad|_K:  1.437e-08  alpha:  4.937e-01  linmin:  5.515e-07  t[s]:   1319.09
	FillingsUpdate:  mu: +0.522437757  nElectrons: 186.000000
	SubspaceRotationAdjust: set factor to 0.973
ElecMinimize: Iter:  12  F: -641.358117960101822  |grad|_K:  7.445e-09  alpha:  4.313e-01  linmin:  1.926e-07  t[s]:   1350.15
	FillingsUpdate:  mu: +0.522436166  nElectrons: 186.000000
	SubspaceRotationAdjust: set factor to 0.729
ElecMinimize: Iter:  13  F: -641.358117961788480  |grad|_K:  3.878e-09  alpha:  4.166e-01  linmin:  1.624e-07  t[s]:   1380.93
ElecMinimize: Converged (|Delta F|<1.000000e-08 for 2 iters).
Setting wave functions to eigenvectors of Hamiltonian

# Ionic positions in cartesian coordinates:
ion Hf   2.587440789629170   4.463315316248361   6.627852660345347 1
ion Hf   6.869596835242090   9.357378995645405   6.786741232850789 1
ion Hf   6.850569695860221   5.283682995446955   1.767944180030917 1
ion Hf   2.610152287432831   0.401344507821528   1.650205958622586 1
ion Hf  12.075096994704188   4.407082232491981   5.127071509999098 1
ion Hf  16.304388768008980   9.317300596671881   5.214985159783565 1
ion Hf  16.342900481633372   5.284218368481576   0.256343927129725 1
ion Hf  12.107794325564569   0.406513718036720   0.092133868694497 1
ion O   4.216805822134374   7.230722806512316   9.069273784623878 1
ion O   5.261736281268817   2.362864770355355   4.343860606483100 1
ion O   5.266779773099342   2.496266577105369  -0.658447427434054 1
ion O   4.229677019681248   7.364630418745061   4.074581395435927 1
ion O   0.635097594204812   3.218823548001925   3.338944797550157 1
ion O   8.854631548105186   8.137271366584066   0.057314301226683 1
ion O   8.837848115590891   6.508612817593451   5.105793120922438 1
ion O   0.598938834252518   1.647070574933026   8.326497296570027 1
ion O  13.694754592342912   7.209500508759262   7.518236000766031 1
ion O  14.737712106595323   2.375897626878853   2.801806290626739 1
ion O  14.664650147586116   2.510127836310255  -2.211443779130964 1
ion O  13.735541361493825   7.351178266355450   2.530268047242446 1
ion O  10.130304703468914   3.213036913162707   1.813536700093932 1
ion O  18.347568368351883   8.087436194833973  -1.450720529858938 1
ion O  18.324488553748424   6.518141043024521   3.538015897426074 1

# Forces in Cartesian coordinates:
force Hf   0.001949394195291  -0.000776147936494  -0.000056607165638 1
force Hf   0.000307512591324   0.000974896429691  -0.002292638563096 1
force Hf   0.000655850555914  -0.000116052963294   0.000320112011130 1
force Hf   0.001172281317407   0.000430371023665  -0.001277442975217 1
force Hf  -0.002861739874323  -0.001231864519769  -0.000036104903677 1
force Hf   0.000452000906518  -0.000341912716767   0.000238477523845 1
force Hf  -0.000375908177589  -0.001205169816701  -0.000075857511751 1
force Hf   0.001104978178720  -0.000078160909862   0.001919817987817 1
force O   0.001042015098123  -0.000216098782718  -0.000438279779592 1
force O   0.001290147772775   0.001394368167659  -0.001657456905521 1
force O   0.000337692807540   0.000908063596580   0.000140613566590 1
force O   0.000735367725849   0.000081049137111  -0.000336113245293 1
force O  -0.000333656216816   0.000861076167586  -0.000001182680603 1
force O  -0.000759570055400  -0.000219196357859   0.001670071354394 1
force O  -0.000131250145383  -0.000095625048549   0.000019101266214 1
force O  -0.000734865815231  -0.000326958791471   0.000037994059451 1
force O  -0.000026381908504  -0.000222086031869   0.000398285505303 1
force O   0.000654473618609  -0.000715861185335  -0.000217074874458 1
force O  -0.002380850389805  -0.000365974422211   0.000924812530318 1
force O  -0.000583311883325   0.000568318587287   0.000117008666676 1
force O   0.000046849350758  -0.000164657157799   0.000833102066961 1
force O  -0.001726205407755   0.000177002922966   0.000184292176113 1
force O   0.000112332416926   0.000329355326143  -0.000300391539359 1

# Energy components:
   Eewald =     -499.4249625398401236
       EH =      126.9761788462292316
     Eloc =     -321.1284790209359130
      Enl =      -80.3554300335368481
      Exc =     -358.6063699669366542
 Exc_core =      238.5200073079400340
       KE =      252.6611221393108337
-------------------------------------
     Etot =     -641.3579332677696812
       TS =        0.0001846940187915
-------------------------------------
        F =     -641.3581179617884800

IonicMinimize: Iter:   2  F: -641.358117961788480  |grad|_K:  9.152e-04  alpha:  1.000e+00  linmin: -1.952e-01  t[s]:   1388.06

#--- Lowdin population analysis ---
# oxidation-state Hf +0.767 +0.633 +0.762 +0.764 +0.632 +0.763 +0.763 +0.597
# oxidation-state O -0.363 -0.371 -0.368 -0.369 -0.356 -0.336 -0.351 -0.358 -0.364 -0.367 -0.354 -0.355 -0.346 -0.356 -0.351


-------- Electronic minimization -----------
	FillingsUpdate:  mu: +0.507246810  nElectrons: 186.000000
ElecMinimize: Iter:   0  F: -641.321212292048585  |grad|_K:  3.318e-05  alpha:  1.000e+00
	FillingsUpdate:  mu: +0.526622040  nElectrons: 186.000000
	SubspaceRotationAdjust: set factor to 0.624
ElecMinimize: Iter:   1  F: -641.353433976632914  |grad|_K:  1.062e-05  alpha:  4.013e-01  linmin:  8.529e-05  t[s]:   1444.25
	FillingsUpdate:  mu: +0.520997329  nElectrons: 186.000000
	SubspaceRotationAdjust: set factor to 0.668
ElecMinimize: Iter:   2  F: -641.357103726828996  |grad|_K:  4.997e-06  alpha:  4.458e-01  linmin:  3.752e-05  t[s]:   1475.26
	FillingsUpdate:  mu: +0.521656065  nElectrons: 186.000000
	SubspaceRotationAdjust: set factor to 0.939
ElecMinimize: Iter:   3  F: -641.358054156652202  |grad|_K:  2.451e-06  alpha:  5.217e-01  linmin: -3.403e-06  t[s]:   1506.17
	FillingsUpdate:  mu: +0.522349040  nElectrons: 186.000000
	SubspaceRotationAdjust: set factor to 1.28
ElecMinimize: Iter:   4  F: -641.358256832693201  |grad|_K:  1.000e-06  alpha:  4.618e-01  linmin: -3.856e-07  t[s]:   1537.43
	FillingsUpdate:  mu: +0.521988114  nElectrons: 186.000000
	SubspaceRotationAdjust: set factor to 1.53
ElecMinimize: Iter:   5  F: -641.358292429075846  |grad|_K:  4.354e-07  alpha:  4.872e-01  linmin:  5.631e-06  t[s]:   1568.32
	FillingsUpdate:  mu: +0.522194358  nElectrons: 186.000000
	SubspaceRotationAdjust: set factor to 1.26
ElecMinimize: Iter:   6  F: -641.358298267148143  |grad|_K:  2.336e-07  alpha:  4.215e-01  linmin:  9.984e-08  t[s]:   1599.74
	FillingsUpdate:  mu: +0.522074568  nElectrons: 186.000000
	SubspaceRotationAdjust: set factor to 0.721
ElecMinimize: Iter:   7  F: -641.358299178575521  |grad|_K:  1.047e-07  alpha:  2.287e-01  linmin: -1.958e-07  t[s]:   1630.99
	FillingsUpdate:  mu: +0.522090566  nElectrons: 186.000000
	SubspaceRotationAdjust: set factor to 0.736
ElecMinimize: Iter:   8  F: -641.358299475575564  |grad|_K:  4.023e-08  alpha:  3.707e-01  linmin:  3.039e-07  t[s]:   1662.11
	FillingsUpdate:  mu: +0.522102337  nElectrons: 186.000000
	SubspaceRotationAdjust: set factor to 0.838
ElecMinimize: Iter:   9  F: -641.358299530950489  |grad|_K:  2.155e-08  alpha:  4.683e-01  linmin:  1.425e-07  t[s]:   1692.53
	FillingsUpdate:  mu: +0.522097251  nElectrons: 186.000000
	SubspaceRotationAdjust: set factor to 0.887
ElecMinimize: Iter:  10  F: -641.358299545705108  |grad|_K:  1.181e-08  alpha:  4.348e-01  linmin:  2.043e-07  t[s]:   1723.67
	FillingsUpdate:  mu: +0.522099379  nElectrons: 186.000000
	SubspaceRotationAdjust: set factor to 0.989
ElecMinimize: Iter:  11  F: -641.358299551400592  |grad|_K:  6.329e-09  alpha:  5.588e-01  linmin:  1.215e-07  t[s]:   1754.42
	FillingsUpdate:  mu: +0.522098783  nElectrons: 186.000000
	SubspaceRotationAdjust: set factor to 0.975
ElecMinimize: Iter:  12  F: -641.358299552666722  |grad|_K:  3.256e-09  alpha:  4.326e-01  linmin: -4.764e-08  t[s]:   1785.05
ElecMinimize: Converged (|Delta F|<1.000000e-08 for 2 iters).
Setting wave functions to eigenvectors of Hamiltonian

# Ionic positions in cartesian coordinates:
ion Hf   2.600651332187553   4.459512635862605   6.627877438045697 1
ion Hf   6.874747305980160   9.369367311403058   6.775102054849469 1
ion Hf   6.850715032686564   5.282905790258022   1.765362314316906 1
ion Hf   2.618393155843339   0.403075018587210   1.642609913069624 1
ion Hf  12.057830251667044   4.392006369588763   5.132877570311773 1
ion Hf  16.301310078599126   9.314884128352457   5.214310660360260 1
ion Hf  16.336488353184041   5.278043275508535   0.257398648576252 1
ion Hf  12.114241117470200   0.405743017922064   0.102594319910357 1
ion O   4.224567879440532   7.230020533484664   9.067076145222810 1
ion O   5.275486665881024   2.371171894539641   4.334154942520733 1
ion O   5.271793541253208   2.500489637950773  -0.660070735007321 1
ion O   4.233674457332145   7.364388664661323   4.072071813548234 1
ion O   0.633617922270270   3.223955387670205   3.337866385215949 1
ion O   8.852568728612560   8.143870970172197   0.062294943046150 1
ion O   8.840509894048106   6.507254734640383   5.110093491074222 1
ion O   0.593990598940505   1.645361230064741   8.325985428683429 1
ion O  13.692894982224130   7.205817622483651   7.520844325645809 1
ion O  14.744051246437612   2.373950895401818   2.801347970145770 1
ion O  14.639412675871103   2.508489826607006  -2.208939884298014 1
ion O  13.732371264217136   7.351603962582899   2.530878225570493 1
ion O  10.130661563156606   3.211093524919531   1.820620146582359 1
ion O  18.338031788229681   8.089000848265407  -1.448774203101223 1
ion O  18.326465164467358   6.520410719073045   3.537213085710261 1

# Forces in Cartesian coordinates:
force Hf  -0.002303954637658   0.001035420728904  -0.000711744584436 1
force Hf   0.001909849166826  -0.001519194089744  -0.000250335412174 1
force Hf   0.002042417524086   0.001946336219013  -0.000042174884454 1
force Hf  -0.002806084479476  -0.000644543116326  -0.000612133787528 1
force Hf  -0.000804669784570   0.000304335119767   0.000273183259549 1
force Hf   0.000857538295834  -0.002042170327169   0.000832651242087 1
force Hf   0.000486919546441   0.000773342951630   0.000122963733353 1
force Hf   0.000109575156504  -0.001995845313307   0.001084999706230 1
force O   0.000426311746793   0.000310443033731  -0.000762428827800 1
force O  -0.000031510866164   0.000567278919750  -0.001036409064629 1
force O  -0.000158671767907   0.000053589351077  -0.000935028636388 1
force O   0.000601445604135   0.000897452181286  -0.000411058451908 1
force O   0.001819851013905  -0.000796101391838  -0.000379255820937 1
force O  -0.001037311316888  -0.000037090411644   0.001009846901837 1
force O  -0.001363427995795   0.000684323660437   0.000026571596675 1
force O   0.001302032186010   0.000791577989544  -0.000002293617019 1
force O  -0.000616936000947  -0.000360074022418  -0.000099446566943 1
force O  -0.000384475481412  -0.000364380537336   0.000282122899355 1
force O  -0.000621577139660  -0.000539450821845   0.000603429856662 1
force O  -0.000499321040791   0.000110937274800   0.000569079318268 1
force O  -0.000244508064323  -0.000177586629621   0.000445572597910 1
force O   0.000378067167665   0.001261985933396   0.000187806085993 1
force O   0.001047995348380  -0.000490117395585  -0.000279908995013 1

# Energy components:
   Eewald =     -499.6285061485264123
       EH =      126.7762465492367454
     Eloc =     -320.7169347963012456
      Enl =      -80.3544890320706315
      Exc =     -358.6019533512970270
 Exc_core =      238.5200319737797940
       KE =      252.6474863877143946
-------------------------------------
     Etot =     -641.3581184174644250
       TS =        0.0001811352023350
-------------------------------------
        F =     -641.3582995526667219

IonicMinimize: Iter:   3  F: -641.358299552666722  |grad|_K:  9.577e-04  alpha:  1.000e+00  linmin:  1.561e-02  t[s]:   1792.51

#--- Lowdin population analysis ---
# oxidation-state Hf +0.768 +0.633 +0.760 +0.767 +0.630 +0.762 +0.763 +0.598
# oxidation-state O -0.363 -0.369 -0.366 -0.368 -0.357 -0.337 -0.350 -0.358 -0.366 -0.367 -0.353 -0.355 -0.345 -0.358 -0.353


-------- Electronic minimization -----------
	FillingsUpdate:  mu: +0.522012642  nElectrons: 186.000000
ElecMinimize: Iter:   0  F: -641.358280934504933  |grad|_K:  1.621e-06  alpha:  1.000e+00
	FillingsUpdate:  mu: +0.522104329  nElectrons: 186.000000
	SubspaceRotationAdjust: set factor to 0.624
ElecMinimize: Iter:   1  F: -641.358374818746711  |grad|_K:  1.023e-06  alpha:  4.894e-01  linmin:  1.860e-05  t[s]:   1850.23
	FillingsUpdate:  mu: +0.522018561  nElectrons: 186.000000
	SubspaceRotationAdjust: set factor to 0.607
ElecMinimize: Iter:   2  F: -641.358401347172276  |grad|_K:  4.083e-07  alpha:  3.473e-01  linmin: -1.024e-06  t[s]:   1881.21
	FillingsUpdate:  mu: +0.522066684  nElectrons: 186.000000
	SubspaceRotationAdjust: set factor to 0.888
ElecMinimize: Iter:   3  F: -641.358407684542044  |grad|_K:  1.607e-07  alpha:  5.202e-01  linmin: -4.947e-07  t[s]:   1912.21
	FillingsUpdate:  mu: +0.522059359  nElectrons: 186.000000
	SubspaceRotationAdjust: set factor to 0.993
ElecMinimize: Iter:   4  F: -641.358408527757206  |grad|_K:  6.795e-08  alpha:  4.469e-01  linmin: -1.067e-07  t[s]:   1943.47
	FillingsUpdate:  mu: +0.522050447  nElectrons: 186.000000
	SubspaceRotationAdjust: set factor to 1.08
ElecMinimize: Iter:   5  F: -641.358408676605677  |grad|_K:  3.244e-08  alpha:  4.413e-01  linmin:  9.219e-08  t[s]:   1974.74
	FillingsUpdate:  mu: +0.522057895  nElectrons: 186.000000
	SubspaceRotationAdjust: set factor to 0.885
ElecMinimize: Iter:   6  F: -641.358408709133414  |grad|_K:  1.499e-08  alpha:  4.232e-01  linmin:  1.499e-07  t[s]:   2005.88
	FillingsUpdate:  mu: +0.522054504  nElectrons: 186.000000
	SubspaceRotationAdjust: set factor to 0.535
ElecMinimize: Iter:   7  F: -641.358408714470670  |grad|_K:  7.099e-09  alpha:  3.250e-01  linmin: -1.464e-07  t[s]:   2036.97
	FillingsUpdate:  mu: +0.522055041  nElectrons: 186.000000
	SubspaceRotationAdjust: set factor to 0.47
ElecMinimize: Iter:   8  F: -641.358408716101053  |grad|_K:  3.345e-09  alpha:  4.429e-01  linmin: -1.238e-07  t[s]:   2068.29
ElecMinimize: Converged (|Delta F|<1.000000e-08 for 2 iters).
Setting wave functions to eigenvectors of Hamiltonian

# Ionic positions in cartesian coordinates:
ion Hf   2.599977225150923   4.461391234769382   6.626110901952173 1
ion Hf   6.882883622297573   9.371616858068482   6.769922463828279 1
ion Hf   6.855560747539237   5.288090101856966   1.762763380306078 1
ion Hf   2.613975085259909   0.401639854655654   1.636943308149506 1
ion Hf  12.048387998917066   4.384770363930563   5.137263669768148 1
ion Hf  16.301071573777776   9.307486372290620   5.216412304053891 1
ion Hf  16.333808445092149   5.277789996723707   0.258458874813659 1
ion Hf  12.117806303709692   0.398776771136112   0.110530138063764 1
ion O   4.229471634392116   7.230837494613281   9.063503408285644 1
ion O   5.282258954818876   2.376459533862399   4.326720418044003 1
ion O   5.273804072887393   2.502406709421210  -0.664174269946173 1
ion O   4.237187904441556   7.367290557587115   4.069592079837775 1
ion O   0.638908433809699   3.223634165907443   3.336010605050288 1
ion O   8.849182421403841   8.148312456585849   0.066885300958214 1
ion O   8.838055823596864   6.508699234954142   5.112822806633829 1
ion O   0.596026450039786   1.647344601433426   8.325664613094155 1
ion O  13.689655517170966   7.202680476809398   7.521701052315580 1
ion O  14.745790699375059   2.372343932809005   2.802331351346712 1
ion O  14.624589879210344   2.506049107001461  -2.206173381616407 1
ion O  13.729289180655432   7.351676265121733   2.533016346697366 1
ion O  10.130219306159800   3.209427129326163   1.825613503708163 1
ion O  18.335382973532390   8.094028727214097  -1.447097636167601 1
ion O  18.331180746761557   6.519666053921786   3.535973760822951 1

# Forces in Cartesian coordinates:
force Hf   0.000068597911853   0.000262210098491  -0.001050104378511 1
force Hf   0.000115683513815  -0.000081903426373   0.000169410813149 1
force Hf   0.000017882647448   0.000354595488013  -0.000125572483139 1
force Hf  -0.000025811119296   0.000238366344581  -0.000272695969480 1
force Hf  -0.000516502919055  -0.000143395847267   0.000246281533274 1
force Hf   0.001035714569948  -0.000261660465313   0.000517708662890 1
force Hf   0.001008123494540  -0.000318343864732   0.000121131612218 1
force Hf  -0.000996259238962  -0.000521656976233   0.000647705087972 1
force O  -0.000047321244737   0.000474379930107  -0.000888576971165 1
force O  -0.000495372939842  -0.000040401234436  -0.000245782670843 1
force O  -0.000253193537555   0.000100606168521  -0.000956608830643 1
force O   0.000218951982971   0.001015978832419  -0.000538520882661 1
force O   0.000195519441603   0.000109040698375  -0.000382522194168 1
force O  -0.000009625348443   0.000383736502390   0.000581994666001 1
force O  -0.000252142533421   0.000071524650037  -0.000159709109660 1
force O  -0.000095725424363   0.000086371104694  -0.000148691668508 1
force O  -0.000191318420839  -0.000374243603938   0.000116566077728 1
force O  -0.000275207588443  -0.000338249409146   0.000725613278392 1
force O   0.000759967129718  -0.000420970590006   0.000606541463173 1
force O   0.000296215561768  -0.000582423475111   0.000786771097181 1
force O   0.000364516521566  -0.000442321817024   0.000135312661682 1
force O  -0.000526912522535   0.000300828535954   0.000262172074908 1
force O  -0.000319131200135   0.000165019553345  -0.000281421238301 1

# Energy components:
   Eewald =     -499.7310120158818449
       EH =      126.6815127434933146
     Eloc =     -320.5194285027133674
      Enl =      -80.3545550315082266
      Exc =     -358.6017687184171336
 Exc_core =      238.5200465113005919
       KE =      252.6469763645627609
-------------------------------------
     Etot =     -641.3582286491638342
       TS =        0.0001800669372014
-------------------------------------
        F =     -641.3584087161010530

IonicMinimize: Iter:   4  F: -641.358408716101053  |grad|_K:  4.606e-04  alpha:  1.000e+00  linmin: -2.440e-01  t[s]:   2075.69

#--- Lowdin population analysis ---
# oxidation-state Hf +0.768 +0.633 +0.759 +0.767 +0.629 +0.763 +0.766 +0.599
# oxidation-state O -0.364 -0.370 -0.367 -0.369 -0.358 -0.337 -0.349 -0.358 -0.366 -0.367 -0.353 -0.355 -0.345 -0.357 -0.352


-------- Electronic minimization -----------
	FillingsUpdate:  mu: +0.522192079  nElectrons: 186.000000
ElecMinimize: Iter:   0  F: -641.358417187307623  |grad|_K:  7.600e-07  alpha:  1.000e+00
	FillingsUpdate:  mu: +0.522085447  nElectrons: 186.000000
	SubspaceRotationAdjust: set factor to 0.46
ElecMinimize: Iter:   1  F: -641.358441457213189  |grad|_K:  3.491e-07  alpha:  5.752e-01  linmin:  2.740e-06  t[s]:   2133.49
	FillingsUpdate:  mu: +0.522139979  nElectrons: 186.000000
	SubspaceRotationAdjust: set factor to 0.654
ElecMinimize: Iter:   2  F: -641.358448176821753  |grad|_K:  2.740e-07  alpha:  7.547e-01  linmin: -4.686e-07  t[s]:   2164.58
	FillingsUpdate:  mu: +0.522136191  nElectrons: 186.000000
	SubspaceRotationAdjust: set factor to 0.811
ElecMinimize: Iter:   3  F: -641.358451378117252  |grad|_K:  1.432e-07  alpha:  5.835e-01  linmin: -3.523e-07  t[s]:   2195.97
	FillingsUpdate:  mu: +0.522120582  nElectrons: 186.000000
	SubspaceRotationAdjust: set factor to 0.86
ElecMinimize: Iter:   4  F: -641.358452121732057  |grad|_K:  6.125e-08  alpha:  4.963e-01  linmin:  1.841e-08  t[s]:   2226.85
	FillingsUpdate:  mu: +0.522129021  nElectrons: 186.000000
	SubspaceRotationAdjust: set factor to 0.824
ElecMinimize: Iter:   5  F: -641.358452246256661  |grad|_K:  2.785e-08  alpha:  4.543e-01  linmin: -2.273e-08  t[s]:   2258.00
	FillingsUpdate:  mu: +0.522125180  nElectrons: 186.000000
	SubspaceRotationAdjust: set factor to 0.771
ElecMinimize: Iter:   6  F: -641.358452269642157  |grad|_K:  1.274e-08  alpha:  4.127e-01  linmin:  1.045e-08  t[s]:   2288.66
	FillingsUpdate:  mu: +0.522126161  nElectrons: 186.000000
	SubspaceRotationAdjust: set factor to 0.728
ElecMinimize: Iter:   7  F: -641.358452275435184  |grad|_K:  6.171e-09  alpha:  4.889e-01  linmin:  1.956e-08  t[s]:   2319.88
	FillingsUpdate:  mu: +0.522126029  nElectrons: 186.000000
	SubspaceRotationAdjust: set factor to 0.703
ElecMinimize: Iter:   8  F: -641.358452276746448  |grad|_K:  2.832e-09  alpha:  4.714e-01  linmin:  1.380e-07  t[s]:   2350.67
ElecMinimize: Converged (|Delta F|<1.000000e-08 for 2 iters).
Setting wave functions to eigenvectors of Hamiltonian

# Ionic positions in cartesian coordinates:
ion Hf   2.601243968967519   4.462570918897267   6.622248460127892 1
ion Hf   6.885457825256072   9.372895345014872   6.768019006622939 1
ion Hf   6.856827163848989   5.290455789793445   1.761369753831957 1
ion Hf   2.613441921356418   0.402191220364759   1.633392289959793 1
ion Hf  12.042806495997089   4.381358437149974   5.139350848454132 1
ion Hf  16.304386020142985   9.304238702324840   5.219044762663650 1
ion Hf  16.335804186014464   5.275945191631935   0.259120997441611 1
ion Hf  12.116345014998194   0.394617088335703   0.116179662491280 1
ion O   4.231245005594425   7.232609293993224   9.059001138496349 1
ion O   5.283110880123344   2.378529470687913   4.322832050237531 1
ion O   5.273571046082247   2.503844018582600  -0.668601292206515 1
ion O   4.239330867206218   7.371864718591630   4.066853959582867 1
ion O   0.641130486087544   3.224262055983091   3.334154255579588 1
ion O   8.847947292140322   8.150995912837455   0.071182371519051 1
ion O   8.836396146362228   6.509358664150744   5.113129620507215 1
ion O   0.596126229549045   1.648217419977474   8.325118510755905 1
ion O  13.687885329472188   7.200362674361081   7.522544901376365 1
ion O  14.745526199791762   2.370326769238114   2.805083438687351 1
ion O  14.621601113054279   2.503604369335992  -2.202601495774372 1
ion O  13.728941635827129   7.350052065165998   2.536463970252285 1
ion O  10.131439337123600   3.207279828761403   1.828080914774605 1
ion O  18.332091225154606   8.096862047745153  -1.445549496557024 1
ion O  18.331819609849347   6.519975997075326   3.534376371175541 1

# Forces in Cartesian coordinates:
force Hf   0.000294122113596   0.000013968500369  -0.000773337840111 1
force Hf  -0.000232776764753   0.000505750137021   0.000217051058382 1
force Hf  -0.000308275808264  -0.000355296162325  -0.000275832308769 1
force Hf   0.000437848359473   0.000368256427556  -0.000280291427976 1
force Hf   0.000639074479360  -0.000388580526361   0.000614935139196 1
force Hf  -0.000192734170392   0.000447975861488   0.000269649387288 1
force Hf  -0.000184892844356  -0.000425044621061   0.000185746824460 1
force Hf   0.000106150333875   0.000093953952538   0.000234235741216 1
force O  -0.000200330021018   0.000362404626782  -0.000655469696569 1
force O  -0.000465891624304  -0.000126265981957  -0.000111888559869 1
force O  -0.000171824131156   0.000249035803758  -0.000710699659912 1
force O   0.000018416809303   0.000600824351874  -0.000603851180629 1
force O   0.000037974897388   0.000256399319204  -0.000391688678894 1
force O  -0.000308535028944   0.000187086092660   0.000224291711053 1
force O  -0.000111340436169  -0.000104188582910  -0.000172423272446 1
force O  -0.000021266836273   0.000219668609112  -0.000329113451059 1
force O  -0.000078440171505  -0.000412607332751   0.000281656749638 1
force O  -0.000174438143173  -0.000258084593863   0.000855632010603 1
force O   0.000760474223081  -0.000414650022527   0.000492367387128 1
force O   0.000438230157259  -0.000800367961520   0.000594807181675 1
force O  -0.000279130937693  -0.000013582856763   0.000129823009276 1
force O  -0.000001891045085   0.000169741456514   0.000329543551158 1
force O   0.000059952423754  -0.000046933335578  -0.000226585580914 1

# Energy components:
   Eewald =     -499.7636260475773611
       EH =      126.6527945110467073
     Eloc =     -320.4585496192753453
      Enl =      -80.3546739580345104
      Exc =     -358.6019804565836466
 Exc_core =      238.5200510894619583
       KE =      252.6477107237017208
-------------------------------------
     Etot =     -641.3582737572603492
       TS =        0.0001785194860549
-------------------------------------
        F =     -641.3584522767464478

IonicMinimize: Iter:   5  F: -641.358452276746448  |grad|_K:  3.740e-04  alpha:  1.000e+00  linmin: -3.997e-01  t[s]:   2358.10

#--- Lowdin population analysis ---
# oxidation-state Hf +0.768 +0.632 +0.759 +0.767 +0.629 +0.763 +0.767 +0.599
# oxidation-state O -0.364 -0.370 -0.367 -0.369 -0.357 -0.336 -0.348 -0.358 -0.366 -0.368 -0.354 -0.355 -0.345 -0.357 -0.352


-------- Electronic minimization -----------
	FillingsUpdate:  mu: +0.521927241  nElectrons: 186.000000
ElecMinimize: Iter:   0  F: -641.358421796989774  |grad|_K:  1.224e-06  alpha:  1.000e+00
	FillingsUpdate:  mu: +0.522044032  nElectrons: 186.000000
	SubspaceRotationAdjust: set factor to 0.696
ElecMinimize: Iter:   1  F: -641.358485778232080  |grad|_K:  5.172e-07  alpha:  5.849e-01  linmin:  1.414e-06  t[s]:   2415.41
	FillingsUpdate:  mu: +0.521953212  nElectrons: 186.000000
	SubspaceRotationAdjust: set factor to 0.942
ElecMinimize: Iter:   2  F: -641.358498453304264  |grad|_K:  3.260e-07  alpha:  6.486e-01  linmin:  2.248e-07  t[s]:   2446.60
	FillingsUpdate:  mu: +0.522005802  nElectrons: 186.000000
	SubspaceRotationAdjust: set factor to 1.02
ElecMinimize: Iter:   3  F: -641.358501997175836  |grad|_K:  1.334e-07  alpha:  4.566e-01  linmin: -4.953e-08  t[s]:   2477.59
	FillingsUpdate:  mu: +0.521994576  nElectrons: 186.000000
	SubspaceRotationAdjust: set factor to 0.931
ElecMinimize: Iter:   4  F: -641.358502540710674  |grad|_K:  5.108e-08  alpha:  4.178e-01  linmin:  1.954e-08  t[s]:   2508.82
	FillingsUpdate:  mu: +0.521998810  nElectrons: 186.000000
	SubspaceRotationAdjust: set factor to 0.685
ElecMinimize: Iter:   5  F: -641.358502620359559  |grad|_K:  2.114e-08  alpha:  4.179e-01  linmin: -1.352e-07  t[s]:   2539.90
	FillingsUpdate:  mu: +0.521995236  nElectrons: 186.000000
	SubspaceRotationAdjust: set factor to 0.443
ElecMinimize: Iter:   6  F: -641.358502632916611  |grad|_K:  8.528e-09  alpha:  3.848e-01  linmin:  2.700e-07  t[s]:   2571.05
	FillingsUpdate:  mu: +0.521997014  nElectrons: 186.000000
	SubspaceRotationAdjust: set factor to 0.395
ElecMinimize: Iter:   7  F: -641.358502635365198  |grad|_K:  3.840e-09  alpha:  4.608e-01  linmin: -7.665e-07  t[s]:   2602.04
	FillingsUpdate:  mu: +0.521996943  nElectrons: 186.000000
	SubspaceRotationAdjust: set factor to 0.528
ElecMinimize: Iter:   8  F: -641.358502635896798  |grad|_K:  1.852e-09  alpha:  4.927e-01  linmin: -4.215e-07  t[s]:   2633.44
ElecMinimize: Converged (|Delta F|<1.000000e-08 for 2 iters).
Setting wave functions to eigenvectors of Hamiltonian

# Ionic positions in cartesian coordinates:
ion Hf   2.603506223578335   4.463924374390992   6.614181588403125 1
ion Hf   6.888538978160368   9.376660158752845   6.765521234346043 1
ion Hf   6.858426044018697   5.292026130847548   1.758628559743024 1
ion Hf   2.613875035016747   0.404391318169463   1.627174222472001 1
ion Hf  12.038738114870418   4.375033230111757   5.145218128599701 1
ion Hf  16.306527761523238   9.301877672555131   5.223570291652225 1
ion Hf  16.335897016325148   5.271786841065190   0.260883679473812 1
ion Hf  12.117174274894410   0.389794349795434   0.124764601068100 1
ion O   4.232984311269345   7.236173217990983   9.050635321932271 1
ion O   5.282719937336280   2.381307605875363   4.316568332825206 1
ion O   5.272760123735143   2.507232703221484  -0.677029983562863 1
ion O   4.242351058848324   7.379736078452946   4.060524133727666 1
ion O   0.644666653767734   3.226196064025173   3.330036998575466 1
ion O   8.843549763006823   8.154417141625503   0.078073748857630 1
ion O   8.833168029278744   6.509809131707332   5.112751408222460 1
ion O   0.596720944846317   1.650701492164306   8.322804959321136 1
ion O  13.685261161870457   7.195444849908842   7.525143410745986 1
ion O  14.744702008181973   2.366387544614291   2.812284728491437 1
ion O  14.619893975702958   2.498449832101039  -2.195697043076051 1
ion O  13.730093769115319   7.344650614756885   2.543221861089891 1
ion O  10.130479635236119   3.205175638970001   1.832177999173887 1
ion O  18.328413197384442   8.101540665358780  -1.442001101502710 1
ion O  18.334026982032665   6.519701343538706   3.531357919420560 1

# Forces in Cartesian coordinates:
force Hf   0.000434778309844   0.000173738948866  -0.000195567113456 1
force Hf  -0.000592941573403   0.000573212923385   0.000137335819198 1
force Hf  -0.001008227281990  -0.000564911348159  -0.000367232416844 1
force Hf   0.000796659228696   0.000056299078904  -0.000359544588143 1
force Hf   0.000743873166916  -0.000145300014127   0.000598877469193 1
force Hf  -0.000302917134313   0.000221248237464   0.000022472466914 1
force Hf  -0.000327815623417   0.000288039298226   0.000335506146867 1
force Hf   0.000117789584872   0.000216445510136   0.000090264982038 1
force O  -0.000346623043833   0.000194792067742  -0.000389907262463 1
force O  -0.000213454934701  -0.000217392303722  -0.000051722964903 1
force O   0.000077461497800   0.000341300544066  -0.000319270605005 1
force O  -0.000159115666433  -0.000094637616492  -0.000524305676266 1
force O  -0.000480356505928   0.000473829543802  -0.000458412530791 1
force O   0.000224598382155   0.000537953782163  -0.000459625035587 1
force O   0.000552294594910  -0.000477436968108   0.000122851363533 1
force O  -0.000351050866089   0.000086205095715  -0.000507315724660 1
force O   0.000037918450186  -0.000356011962547   0.000622058128193 1
force O  -0.000212812491115  -0.000015347935978   0.000616134582764 1
force O   0.000727936016010  -0.000370788938079   0.000353563800131 1
force O   0.000325393391909  -0.000661730594269   0.000191822440928 1
force O  -0.000097745286708  -0.000073749107042   0.000049203552465 1
force O   0.000158403328335  -0.000180093691510   0.000309188335208 1
force O  -0.000061640239191   0.000118804704213   0.000080316944178 1

# Energy components:
   Eewald =     -499.7940335351880208
       EH =      126.6261471286557310
     Eloc =     -320.4005596736413963
      Enl =      -80.3544906349511763
      Exc =     -358.6014282649891811
 Exc_core =      238.5200551719987345
       KE =      252.6459826247523779
-------------------------------------
     Etot =     -641.3583271833630306
       TS =        0.0001754525337112
-------------------------------------
        F =     -641.3585026358967980

IonicMinimize: Iter:   6  F: -641.358502635896798  |grad|_K:  3.852e-04  alpha:  1.000e+00  linmin: -2.387e-01  t[s]:   2640.81

#--- Lowdin population analysis ---
# oxidation-state Hf +0.768 +0.632 +0.759 +0.767 +0.628 +0.763 +0.768 +0.600
# oxidation-state O -0.364 -0.370 -0.367 -0.369 -0.357 -0.336 -0.348 -0.359 -0.367 -0.368 -0.354 -0.355 -0.345 -0.357 -0.352


-------- Electronic minimization -----------
	FillingsUpdate:  mu: +0.522314097  nElectrons: 186.000000
ElecMinimize: Iter:   0  F: -641.358363485294490  |grad|_K:  1.779e-06  alpha:  1.000e+00
	FillingsUpdate:  mu: +0.522063081  nElectrons: 186.000000
	SubspaceRotationAdjust: set factor to 0.508
ElecMinimize: Iter:   1  F: -641.358494678301440  |grad|_K:  7.385e-07  alpha:  5.672e-01  linmin: -1.006e-06  t[s]:   2698.32
	FillingsUpdate:  mu: +0.522194395  nElectrons: 186.000000
	SubspaceRotationAdjust: set factor to 0.726
ElecMinimize: Iter:   2  F: -641.358524138965663  |grad|_K:  5.527e-07  alpha:  7.395e-01  linmin:  7.222e-07  t[s]:   2729.01
	FillingsUpdate:  mu: +0.522153337  nElectrons: 186.000000
	SubspaceRotationAdjust: set factor to 0.908
ElecMinimize: Iter:   3  F: -641.358536516656500  |grad|_K:  2.760e-07  alpha:  5.546e-01  linmin:  2.579e-07  t[s]:   2759.78
	FillingsUpdate:  mu: +0.522130586  nElectrons: 186.000000
	SubspaceRotationAdjust: set factor to 0.986
ElecMinimize: Iter:   4  F: -641.358539139752793  |grad|_K:  1.182e-07  alpha:  4.714e-01  linmin:  1.429e-07  t[s]:   2791.13
	FillingsUpdate:  mu: +0.522149188  nElectrons: 186.000000
	SubspaceRotationAdjust: set factor to 0.906
ElecMinimize: Iter:   5  F: -641.358539583452284  |grad|_K:  5.164e-08  alpha:  4.348e-01  linmin:  3.217e-08  t[s]:   2822.06
	FillingsUpdate:  mu: +0.522139789  nElectrons: 186.000000
	SubspaceRotationAdjust: set factor to 0.719
ElecMinimize: Iter:   6  F: -641.358539661100053  |grad|_K:  2.373e-08  alpha:  3.985e-01  linmin:  3.764e-08  t[s]:   2852.84
	FillingsUpdate:  mu: +0.522144072  nElectrons: 186.000000
	SubspaceRotationAdjust: set factor to 0.521
ElecMinimize: Iter:   7  F: -641.358539679323258  |grad|_K:  1.234e-08  alpha:  4.430e-01  linmin: -1.813e-07  t[s]:   2884.21
	FillingsUpdate:  mu: +0.522142894  nElectrons: 186.000000
	SubspaceRotationAdjust: set factor to 0.611
ElecMinimize: Iter:   8  F: -641.358539684237371  |grad|_K:  5.558e-09  alpha:  4.415e-01  linmin: -3.102e-07  t[s]:   2915.13
	FillingsUpdate:  mu: +0.522142643  nElectrons: 186.000000
	SubspaceRotationAdjust: set factor to 0.75
ElecMinimize: Iter:   9  F: -641.358539685240089  |grad|_K:  3.033e-09  alpha:  4.444e-01  linmin: -4.245e-07  t[s]:   2946.13
ElecMinimize: Converged (|Delta F|<1.000000e-08 for 2 iters).
Setting wave functions to eigenvectors of Hamiltonian

# Ionic positions in cartesian coordinates:
ion Hf   2.605931890396234   4.469076228624334   6.604227998700076 1
ion Hf   6.889785517386661   9.381399557278533   6.761276002381199 1
ion Hf   6.854716258842691   5.293078497649747   1.753641639207660 1
ion Hf   2.616633047701050   0.404928481906338   1.615737579805160 1
ion Hf  12.035970859832888   4.369392963477996   5.156005375454943 1
ion Hf  16.310280019907584   9.295323123913345   5.229719015531545 1
ion Hf  16.335792932489952   5.273725252116645   0.266293000259167 1
ion Hf  12.118298846260698   0.382831534637307   0.137789898924734 1
ion O   4.232756554032098   7.241418554619519   9.037839871153944 1
ion O   5.281648669132823   2.384185260709500   4.306595912803652 1
ion O   5.273218300681158   2.514651037998932  -0.688700386080782 1
ion O   4.245348119873976   7.386419318768147   4.048852206884029 1
ion O   0.645416149268143   3.232097476593330   3.320942413586546 1
ion O   8.840197872445540   8.162885885445235   0.082506014016542 1
ion O   8.833833521987328   6.506198879651502   5.114221551295389 1
ion O   0.594788128703458   1.654481483683426   8.315598645524023 1
ion O  13.682314961233605   7.186908505454960   7.534532325923781 1
ion O  14.741321093191251   2.361615862335804   2.824279693902488 1
ion O  14.622730034938074   2.488804747812825  -2.183976334713687 1
ion O  13.732280959641892   7.334933552463188   2.551714813536752 1
ion O  10.129434075862193   3.201371802248367   1.837651073567494 1
ion O  18.325306611549333   8.105854824246435  -1.435411269225550 1
ion O  18.336470574641375   6.520835168364580   3.529457957560894 1

# Forces in Cartesian coordinates:
force Hf  -0.000141298550760  -0.000997208250986  -0.000342299073073 1
force Hf   0.000465102509277   0.000399342458553  -0.000373144232876 1
force Hf   0.000778607866220  -0.000692827540633  -0.000283219921739 1
force Hf  -0.000203566382509   0.001154425658392   0.000053432620682 1
force Hf   0.001050177966894  -0.001007317654175   0.000223375882536 1
force Hf  -0.001430614099176   0.001598374399565   0.000131427008664 1
force Hf  -0.000976973173735  -0.001410823378318  -0.000044780348718 1
force Hf   0.000554117334683   0.001388695408345  -0.000322312672351 1
force O  -0.000373197107997   0.000298664623027   0.000157427573187 1
force O  -0.000178715436629  -0.000364139969850   0.000027889451046 1
force O  -0.000014606905556   0.000037448838852  -0.000122842808201 1
force O  -0.000271746361213  -0.000636972544760  -0.000133593586508 1
force O   0.000181015621953   0.000036294146364  -0.000387389804569 1
force O  -0.000656638397224  -0.000281113889203  -0.000657717079541 1
force O  -0.000355490605008   0.000178192785424   0.000361206561374 1
force O   0.000052842449184  -0.000176350399073  -0.000375018599616 1
force O   0.000397376477543  -0.000042919504483   0.000472378613460 1
force O   0.000102349769814  -0.000071724302156   0.000442236931544 1
force O   0.000370599338809   0.000044844439813   0.000230677565896 1
force O   0.000007487176161   0.000031131547271   0.000394458920471 1
force O  -0.000565769847376   0.000450238431949   0.000033115630536 1
force O   0.000932667902093   0.000074215178670  -0.000187258693091 1
force O   0.000367642818223   0.000025551911451   0.000424986522253 1

# Energy components:
   Eewald =     -499.8109283827349145
       EH =      126.6082085109193827
     Eloc =     -320.3635165571321863
      Enl =      -80.3541876410670568
      Exc =     -358.6001970382108084
 Exc_core =      238.5200572713026475
       KE =      252.6422004989861136
-------------------------------------
     Etot =     -641.3583633379366802
       TS =        0.0001763473033737
-------------------------------------
        F =     -641.3585396852400891

IonicMinimize: Iter:   7  F: -641.358539685240089  |grad|_K:  5.579e-04  alpha:  1.000e+00  linmin:  7.022e-02  t[s]:   2953.65

#--- Lowdin population analysis ---
# oxidation-state Hf +0.768 +0.632 +0.759 +0.768 +0.627 +0.763 +0.767 +0.601
# oxidation-state O -0.364 -0.370 -0.367 -0.369 -0.358 -0.336 -0.349 -0.359 -0.367 -0.368 -0.354 -0.355 -0.346 -0.356 -0.351


-------- Electronic minimization -----------
	FillingsUpdate:  mu: +0.521571884  nElectrons: 186.000000
ElecMinimize: Iter:   0  F: -641.358536950448865  |grad|_K:  8.421e-07  alpha:  1.000e+00
	FillingsUpdate:  mu: +0.521966112  nElectrons: 186.000000
	SubspaceRotationAdjust: set factor to 0.539
ElecMinimize: Iter:   1  F: -641.358561712507253  |grad|_K:  4.467e-07  alpha:  4.781e-01  linmin:  5.983e-06  t[s]:   3011.04
	FillingsUpdate:  mu: +0.521803659  nElectrons: 186.000000
	SubspaceRotationAdjust: set factor to 0.723
ElecMinimize: Iter:   2  F: -641.358568510786313  |grad|_K:  2.253e-07  alpha:  4.665e-01  linmin:  7.398e-07  t[s]:   3042.33
	FillingsUpdate:  mu: +0.521788433  nElectrons: 186.000000
	SubspaceRotationAdjust: set factor to 1.06
ElecMinimize: Iter:   3  F: -641.358570728856762  |grad|_K:  1.070e-07  alpha:  5.982e-01  linmin:  2.023e-07  t[s]:   3073.34
	FillingsUpdate:  mu: +0.521827379  nElectrons: 186.000000
	SubspaceRotationAdjust: set factor to 1.11
ElecMinimize: Iter:   4  F: -641.358571113231960  |grad|_K:  4.518e-08  alpha:  4.598e-01  linmin: -1.492e-07  t[s]:   3104.40
	FillingsUpdate:  mu: +0.521810845  nElectrons: 186.000000
	SubspaceRotationAdjust: set factor to 0.777
ElecMinimize: Iter:   5  F: -641.358571170953724  |grad|_K:  2.220e-08  alpha:  3.871e-01  linmin:  4.238e-08  t[s]:   3135.22
	FillingsUpdate:  mu: +0.521815793  nElectrons: 186.000000
	SubspaceRotationAdjust: set factor to 0.472
ElecMinimize: Iter:   6  F: -641.358571182472247  |grad|_K:  8.921e-09  alpha:  3.199e-01  linmin:  4.887e-07  t[s]:   3166.09
	FillingsUpdate:  mu: +0.521815940  nElectrons: 186.000000
	SubspaceRotationAdjust: set factor to 0.449
ElecMinimize: Iter:   7  F: -641.358571184653442  |grad|_K:  3.409e-09  alpha:  3.752e-01  linmin:  3.012e-07  t[s]:   3197.26
	FillingsUpdate:  mu: +0.521815394  nElectrons: 186.000000
	SubspaceRotationAdjust: set factor to 0.498
ElecMinimize: Iter:   8  F: -641.358571185073970  |grad|_K:  1.522e-09  alpha:  4.951e-01  linmin:  1.052e-06  t[s]:   3228.29
ElecMinimize: Converged (|Delta F|<1.000000e-08 for 2 iters).
Setting wave functions to eigenvectors of Hamiltonian

# Ionic positions in cartesian coordinates:
ion Hf   2.605306210323248   4.467907159151171   6.599870871700366 1
ion Hf   6.891746202582851   9.382842692554691   6.759137893021659 1
ion Hf   6.856045893273361   5.291899916354930   1.751421036114432 1
ion Hf   2.616059194488424   0.408640558340473   1.612764400816653 1
ion Hf  12.037987543829383   4.365433219257044   5.159519518580928 1
ion Hf  16.308451394457506   9.297781101608845   5.232317371613203 1
ion Hf  16.334498931176636   5.270580868300275   0.267966471651668 1
ion Hf  12.118348433450324   0.384898909823587   0.140727006307499 1
ion O   4.230972384929873   7.244239466703005   9.034388760357523 1
ion O   5.280132685762571   2.383360122280021   4.303988321990863 1
ion O   5.273209158500032   2.516777430828878  -0.692795116097226 1
ion O   4.245209581896901   7.386209292142633   4.044943977043626 1
ion O   0.645928358269109   3.233927759490334   3.316656216115759 1
ion O   8.837923207800483   8.164986345479187   0.081098589572041 1
ion O   8.833194576095247   6.505561766499245   5.116126554134564 1
ion O   0.594000440834469   1.654747420641013   8.312069336265058 1
ion O  13.682858316973698   7.184280218650216   7.539273046834818 1
ion O  14.740093872327103   2.360087453067322   2.829393566434987 1
ion O  14.626357874740444   2.486005447061615  -2.179519946588612 1
ion O  13.732966459252284   7.332227607570856   2.555767239651781 1
ion O  10.128239299364894   3.201112584633573   1.839077143469534 1
ion O  18.327392177567724   8.107136309431308  -1.434124389529642 1
ion O  18.337552802103435   6.521774350129774   3.530727130538514 1

# Forces in Cartesian coordinates:
force Hf   0.000088818102895   0.000046637083406   0.000082926096157 1
force Hf  -0.000172110783500  -0.000070154191127  -0.000399217806734 1
force Hf  -0.000019255352873   0.000127189043396  -0.000230282481195 1
force Hf   0.000120695657449  -0.000197231890889  -0.000056606132132 1
force Hf   0.000352653514621  -0.000023661856690   0.000221986973472 1
force Hf  -0.000508286441313   0.000113469501914   0.000265160748702 1
force Hf  -0.000143757869228   0.000210403183343   0.000095213690805 1
force Hf   0.000252072558571   0.000141174867251  -0.000178001204195 1
force O  -0.000059516770702   0.000069362575967   0.000033481726646 1
force O   0.000069034911389  -0.000284497153862  -0.000150440629845 1
force O   0.000091184820475   0.000095960606441  -0.000005522015231 1
force O  -0.000055642442343  -0.000579178905879  -0.000131183325417 1
force O  -0.000156482340554   0.000230415597266  -0.000148974414381 1
force O  -0.000099294671486  -0.000169286210362  -0.000432293119281 1
force O   0.000174490459837  -0.000258101962739   0.000124771243285 1
force O  -0.000080668092669  -0.000194699650684  -0.000300553505246 1
force O   0.000269104217460  -0.000110202918489   0.000319217285804 1
force O   0.000020711233842   0.000209688573169   0.000003163544587 1
force O   0.000103030624744   0.000105525167655   0.000106341545793 1
force O  -0.000261221273486   0.000373942666600   0.000183375119859 1
force O  -0.000129253264557   0.000343467681065   0.000128181060327 1
force O   0.000271150622817  -0.000257883774820  -0.000097338472995 1
force O  -0.000020731560494  -0.000034150407632   0.000275307810584 1

# Energy components:
   Eewald =     -499.8343784591478425
       EH =      126.5864832960468505
     Eloc =     -320.3163672858817108
      Enl =      -80.3540244764509879
      Exc =     -358.5991364511876327
 Exc_core =      238.5200505555931159
       KE =      252.6389747614206840
-------------------------------------
     Etot =     -641.3583980596074525
       TS =        0.0001731254665671
-------------------------------------
        F =     -641.3585711850739699

IonicMinimize: Iter:   8  F: -641.358571185073970  |grad|_K:  2.080e-04  alpha:  1.000e+00  linmin: -2.716e-01  t[s]:   3235.79

#--- Lowdin population analysis ---
# oxidation-state Hf +0.768 +0.633 +0.760 +0.768 +0.627 +0.763 +0.767 +0.601
# oxidation-state O -0.364 -0.370 -0.367 -0.369 -0.357 -0.337 -0.350 -0.359 -0.367 -0.367 -0.354 -0.356 -0.345 -0.357 -0.351


-------- Electronic minimization -----------
	FillingsUpdate:  mu: +0.521662349  nElectrons: 186.000000
ElecMinimize: Iter:   0  F: -641.358572465201746  |grad|_K:  3.702e-07  alpha:  1.000e+00
	FillingsUpdate:  mu: +0.521763286  nElectrons: 186.000000
	SubspaceRotationAdjust: set factor to 0.449
ElecMinimize: Iter:   1  F: -641.358578447449872  |grad|_K:  1.816e-07  alpha:  5.975e-01  linmin: -7.622e-07  t[s]:   3293.59
	FillingsUpdate:  mu: +0.521714597  nElectrons: 186.000000
	SubspaceRotationAdjust: set factor to 0.62
ElecMinimize: Iter:   2  F: -641.358580304740940  |grad|_K:  1.366e-07  alpha:  7.710e-01  linmin: -3.048e-07  t[s]:   3324.68
	FillingsUpdate:  mu: +0.521722311  nElectrons: 186.000000
	SubspaceRotationAdjust: set factor to 0.765
ElecMinimize: Iter:   3  F: -641.358581057123843  |grad|_K:  6.618e-08  alpha:  5.522e-01  linmin:  4.343e-08  t[s]:   3355.88
	FillingsUpdate:  mu: +0.521732531  nElectrons: 186.000000
	SubspaceRotationAdjust: set factor to 0.82
ElecMinimize: Iter:   4  F: -641.358581208870874  |grad|_K:  2.904e-08  alpha:  4.743e-01  linmin:  8.758e-08  t[s]:   3387.06
	FillingsUpdate:  mu: +0.521726717  nElectrons: 186.000000
	SubspaceRotationAdjust: set factor to 0.813
ElecMinimize: Iter:   5  F: -641.358581236301916  |grad|_K:  1.288e-08  alpha:  4.453e-01  linmin:  2.035e-08  t[s]:   3418.77
	FillingsUpdate:  mu: +0.521728187  nElectrons: 186.000000
	SubspaceRotationAdjust: set factor to 0.797
ElecMinimize: Iter:   6  F: -641.358581241224329  |grad|_K:  5.511e-09  alpha:  4.062e-01  linmin: -2.262e-07  t[s]:   3449.78
	FillingsUpdate:  mu: +0.521728212  nElectrons: 186.000000
	SubspaceRotationAdjust: set factor to 0.706
ElecMinimize: Iter:   7  F: -641.358581242288778  |grad|_K:  2.585e-09  alpha:  4.799e-01  linmin:  1.214e-06  t[s]:   3481.21
ElecMinimize: Converged (|Delta F|<1.000000e-08 for 2 iters).
Setting wave functions to eigenvectors of Hamiltonian

# Ionic positions in cartesian coordinates:
ion Hf   2.604816568126918   4.467906467846130   6.599528273672394 1
ion Hf   6.891238242023948   9.382281403950165   6.757617613294124 1
ion Hf   6.855912941277952   5.291849433312804   1.750412143429804 1
ion Hf   2.616132012366891   0.408812433271547   1.612217158928391 1
ion Hf  12.040309729604939   4.365407161840908   5.160743007989841 1
ion Hf  16.306630766489715   9.298812145120243   5.233618456723049 1
ion Hf  16.334089551599494   5.271339141042566   0.268844247997183 1
ion Hf  12.118645951138522   0.386372811437759   0.140350129285003 1
ion O   4.229709942060222   7.245075683658022   9.034119929099919 1
ion O   5.279502413072668   2.381796673013260   4.303384345923447 1
ion O   5.273529421713912   2.517569988676628  -0.693264847924900 1
ion O   4.244580370220604   7.383433207130770   4.043768168261200 1
ion O   0.644943050687335   3.235204862292843   3.315042294264630 1
ion O   8.837570948292678   8.164926948484730   0.078393962944846 1
ion O   8.834106508842746   6.504274457436204   5.117188301726022 1
ion O   0.593248913544302   1.654030726479445   8.310034220865033 1
ion O  13.684182058627449   7.183560283680895   7.541915419689680 1
ion O  14.739503548690244   2.360654202189233   2.830522246611621 1
ion O  14.629013133896926   2.485762140223908  -2.178216825327490 1
ion O  13.732381970224347   7.332892188253493   2.556967203811664 1
ion O  10.127689376257788   3.202169546055798   1.839383464701314 1
ion O  18.329361306287741   8.106122104753187  -1.434228831780534 1
ion O  18.337376274952664   6.522163989849457   3.532454915813759 1

# Forces in Cartesian coordinates:
force Hf  -0.000025652220227   0.000071469165760   0.000051058124228 1
force Hf  -0.000134879508273  -0.000220859909151  -0.000326011329023 1
force Hf   0.000050296262449   0.000192462811292  -0.000152828395189 1
force Hf  -0.000006963039770  -0.000228995405850  -0.000103459361388 1
force Hf  -0.000071352169551   0.000133894919568   0.000028415312026 1
force Hf  -0.000010603975498  -0.000177946424040   0.000203142932609 1
force Hf   0.000222285946940   0.000318682422719   0.000227145479173 1
force Hf  -0.000108326891571  -0.000103356136329   0.000062649871149 1
force O   0.000066517846942   0.000060820199993  -0.000079363293777 1
force O   0.000055724767130  -0.000234561077273  -0.000213756301305 1
force O   0.000045490890843   0.000045204206732  -0.000076754482141 1
force O   0.000050406589230  -0.000315689906748  -0.000083525858210 1
force O   0.000001202797159   0.000100340840287  -0.000072402576820 1
force O   0.000075860302308  -0.000102609072861  -0.000189746588502 1
force O   0.000056399380457  -0.000180889240202   0.000003363186037 1
force O   0.000022766175529  -0.000193187506528  -0.000139210658060 1
force O   0.000136422610434  -0.000066647499156   0.000190634260181 1
force O   0.000012112440289   0.000223454272249  -0.000085889394932 1
force O  -0.000039832270301   0.000099370347489   0.000078455008122 1
force O  -0.000282353508196   0.000448502196638   0.000213909642828 1
force O   0.000125158464207   0.000140115159337   0.000071730702284 1
force O   0.000034155784631  -0.000190339019183  -0.000077900823262 1
force O  -0.000164524968755  -0.000061698817603   0.000156472794141 1

# Energy components:
   Eewald =     -499.8316268037951886
       EH =      126.5880587710218919
     Eloc =     -320.3198121524424096
      Enl =      -80.3539373632554259
      Exc =     -358.5986683685342200
 Exc_core =      238.5200477471695990
       KE =      252.6375301580644646
-------------------------------------
     Etot =     -641.3584080117711892
       TS =        0.0001732305175810
-------------------------------------
        F =     -641.3585812422887784

IonicMinimize: Iter:   9  F: -641.358581242288778  |grad|_K:  1.534e-04  alpha:  1.000e+00  linmin: -4.883e-01  t[s]:   3488.57

#--- Lowdin population analysis ---
# oxidation-state Hf +0.767 +0.633 +0.760 +0.768 +0.627 +0.763 +0.767 +0.601
# oxidation-state O -0.364 -0.370 -0.367 -0.369 -0.357 -0.337 -0.350 -0.359 -0.367 -0.367 -0.353 -0.356 -0.345 -0.357 -0.351


-------- Electronic minimization -----------
	FillingsUpdate:  mu: +0.521665216  nElectrons: 186.000000
ElecMinimize: Iter:   0  F: -641.358574070742065  |grad|_K:  5.360e-07  alpha:  1.000e+00
	FillingsUpdate:  mu: +0.521723180  nElectrons: 186.000000
	SubspaceRotationAdjust: set factor to 0.673
ElecMinimize: Iter:   1  F: -641.358586709920132  |grad|_K:  2.375e-07  alpha:  6.022e-01  linmin: -5.907e-07  t[s]:   3545.62
	FillingsUpdate:  mu: +0.521667251  nElectrons: 186.000000
	SubspaceRotationAdjust: set factor to 0.861
ElecMinimize: Iter:   2  F: -641.358589424130287  |grad|_K:  1.458e-07  alpha:  6.587e-01  linmin: -1.563e-07  t[s]:   3576.50
	FillingsUpdate:  mu: +0.521696943  nElectrons: 186.000000
	SubspaceRotationAdjust: set factor to 0.807
ElecMinimize: Iter:   3  F: -641.358590126897525  |grad|_K:  5.763e-08  alpha:  4.526e-01  linmin:  5.648e-08  t[s]:   3607.74
	FillingsUpdate:  mu: +0.521693077  nElectrons: 186.000000
	SubspaceRotationAdjust: set factor to 0.732
ElecMinimize: Iter:   4  F: -641.358590227129866  |grad|_K:  2.233e-08  alpha:  4.131e-01  linmin:  8.962e-08  t[s]:   3638.83
	FillingsUpdate:  mu: +0.521693275  nElectrons: 186.000000
	SubspaceRotationAdjust: set factor to 0.678
ElecMinimize: Iter:   5  F: -641.358590243046706  |grad|_K:  8.573e-09  alpha:  4.370e-01  linmin:  4.138e-07  t[s]:   3670.03
	FillingsUpdate:  mu: +0.521693284  nElectrons: 186.000000
	SubspaceRotationAdjust: set factor to 0.695
ElecMinimize: Iter:   6  F: -641.358590245326354  |grad|_K:  3.197e-09  alpha:  4.246e-01  linmin:  8.254e-07  t[s]:   3700.87
	FillingsUpdate:  mu: +0.521693287  nElectrons: 186.000000
	SubspaceRotationAdjust: set factor to 0.752
ElecMinimize: Iter:   7  F: -641.358590245697087  |grad|_K:  1.455e-09  alpha:  4.963e-01  linmin: -4.142e-07  t[s]:   3731.41
ElecMinimize: Converged (|Delta F|<1.000000e-08 for 2 iters).
Setting wave functions to eigenvectors of Hamiltonian

# Ionic positions in cartesian coordinates:
ion Hf   2.604334284671763   4.467865314469783   6.598268584211571 1
ion Hf   6.890599670553876   9.381666651608910   6.754196726553320 1
ion Hf   6.856243541940000   5.292087621616236   1.748091436131948 1
ion Hf   2.616214732419474   0.409030784382017   1.609880577954274 1
ion Hf  12.041619882701964   4.364718027541620   5.162932655562958 1
ion Hf  16.305027513870250   9.299075399755864   5.236302488243970 1
ion Hf  16.334471257119702   5.272703750788001   0.271812395227696 1
ion Hf  12.118249533087727   0.387205152957849   0.142204663464660 1
ion O   4.228952417825862   7.246949472064638   9.032039470259972 1
ion O   5.279034488895316   2.379444402159171   4.300648728741784 1
ion O   5.273959231138995   2.519275275649039  -0.695495479908398 1
ion O   4.244597976629926   7.380354864864391   4.041185976828874 1
ion O   0.644760935208593   3.237197743017088   3.312268325775963 1
ion O   8.837232529465062   8.165408451112857   0.075663686389609 1
ion O   8.834644587082877   6.502284005622195   5.118402139030191 1
ion O   0.592847999914569   1.652774896860299   8.307008452061835 1
ion O  13.685610600515959   7.181824594180058   7.546335496223261 1
ion O  14.738819980279116   2.361845425137889   2.832607678540600 1
ion O  14.630980794593524   2.485114586920838  -2.175265593585662 1
ion O  13.730606872686861   7.334946983012604   2.560478023471534 1
ion O  10.127848578134627   3.203302758602748   1.840593599855820 1
ion O  18.331131448640058   8.105098955713547  -1.434003446159710 1
ion O  18.336686142623904   6.522242881962353   3.534638415123925 1

# Forces in Cartesian coordinates:
force Hf   0.000003983001222   0.000076601569740  -0.000040864073080 1
force Hf  -0.000020270818037  -0.000297116243957  -0.000179268083454 1
force Hf   0.000112733402602   0.000166830715618  -0.000048207661289 1
force Hf  -0.000034920959074  -0.000249938355149  -0.000059284795664 1
force Hf  -0.000251906663593   0.000233922592191   0.000021908867493 1
force Hf   0.000114345366869  -0.000183457885173   0.000185356012969 1
force Hf   0.000163716320275   0.000174245035193   0.000116775038055 1
force Hf  -0.000178384842940  -0.000160981158932   0.000041049178577 1
force O   0.000111301711513  -0.000020315433263  -0.000153171575616 1
force O  -0.000008976054787  -0.000128270985076  -0.000209728028696 1
force O  -0.000008323100416  -0.000020843819782  -0.000144071038257 1
force O   0.000066997068691  -0.000069393094450  -0.000066529842517 1
force O   0.000113475908622  -0.000022716159765   0.000035931632249 1
force O   0.000074272685081  -0.000106509248810   0.000019221396851 1
force O  -0.000121702445276  -0.000065501469342  -0.000138127727186 1
force O   0.000102302336540  -0.000179294414717   0.000004104100159 1
force O   0.000019390059673   0.000030259463148   0.000069687050574 1
force O   0.000091649534445   0.000188775146911  -0.000058192934061 1
force O  -0.000132140952112   0.000056431358561   0.000024369178493 1
force O  -0.000138017094728   0.000366837210903   0.000208412778417 1
force O   0.000185617828651   0.000015972428108  -0.000039044752278 1
force O  -0.000037709764619  -0.000042965330530  -0.000044908672200 1
force O  -0.000149999901802  -0.000132417291718   0.000075989101918 1

# Energy components:
   Eewald =     -499.8325177696857509
       EH =      126.5861628961831826
     Eloc =     -320.3163188895032931
      Enl =      -80.3538758909094923
      Exc =     -358.5982845587434440
 Exc_core =      238.5200434882257241
       KE =      252.6363746174207563
-------------------------------------
     Etot =     -641.3584161070125447
       TS =        0.0001741386844971
-------------------------------------
        F =     -641.3585902456970871

IonicMinimize: Iter:  10  F: -641.358590245697087  |grad|_K:  1.296e-04  alpha:  1.000e+00  linmin: -3.265e-01  t[s]:   3738.72

#--- Lowdin population analysis ---
# oxidation-state Hf +0.768 +0.633 +0.760 +0.768 +0.626 +0.763 +0.767 +0.601
# oxidation-state O -0.364 -0.370 -0.367 -0.369 -0.357 -0.337 -0.350 -0.359 -0.367 -0.367 -0.353 -0.356 -0.345 -0.357 -0.351


-------- Electronic minimization -----------
	FillingsUpdate:  mu: +0.521373098  nElectrons: 186.000000
ElecMinimize: Iter:   0  F: -641.358560785206805  |grad|_K:  8.019e-07  alpha:  1.000e+00
	FillingsUpdate:  mu: +0.521732624  nElectrons: 186.000000
	SubspaceRotationAdjust: set factor to 0.587
ElecMinimize: Iter:   1  F: -641.358586676263144  |grad|_K:  3.936e-07  alpha:  5.512e-01  linmin: -3.669e-07  t[s]:   3796.17
	FillingsUpdate:  mu: +0.521487646  nElectrons: 186.000000
	SubspaceRotationAdjust: set factor to 0.678
ElecMinimize: Iter:   2  F: -641.358592183210590  |grad|_K:  2.232e-07  alpha:  4.867e-01  linmin:  7.276e-07  t[s]:   3827.21
	FillingsUpdate:  mu: +0.521530966  nElectrons: 186.000000
	SubspaceRotationAdjust: set factor to 1
ElecMinimize: Iter:   3  F: -641.358594140105879  |grad|_K:  9.514e-08  alpha:  5.377e-01  linmin:  5.337e-07  t[s]:   3858.14
	FillingsUpdate:  mu: +0.521570392  nElectrons: 186.000000
	SubspaceRotationAdjust: set factor to 1.12
ElecMinimize: Iter:   4  F: -641.358594437683450  |grad|_K:  3.678e-08  alpha:  4.500e-01  linmin: -1.291e-09  t[s]:   3889.21
	FillingsUpdate:  mu: +0.521550266  nElectrons: 186.000000
	SubspaceRotationAdjust: set factor to 1
ElecMinimize: Iter:   5  F: -641.358594482716398  |grad|_K:  1.574e-08  alpha:  4.557e-01  linmin:  9.188e-08  t[s]:   3920.32
	FillingsUpdate:  mu: +0.521560277  nElectrons: 186.000000
	SubspaceRotationAdjust: set factor to 0.653
ElecMinimize: Iter:   6  F: -641.358594488977019  |grad|_K:  6.976e-09  alpha:  3.460e-01  linmin: -3.805e-07  t[s]:   3951.85
	FillingsUpdate:  mu: +0.521557630  nElectrons: 186.000000
	SubspaceRotationAdjust: set factor to 0.431
ElecMinimize: Iter:   7  F: -641.358594490181872  |grad|_K:  2.854e-09  alpha:  3.389e-01  linmin: -8.649e-07  t[s]:   3982.99
ElecMinimize: Converged (|Delta F|<1.000000e-08 for 2 iters).
Setting wave functions to eigenvectors of Hamiltonian

# Ionic positions in cartesian coordinates:
ion Hf   2.605734669998575   4.468381105391042   6.595503705449352 1
ion Hf   6.890261951327374   9.379315343565338   6.749580641161181 1
ion Hf   6.857224991831286   5.292831996812758   1.745103082492413 1
ion Hf   2.617406381570278   0.407293545587361   1.606858778404323 1
ion Hf  12.040811390621235   4.365655066982114   5.167479907078169 1
ion Hf  16.302507388538480   9.299629523144919   5.241673048288195 1
ion Hf  16.333552002677752   5.273682368751875   0.275343450310952 1
ion Hf  12.117098650845129   0.387640228339808   0.144070122651449 1
ion O   4.229142055222605   7.248586165440631   9.027461315354753 1
ion O   5.278055874768754   2.376310420054270   4.295498152830674 1
ion O   5.274153879107168   2.521092818600302  -0.700312409800256 1
ion O   4.244975856125165   7.377692539464121   4.037152160268166 1
ion O   0.645962075164360   3.239244682129309   3.310001767143631 1
ion O   8.836954142315033   8.165470653745309   0.073719457207309 1
ion O   8.833036235444178   6.500016263088074   5.117910599125800 1
ion O   0.593484384449293   1.649688360307672   8.304133136889124 1
ion O  13.686783978700287   7.180683535698939   7.552242304767220 1
ion O  14.739996540823901   2.365002498703616   2.835945028322850 1
ion O  14.630996927044476   2.484484946661153  -2.171453058828203 1
ion O  13.728798634822088   7.339734848275733   2.567243588315740 1
ion O  10.129421491902271   3.204528188222873   1.841243333235597 1
ion O  18.332994185233051   8.104880486051613  -1.433479518503946 1
ion O  18.335121311467272   6.520572414981166   3.537876407835498 1

# Forces in Cartesian coordinates:
force Hf  -0.000710876228184  -0.000424741459088  -0.000005421161141 1
force Hf  -0.000215113040095   0.000284508298577   0.000063071939434 1
force Hf  -0.000091909782260  -0.000432952708478  -0.000205685630220 1
force Hf  -0.000423951489373   0.000491805964979  -0.000179741116598 1
force Hf   0.000089062847871  -0.000011882276935  -0.000481713208890 1
force Hf   0.000793865453641  -0.000070500270923  -0.000373621596971 1
force Hf   0.000653534058284   0.000023564198406   0.000488011349229 1
force Hf   0.000063784341286  -0.000024371133257   0.000364220178134 1
force O   0.000255446495591  -0.000033695927160   0.000003965796841 1
force O   0.000231341883288  -0.000074540387362  -0.000084576407645 1
force O   0.000166879810547  -0.000065468781358  -0.000035483412576 1
force O   0.000155221091750  -0.000035295592389   0.000006502945862 1
force O  -0.000009966486452  -0.000114512794015  -0.000085432909471 1
force O   0.000039838844893  -0.000064287598436   0.000019992846967 1
force O  -0.000054428366165  -0.000059617403884  -0.000118288322953 1
force O   0.000221760154569   0.000018245082989   0.000024002533517 1
force O  -0.000285491421229  -0.000005913833162   0.000068856109429 1
force O  -0.000164734625464   0.000144436346917   0.000020428648198 1
force O  -0.000219453700147   0.000084583648257  -0.000043820896677 1
force O  -0.000113118004098   0.000083518250100  -0.000048609827933 1
force O   0.000081830886902   0.000095175500538   0.000001260299090 1
force O  -0.000261565380944  -0.000128345433923   0.000189099283579 1
force O  -0.000139631622521  -0.000071086388440   0.000017561832148 1

# Energy components:
   Eewald =     -499.8386884206216791
       EH =      126.5797674491989966
     Eloc =     -320.3028370719952704
      Enl =      -80.3537089875488704
      Exc =     -358.5977884879332578
 Exc_core =      238.5200374470121005
       KE =      252.6347973435758263
-------------------------------------
     Etot =     -641.3584207283122396
       TS =        0.0001737618695856
-------------------------------------
        F =     -641.3585944901818721

IonicMinimize: Iter:  11  F: -641.358594490181872  |grad|_K:  2.401e-04  alpha:  1.000e+00  linmin:  1.334e-01  t[s]:   3990.30

#--- Lowdin population analysis ---
# oxidation-state Hf +0.768 +0.633 +0.760 +0.768 +0.627 +0.762 +0.767 +0.601
# oxidation-state O -0.364 -0.370 -0.367 -0.368 -0.357 -0.337 -0.350 -0.359 -0.366 -0.367 -0.353 -0.356 -0.346 -0.357 -0.352


-------- Electronic minimization -----------
	FillingsUpdate:  mu: +0.521925392  nElectrons: 186.000000
ElecMinimize: Iter:   0  F: -641.358592980836306  |grad|_K:  3.220e-07  alpha:  1.000e+00
	FillingsUpdate:  mu: +0.521705836  nElectrons: 186.000000
	SubspaceRotationAdjust: set factor to 0.438
ElecMinimize: Iter:   1  F: -641.358596981244432  |grad|_K:  1.475e-07  alpha:  5.281e-01  linmin: -1.153e-06  t[s]:   4047.54
	FillingsUpdate:  mu: +0.521728637  nElectrons: 186.000000
	SubspaceRotationAdjust: set factor to 0.65
ElecMinimize: Iter:   2  F: -641.358598113903895  |grad|_K:  1.149e-07  alpha:  7.130e-01  linmin: -1.542e-07  t[s]:   4078.70
	FillingsUpdate:  mu: +0.521742576  nElectrons: 186.000000
	SubspaceRotationAdjust: set factor to 0.829
ElecMinimize: Iter:   3  F: -641.358598747943120  |grad|_K:  6.728e-08  alpha:  6.574e-01  linmin: -1.799e-07  t[s]:   4109.76
	FillingsUpdate:  mu: +0.521735366  nElectrons: 186.000000
	SubspaceRotationAdjust: set factor to 0.871
ElecMinimize: Iter:   4  F: -641.358598919321139  |grad|_K:  2.854e-08  alpha:  5.182e-01  linmin:  4.443e-08  t[s]:   4140.59
	FillingsUpdate:  mu: +0.521740776  nElectrons: 186.000000
	SubspaceRotationAdjust: set factor to 0.837
ElecMinimize: Iter:   5  F: -641.358598947575615  |grad|_K:  1.268e-08  alpha:  4.750e-01  linmin: -2.656e-07  t[s]:   4171.64
	FillingsUpdate:  mu: +0.521739187  nElectrons: 186.000000
	SubspaceRotationAdjust: set factor to 0.855
ElecMinimize: Iter:   6  F: -641.358598952650368  |grad|_K:  6.322e-09  alpha:  4.324e-01  linmin:  1.287e-07  t[s]:   4202.68
	FillingsUpdate:  mu: +0.521739189  nElectrons: 186.000000
	SubspaceRotationAdjust: set factor to 0.916
ElecMinimize: Iter:   7  F: -641.358598954028935  |grad|_K:  3.136e-09  alpha:  4.720e-01  linmin: -2.848e-07  t[s]:   4233.99
ElecMinimize: Converged (|Delta F|<1.000000e-08 for 2 iters).
Setting wave functions to eigenvectors of Hamiltonian

# Ionic positions in cartesian coordinates:
ion Hf   2.604151887968257   4.467344577825715   6.595023960747033 1
ion Hf   6.889315534086241   9.379686604830507   6.748545693969760 1
ion Hf   6.857095426504678   5.291790976328881   1.743714899016084 1
ion Hf   2.616633988824338   0.408216078449274   1.605648731344267 1
ion Hf  12.041217386761959   4.365882411384844   5.167312151949745 1
ion Hf  16.303758586110593   9.299738824519910   5.242050333500906 1
ion Hf  16.334983363978228   5.274119827448581   0.277668373962758 1
ion Hf  12.117319105452015   0.387791397184861   0.145471440737441 1
ion O   4.229898026270365   7.248935887548495   9.026486110220011 1
ion O   5.278490296565234   2.375240678683858   4.294048215742536 1
ion O   5.274677192588627   2.521443006155422  -0.701436894049506 1
ion O   4.245473668257772   7.376735857145578   4.036239955835223 1
ion O   0.646148073498329   3.239559484937776   3.309263497408873 1
ion O   8.836909354354001   8.165156162649868   0.073214015097106 1
ion O   8.832559506859218   6.499229238142280   5.117505267070312 1
ion O   0.594286245490255   1.648994619561569   8.303457943399854 1
ion O  13.686375088683146   7.180408560913667   7.553981483210670 1
ion O  14.739802772458146   2.366331088351246   2.836809359719973 1
ion O  14.630406736293114   2.484718105402393  -2.170584075089968 1
ion O  13.727869209853754   7.341398966066071   2.568831428998792 1
ion O  10.129883417123647   3.205400278316863   1.841535644548655 1
ion O  18.332834944328816   8.104370330405567  -1.432818595009504 1
ion O  18.334385187689278   6.519925037746765   3.538826057668973 1

# Forces in Cartesian coordinates:
force Hf   0.000093695157934   0.000011998943438  -0.000091234543217 1
force Hf   0.000166273887390  -0.000057569028241   0.000058423174855 1
force Hf   0.000127806498844  -0.000034593166328  -0.000035929183626 1
force Hf   0.000135396241661  -0.000041265167758   0.000026528527349 1
force Hf  -0.000147309804331   0.000122063378421  -0.000179403934745 1
force Hf  -0.000000579868422  -0.000024430323215  -0.000097159736302 1
force Hf  -0.000146642869165  -0.000046886934199   0.000060924199156 1
force Hf  -0.000181033856562  -0.000052009867298   0.000092648685119 1
force O  -0.000050200813435  -0.000125236907347  -0.000042987226452 1
force O  -0.000038975705178   0.000031263044819  -0.000060701473974 1
force O  -0.000056396903088  -0.000138236323608  -0.000089024750122 1
force O  -0.000110636820576   0.000064175364586  -0.000048281052282 1
force O  -0.000047404904582  -0.000116355101642  -0.000024654862136 1
force O   0.000056666704579   0.000012103804813   0.000027480311959 1
force O  -0.000086603786052   0.000025481311331  -0.000071241166700 1
force O   0.000078059965484  -0.000035830373455   0.000021486343041 1
force O  -0.000051876232410   0.000072471137715  -0.000014986104725 1
force O   0.000087788361424   0.000005078907036   0.000051746814919 1
force O   0.000018488684883   0.000052552816779  -0.000028931947561 1
force O   0.000181315503269  -0.000026617352956  -0.000027960898921 1
force O   0.000100315104892  -0.000015932844699  -0.000096079742365 1
force O  -0.000080263741713   0.000070795477923   0.000108344325650 1
force O   0.000021402063467  -0.000103644574538   0.000051735682524 1

# Energy components:
   Eewald =     -499.8284489347822159
       EH =      126.5892115214963667
     Eloc =     -320.3232180967591489
      Enl =      -80.3537736394435740
      Exc =     -358.5981480571580278
 Exc_core =      238.5200326602315783
       KE =      252.6359217881320660
-------------------------------------
     Etot =     -641.3584227582830408
       TS =        0.0001761957459379
-------------------------------------
        F =     -641.3585989540289347

IonicMinimize: Iter:  12  F: -641.358598954028935  |grad|_K:  8.155e-05  alpha:  1.000e+00  linmin:  1.215e-01  t[s]:   4241.25
IonicMinimize: Converged (|grad|_K<1.000000e-04).

#--- Lowdin population analysis ---
# oxidation-state Hf +0.768 +0.633 +0.760 +0.768 +0.626 +0.763 +0.767 +0.601
# oxidation-state O -0.364 -0.370 -0.367 -0.369 -0.357 -0.337 -0.350 -0.359 -0.367 -0.367 -0.353 -0.356 -0.345 -0.357 -0.351


Dumping 'Hf8O15.Ecomponents' ... done
End date and time: Wed Apr 24 11:41:00 2024  (Duration: 0-1:10:45.12)
Done!
