--------------------------------------------------------------------------
Initialization of PSM library failed.

  Error: PSM is in the finalized state
--------------------------------------------------------------------------

*************** JDFTx 1.7.0  ***************

Start date and time: Fri Dec  8 15:35:12 2023
Executable jdftx with command-line: -i /home/cam559/Valla_project/TiW/Ti4W8O31.in
Running on hosts (process indices):  node3101.physics.cornell.edu (0-9)
Divided in process groups (process indices):  0 (0)  1 (1)  2 (2)  3 (3)  4 (4)  5 (5)  6 (6)  7 (7)  8 (8)  9 (9)
Resource initialization completed at t[s]:      0.00
Run totals: 10 processes, 30 threads, 0 GPUs


Input parsed successfully to the following command list (including defaults):

basis kpoint-dependent
coords-type Cartesian
core-overlap-check vector
coulomb-interaction Periodic
davidson-band-ratio 1.1
dump End Ecomponents
dump-name Ti4W8O31.$VAR
elec-cutoff 20 100
elec-eigen-algo Davidson
elec-ex-corr gga-PBE
elec-smearing Fermi 0.004
electronic-minimize  \
	dirUpdateScheme      FletcherReeves \
	linminMethod         DirUpdateRecommended \
	nIterations          100 \
	history              15 \
	knormThreshold       0 \
	energyDiffThreshold  1e-08 \
	nEnergyDiff          2 \
	alphaTstart          1 \
	alphaTmin            1e-10 \
	updateTestStepSize   yes \
	alphaTreduceFactor   0.1 \
	alphaTincreaseFactor 3 \
	nAlphaAdjustMax      3 \
	wolfeEnergy          0.0001 \
	wolfeGradient        0.9 \
	fdTest               no
exchange-regularization WignerSeitzTruncated
fluid None
fluid-ex-corr lda-TF lda-PZ
fluid-gummel-loop 10 1.000000e-05
fluid-minimize  \
	dirUpdateScheme      PolakRibiere \
	linminMethod         DirUpdateRecommended \
	nIterations          100 \
	history              15 \
	knormThreshold       0 \
	energyDiffThreshold  0 \
	nEnergyDiff          2 \
	alphaTstart          1 \
	alphaTmin            1e-10 \
	updateTestStepSize   yes \
	alphaTreduceFactor   0.1 \
	alphaTincreaseFactor 3 \
	nAlphaAdjustMax      3 \
	wolfeEnergy          0.0001 \
	wolfeGradient        0.9 \
	fdTest               no
fluid-solvent H2O 55.338 ScalarEOS \
	epsBulk 78.4 \
	pMol 0.92466 \
	epsInf 1.77 \
	Pvap 1.06736e-10 \
	sigmaBulk 4.62e-05 \
	Rvdw 2.61727 \
	Res 1.42 \
	tauNuc 343133 \
	poleEl 15 7 1
forces-output-coords Positions
initial-state Ti4W8O31.$VAR
ion Ti   4.092604000000001  11.662907000000001  13.227952999999999 1
ion Ti   6.915204000000001   7.066849000000000   4.409318000000000 1
ion Ti   4.092604000000001  21.200547000000000  13.227952999999999 1
ion Ti   6.915204000000001  16.604489999999998   4.409318000000000 1
ion W   1.785400000000000   7.094381000000000   8.778476000000000 1
ion W   1.785400000000000   7.039317999999999   0.040160000000000 1
ion W   9.222407000000000  11.635375000000000   8.858796000000000 1
ion W   9.222407000000000  11.690437999999999  17.597111000000002 1
ion W   1.785400000000000  16.632021000000002   8.778476000000000 1
ion W   1.785400000000000  16.576958000000001   0.040160000000000 1
ion W   9.222407000000000  21.173016000000001   8.858796000000000 1
ion W   9.222407000000000  21.228079000000001  17.597111000000002 1
ion O   3.724855000000000  14.704857999999998  15.189605999999998 1
ion O   3.724855000000000   8.620956000000000  11.266301000000000 1
ion O   7.282953000000001   4.024898000000000   2.447665000000000 1
ion O   7.282953000000001  10.108799999999999   6.370970000000000 1
ion O   9.747304000000002   5.362231000000000   6.932823000000000 1
ion O   9.747304000000002   8.771466999999999   1.885812000000000 1
ion O   1.260504000000000  13.367525000000001  10.704447999999998 1
ion O   1.260504000000000   9.958288999999999  15.751458999999999 1
ion O   6.625016000000000  10.523728999999999  15.500197999999997 1
ion O   6.625016000000000  12.802084999999998  10.955709000000001 1
ion O   4.382792000000001   8.206027000000001   2.137073000000000 1
ion O   4.382792000000001   5.927671000000000   6.681562999999999 1
ion O   9.814022000000001  14.596812999999997  15.684877999999999 1
ion O   1.193786000000000   4.132942999999999   1.952393000000000 1
ion O   9.814022000000001   8.729000999999998  10.771028999999999 1
ion O   1.193786000000000  10.000754999999998   6.866243000000000 1
ion O   3.724855000000000  24.242498999999999  15.189605999999998 1
ion O   3.724855000000000  18.158595999999996  11.266301000000000 1
ion O   7.282953000000001  13.562538000000000   2.447665000000000 1
ion O   7.282953000000001  19.646440999999999   6.370970000000000 1
ion O   9.747304000000002  14.899870999999999   6.932823000000000 1
ion O   9.747304000000002  18.309107999999998   1.885812000000000 1
ion O   1.260504000000000  22.905165999999998  10.704447999999998 1
ion O   1.260504000000000  19.495928999999997  15.751458999999999 1
ion O   6.625016000000000  20.061368999999999  15.500197999999997 1
ion O   6.625016000000000  22.339725999999995  10.955709000000001 1
ion O   4.382792000000001  17.743668000000003   2.137073000000000 1
ion O   4.382792000000001  15.465311000000000   6.681562999999999 1
ion O   9.814022000000001  24.134452999999997  15.684877999999999 1
ion O   1.193786000000000  13.670584000000000   1.952393000000000 1
ion O   9.814022000000001  18.266640999999996  10.771028999999999 1
ion-species GBRV/$ID_pbe.uspp
ion-width 0
ionic-minimize  \
	dirUpdateScheme      L-BFGS \
	linminMethod         DirUpdateRecommended \
	nIterations          30 \
	history              15 \
	knormThreshold       0.0001 \
	energyDiffThreshold  1e-05 \
	nEnergyDiff          2 \
	alphaTstart          1 \
	alphaTmin            1e-10 \
	updateTestStepSize   yes \
	alphaTreduceFactor   0.1 \
	alphaTincreaseFactor 3 \
	nAlphaAdjustMax      3 \
	wolfeEnergy          0.0001 \
	wolfeGradient        0.9 \
	fdTest               no
kpoint   0.000000000000   0.000000000000   0.000000000000  1.00000000000000
kpoint-folding 3 3 3 
latt-move-scale 1 1 1
latt-scale 1 1 1 
lattice  \
	  11.007808000000001    0.000000000000000    0.000000000000000  \
	   0.000000000000000   19.075281000000000    9.192114999999999  \
	   0.000000000000000    0.000000000000000   17.637270999999998 
lattice-minimize  \
	dirUpdateScheme      L-BFGS \
	linminMethod         DirUpdateRecommended \
	nIterations          0 \
	history              15 \
	knormThreshold       0 \
	energyDiffThreshold  1e-06 \
	nEnergyDiff          2 \
	alphaTstart          1 \
	alphaTmin            1e-10 \
	updateTestStepSize   yes \
	alphaTreduceFactor   0.1 \
	alphaTincreaseFactor 3 \
	nAlphaAdjustMax      3 \
	wolfeEnergy          0.0001 \
	wolfeGradient        0.9 \
	fdTest               no
lcao-params -1 1e-06 0.004
pcm-variant GLSSA13
spintype no-spin
subspace-rotation-factor 1 yes
symmetries automatic
symmetry-threshold 0.0001



---------- Setting up symmetries ----------

Found 4 point-group symmetries of the bravais lattice
Found 1 space-group symmetries with basis
Applied RMS atom displacement 0 bohrs to make symmetries exact.

---------- Initializing the Grid ----------
R = 
[      11.0078            0            0  ]
[            0      19.0753      9.19211  ]
[            0            0      17.6373  ]
unit cell volume = 3703.42
G =
[   0.570794          0          0  ]
[          0   0.329389  -0.171669  ]
[          0          0   0.356245  ]
Minimum fftbox size, Smin = [  52  88  92  ]
Chosen fftbox size, S = [  54  90  96  ]

---------- Initializing tighter grid for wavefunction operations ----------
R = 
[      11.0078            0            0  ]
[            0      19.0753      9.19211  ]
[            0            0      17.6373  ]
unit cell volume = 3703.42
G =
[   0.570794          0          0  ]
[          0   0.329389  -0.171669  ]
[          0          0   0.356245  ]
Minimum fftbox size, Smin = [  48  80  84  ]
Chosen fftbox size, S = [  48  80  84  ]

---------- Exchange Correlation functional ----------
Initalized PBE GGA exchange.
Initalized PBE GGA correlation.

---------- Setting up pseudopotentials ----------
Width of ionic core gaussian charges (only for fluid interactions / plotting) set to 0

Reading pseudopotential file '/home/cam559/JDFTx/build/pseudopotentials/GBRV/ti_pbe.uspp':
  Title: Ti.  Created by USPP 7.3.6 on 31-3-15
  Reference state energy: -59.020943.  12 valence electrons in orbitals:
    |300>  occupation: 2  eigenvalue: -2.777623
    |310>  occupation: 6  eigenvalue: -1.894596
    |400>  occupation: 2  eigenvalue: -0.438610
    |320>  occupation: 1  eigenvalue: -0.583119
  lMax: 2  lLocal: 3  QijEcut: 6
  6 projectors sampled on a log grid with 597 points:
    l: 0  eig: -2.777624  rCut: 1.8
    l: 0  eig: -0.438611  rCut: 1.8
    l: 1  eig: -1.894596  rCut: 1.8
    l: 1  eig: 0.500000  rCut: 1.8
    l: 2  eig: -0.583118  rCut: 1.8
    l: 2  eig: 0.150000  rCut: 1.8
  Partial core density with radius 0.8
  Transforming core density to a uniform radial grid of dG=0.02 with 1644 points.
  Transforming local potential to a uniform radial grid of dG=0.02 with 1644 points.
  Transforming nonlocal projectors to a uniform radial grid of dG=0.02 with 432 points.
  Transforming density augmentations to a uniform radial grid of dG=0.02 with 1644 points.
  Transforming atomic orbitals to a uniform radial grid of dG=0.02 with 432 points.
  Core radius for overlap checks: 1.80 bohrs.

Reading pseudopotential file '/home/cam559/JDFTx/build/pseudopotentials/GBRV/w_pbe.uspp':
  Title: W.  Created by USPP 7.3.6 on 3-2-2014
  Reference state energy: -79.133630.  14 valence electrons in orbitals:
    |500>  occupation: 2  eigenvalue: -2.938934
    |510>  occupation: 6  eigenvalue: -1.620730
    |520>  occupation: 3.9  eigenvalue: -0.194511
    |600>  occupation: 2  eigenvalue: -0.234858
    |610>  occupation: 0  eigenvalue: -0.069444
  lMax: 3  lLocal: 3  QijEcut: 5
  8 projectors sampled on a log grid with 667 points:
    l: 0  eig: -2.938934  rCut: 1.45
    l: 0  eig: -0.234859  rCut: 1.45
    l: 0  eig: 0.500000  rCut: 1.45
    l: 1  eig: -1.620730  rCut: 1.5
    l: 1  eig: -0.069446  rCut: 1.5
    l: 2  eig: -0.194511  rCut: 1.7
    l: 2  eig: 0.150000  rCut: 1.7
    l: 3  eig: 0.500000  rCut: 2.3
  Partial core density with radius 1.2
  Transforming core density to a uniform radial grid of dG=0.02 with 1644 points.
  Transforming local potential to a uniform radial grid of dG=0.02 with 1644 points.
  Transforming nonlocal projectors to a uniform radial grid of dG=0.02 with 432 points.
  Transforming density augmentations to a uniform radial grid of dG=0.02 with 1644 points.
  Transforming atomic orbitals to a uniform radial grid of dG=0.02 with 432 points.
  Core radius for overlap checks: 2.30 bohrs.

Reading pseudopotential file '/home/cam559/JDFTx/build/pseudopotentials/GBRV/o_pbe.uspp':
  Title: O.  Created by USPP 7.3.6 on 3-2-2014
  Reference state energy: -15.894388.  6 valence electrons in orbitals:
    |200>  occupation: 2  eigenvalue: -0.878823
    |210>  occupation: 4  eigenvalue: -0.332131
  lMax: 2  lLocal: 2  QijEcut: 6
  5 projectors sampled on a log grid with 511 points:
    l: 0  eig: -0.878823  rCut: 1.25
    l: 0  eig: 0.000000  rCut: 1.25
    l: 1  eig: -0.332132  rCut: 1.25
    l: 1  eig: 0.000000  rCut: 1.25
    l: 2  eig: 1.000000  rCut: 1.25
  Partial core density with radius 0.7
  Transforming core density to a uniform radial grid of dG=0.02 with 1644 points.
  Transforming local potential to a uniform radial grid of dG=0.02 with 1644 points.
  Transforming nonlocal projectors to a uniform radial grid of dG=0.02 with 432 points.
  Transforming density augmentations to a uniform radial grid of dG=0.02 with 1644 points.
  Transforming atomic orbitals to a uniform radial grid of dG=0.02 with 432 points.
  Core radius for overlap checks: 1.25 bohrs.

Initialized 3 species with 43 total atoms.

Folded 1 k-points by 3x3x3 to 27 k-points.

---------- Setting up k-points, bands, fillings ----------
Adding inversion symmetry to k-mesh for non-inversion-symmetric unit cell.
Reduced to 14 k-points under symmetry. 
Computing the number of bands and number of electrons
Calculating initial fillings.
nElectrons: 346.000000   nBands: 268   nStates: 14

----- Setting up reduced wavefunction bases (one per k-point) -----
average nbasis = 15823.370 , ideal nbasis = 15821.300

---------- Setting up ewald sum ----------
Optimum gaussian width for ewald sums = 3.297613 bohr.
Real space sum over 441 unit cells with max indices [  4  3  3  ]
Reciprocal space sum over 7245 terms with max indices [  7  10  11  ]

---------- Allocating electronic variables ----------
Initializing wave functions:  linear combination of atomic orbitals
Ti pseudo-atom occupations:   s ( 2 0 )  p ( 6 )  d ( 4 )
W pseudo-atom occupations:   s ( 2 2 )  p ( 6 0 )  d ( 4 )
O pseudo-atom occupations:   s ( 2 )  p ( 4 )
	FillingsUpdate:  mu: +0.457077721  nElectrons: 346.000000
LCAOMinimize: Iter:   0  F: -1271.3929935456651492  |grad|_K:  6.210e-03  alpha:  1.000e+00
	FillingsUpdate:  mu: +0.398316463  nElectrons: 346.000000
LCAOMinimize: Iter:   1  F: -1275.7366749972097750  |grad|_K:  4.359e-03  alpha:  1.255e-01  linmin: -2.966e-01  cgtest:  9.435e-01  t[s]:    132.73
LCAOMinimize: Encountered beta<0, resetting CG.
LCAOMinimize: 	Predicted alpha/alphaT>3.000000, increasing alphaT to 3.764241e-01.
	FillingsUpdate:  mu: +0.257628198  nElectrons: 346.000000
LCAOMinimize: Iter:   2  F: -1279.3219292172113910  |grad|_K:  4.108e-03  alpha:  3.698e-01  linmin:  2.755e-02  cgtest: -3.057e-01  t[s]:    180.64
	FillingsUpdate:  mu: +0.251198713  nElectrons: 346.000000
LCAOMinimize: Iter:   3  F: -1279.4473173284054610  |grad|_K:  4.104e-03  alpha:  9.716e-03  linmin: -6.124e-02  cgtest:  9.850e-01  t[s]:    219.01
LCAOMinimize: 	Predicted alpha/alphaT>3.000000, increasing alphaT to 2.914925e-02.
LCAOMinimize: 	Predicted alpha/alphaT>3.000000, increasing alphaT to 8.744775e-02.
	FillingsUpdate:  mu: +0.281123589  nElectrons: 346.000000
LCAOMinimize: Iter:   4  F: -1281.1683572889846801  |grad|_K:  1.496e-03  alpha:  1.787e-01  linmin: -1.415e-01  cgtest:  5.832e-02  t[s]:    276.92
	FillingsUpdate:  mu: +0.309866786  nElectrons: 346.000000
LCAOMinimize: Iter:   5  F: -1281.3932477698165258  |grad|_K:  4.076e-04  alpha:  1.450e-01  linmin:  6.983e-02  cgtest: -2.268e-01  t[s]:    315.34
	FillingsUpdate:  mu: +0.325913102  nElectrons: 346.000000
LCAOMinimize: Iter:   6  F: -1281.4004989460861452  |grad|_K:  2.724e-04  alpha:  1.160e-01  linmin:  1.409e-03  cgtest:  6.694e-01  t[s]:    353.83
LCAOMinimize: Encountered beta<0, resetting CG.
	FillingsUpdate:  mu: +0.334630364  nElectrons: 346.000000
LCAOMinimize: Iter:   7  F: -1281.4054605766420991  |grad|_K:  1.141e-04  alpha:  1.311e-01  linmin: -2.510e-02  cgtest:  5.120e-02  t[s]:    392.76
	FillingsUpdate:  mu: +0.329762671  nElectrons: 346.000000
LCAOMinimize: Iter:   8  F: -1281.4071127996069208  |grad|_K:  8.563e-05  alpha:  2.472e-01  linmin:  1.253e-02  cgtest: -6.980e-02  t[s]:    431.62
	FillingsUpdate:  mu: +0.334113871  nElectrons: 346.000000
LCAOMinimize: Iter:   9  F: -1281.4082746234967090  |grad|_K:  5.005e-05  alpha:  3.276e-01  linmin:  1.221e-03  cgtest:  1.692e-01  t[s]:    470.70
	FillingsUpdate:  mu: +0.333882604  nElectrons: 346.000000
LCAOMinimize: Iter:  10  F: -1281.4084876338417871  |grad|_K:  1.567e-05  alpha:  1.677e-01  linmin: -1.130e-03  cgtest:  4.491e-03  t[s]:    510.40
	FillingsUpdate:  mu: +0.334162453  nElectrons: 346.000000
LCAOMinimize: Iter:  11  F: -1281.4085051009535619  |grad|_K:  5.975e-06  alpha:  1.402e-01  linmin: -7.196e-04  cgtest: -8.309e-03  t[s]:    549.15
	FillingsUpdate:  mu: +0.333949009  nElectrons: 346.000000
LCAOMinimize: Iter:  12  F: -1281.4085101877979014  |grad|_K:  4.137e-06  alpha:  2.809e-01  linmin: -2.712e-04  cgtest:  1.021e-03  t[s]:    587.68
	FillingsUpdate:  mu: +0.334039394  nElectrons: 346.000000
LCAOMinimize: Iter:  13  F: -1281.4085126697304986  |grad|_K:  1.792e-06  alpha:  2.861e-01  linmin: -1.287e-04  cgtest: -2.088e-03  t[s]:    626.92
	FillingsUpdate:  mu: +0.334010964  nElectrons: 346.000000
LCAOMinimize: Iter:  14  F: -1281.4085129461373072  |grad|_K:  9.087e-07  alpha:  1.699e-01  linmin: -1.160e-05  cgtest: -6.679e-05  t[s]:    664.38
	FillingsUpdate:  mu: +0.334047887  nElectrons: 346.000000
LCAOMinimize: Iter:  15  F: -1281.4085130465150542  |grad|_K:  6.723e-07  alpha:  2.400e-01  linmin:  1.515e-05  cgtest: -3.473e-06  t[s]:    704.42
LCAOMinimize: Converged (|Delta F|<1.000000e-06 for 2 iters).


---- Citations for features of the code used in this run ----

   Software package:
      R. Sundararaman, K. Letchworth-Weaver, K.A. Schwarz, D. Gunceler, Y. Ozhabes and T.A. Arias, 'JDFTx: software for joint density-functional theory', SoftwareX 6, 278 (2017)

   gga-PBE exchange-correlation functional:
      J.P. Perdew, K. Burke and M. Ernzerhof, Phys. Rev. Lett. 77, 3865 (1996)

   Pseudopotentials:
      KF Garrity, JW Bennett, KM Rabe and D Vanderbilt, Comput. Mater. Sci. 81, 446 (2014)

   Total energy minimization with Auxiliary Hamiltonian:
      C. Freysoldt, S. Boeck, and J. Neugebauer, Phys. Rev. B 79, 241103(R) (2009)

This list may not be complete. Please suggest additional citations or
report any other bugs at https://github.com/shankar1729/jdftx/issues

Initialization completed successfully at t[s]:    738.79


-------- Electronic minimization -----------
	FillingsUpdate:  mu: +0.334047887  nElectrons: 346.000000
ElecMinimize: Iter:   0  F: -1281.408513046514827  |grad|_K:  1.978e-04  alpha:  1.000e+00
	FillingsUpdate:  mu: +0.322861492  nElectrons: 346.000000
	SubspaceRotationAdjust: set factor to 0.917
ElecMinimize: Iter:   1  F: -1282.489494376675339  |grad|_K:  1.267e-04  alpha:  4.589e-01  linmin:  2.296e-04  t[s]:    964.18
	FillingsUpdate:  mu: +0.308351024  nElectrons: 346.000000
	SubspaceRotationAdjust: set factor to 0.633
ElecMinimize: Iter:   2  F: -1282.786322782743127  |grad|_K:  6.475e-05  alpha:  3.144e-01  linmin: -1.342e-04  t[s]:   1115.44
	FillingsUpdate:  mu: +0.318733796  nElectrons: 346.000000
	SubspaceRotationAdjust: set factor to 0.444
ElecMinimize: Iter:   3  F: -1282.850467008346641  |grad|_K:  4.163e-05  alpha:  2.634e-01  linmin: -1.742e-03  t[s]:   1266.59
	FillingsUpdate:  mu: +0.314973734  nElectrons: 346.000000
	SubspaceRotationAdjust: set factor to 0.329
ElecMinimize: Iter:   4  F: -1282.888040431979334  |grad|_K:  2.300e-05  alpha:  3.499e-01  linmin:  1.538e-03  t[s]:   1418.22
	FillingsUpdate:  mu: +0.319753207  nElectrons: 346.000000
	SubspaceRotationAdjust: set factor to 0.391
ElecMinimize: Iter:   5  F: -1282.901069815609617  |grad|_K:  1.316e-05  alpha:  4.412e-01  linmin:  1.583e-04  t[s]:   1571.34
	FillingsUpdate:  mu: +0.324789680  nElectrons: 346.000000
	SubspaceRotationAdjust: set factor to 0.396
ElecMinimize: Iter:   6  F: -1282.905390422488381  |grad|_K:  6.976e-06  alpha:  4.199e-01  linmin:  2.274e-05  t[s]:   1723.95
	FillingsUpdate:  mu: +0.322837588  nElectrons: 346.000000
	SubspaceRotationAdjust: set factor to 0.411
ElecMinimize: Iter:   7  F: -1282.906626611296360  |grad|_K:  4.065e-06  alpha:  4.247e-01  linmin:  4.903e-05  t[s]:   1876.37
	FillingsUpdate:  mu: +0.322744822  nElectrons: 346.000000
	SubspaceRotationAdjust: set factor to 0.489
ElecMinimize: Iter:   8  F: -1282.907053975109648  |grad|_K:  2.641e-06  alpha:  4.334e-01  linmin:  1.792e-05  t[s]:   2027.64
	FillingsUpdate:  mu: +0.323349557  nElectrons: 346.000000
	SubspaceRotationAdjust: set factor to 0.56
ElecMinimize: Iter:   9  F: -1282.907235021895758  |grad|_K:  1.859e-06  alpha:  4.344e-01  linmin:  1.388e-07  t[s]:   2178.49
	FillingsUpdate:  mu: +0.323143053  nElectrons: 346.000000
	SubspaceRotationAdjust: set factor to 0.66
ElecMinimize: Iter:  10  F: -1282.907319049228136  |grad|_K:  1.185e-06  alpha:  4.061e-01  linmin: -3.219e-06  t[s]:   2330.01
	FillingsUpdate:  mu: +0.323010412  nElectrons: 346.000000
	SubspaceRotationAdjust: set factor to 0.723
ElecMinimize: Iter:  11  F: -1282.907351662180190  |grad|_K:  7.877e-07  alpha:  3.873e-01  linmin: -3.950e-07  t[s]:   2482.01
	FillingsUpdate:  mu: +0.323103400  nElectrons: 346.000000
	SubspaceRotationAdjust: set factor to 0.647
ElecMinimize: Iter:  12  F: -1282.907363852719072  |grad|_K:  4.695e-07  alpha:  3.281e-01  linmin:  1.446e-07  t[s]:   2634.25
	FillingsUpdate:  mu: +0.323188074  nElectrons: 346.000000
	SubspaceRotationAdjust: set factor to 0.551
ElecMinimize: Iter:  13  F: -1282.907368659798294  |grad|_K:  2.833e-07  alpha:  3.643e-01  linmin: -4.635e-07  t[s]:   2786.30
	FillingsUpdate:  mu: +0.323062672  nElectrons: 346.000000
	SubspaceRotationAdjust: set factor to 0.444
ElecMinimize: Iter:  14  F: -1282.907370170902823  |grad|_K:  1.803e-07  alpha:  3.145e-01  linmin:  2.363e-07  t[s]:   2942.49
	FillingsUpdate:  mu: +0.323105099  nElectrons: 346.000000
	SubspaceRotationAdjust: set factor to 0.464
ElecMinimize: Iter:  15  F: -1282.907370857897149  |grad|_K:  1.047e-07  alpha:  3.529e-01  linmin:  4.207e-07  t[s]:   3094.09
	FillingsUpdate:  mu: +0.323124260  nElectrons: 346.000000
	SubspaceRotationAdjust: set factor to 0.524
ElecMinimize: Iter:  16  F: -1282.907371126661701  |grad|_K:  7.116e-08  alpha:  4.094e-01  linmin:  7.380e-07  t[s]:   3246.36
	FillingsUpdate:  mu: +0.323104534  nElectrons: 346.000000
	SubspaceRotationAdjust: set factor to 0.599
ElecMinimize: Iter:  17  F: -1282.907371246977164  |grad|_K:  4.781e-08  alpha:  3.974e-01  linmin:  1.145e-06  t[s]:   3402.28
	FillingsUpdate:  mu: +0.323108057  nElectrons: 346.000000
	SubspaceRotationAdjust: set factor to 0.693
ElecMinimize: Iter:  18  F: -1282.907371299920896  |grad|_K:  3.494e-08  alpha:  3.876e-01  linmin:  4.981e-07  t[s]:   3554.59
	FillingsUpdate:  mu: +0.323111463  nElectrons: 346.000000
	SubspaceRotationAdjust: set factor to 0.813
ElecMinimize: Iter:  19  F: -1282.907371327693454  |grad|_K:  2.279e-08  alpha:  3.806e-01  linmin:  2.440e-07  t[s]:   3707.88
	FillingsUpdate:  mu: +0.323110500  nElectrons: 346.000000
	SubspaceRotationAdjust: set factor to 0.728
ElecMinimize: Iter:  20  F: -1282.907371338536450  |grad|_K:  1.564e-08  alpha:  3.491e-01  linmin:  4.230e-08  t[s]:   3862.55
	FillingsUpdate:  mu: +0.323109083  nElectrons: 346.000000
	SubspaceRotationAdjust: set factor to 0.618
ElecMinimize: Iter:  21  F: -1282.907371342957731  |grad|_K:  9.486e-09  alpha:  3.017e-01  linmin:  1.904e-08  t[s]:   4014.94
	FillingsUpdate:  mu: +0.323109698  nElectrons: 346.000000
	SubspaceRotationAdjust: set factor to 0.596
ElecMinimize: Iter:  22  F: -1282.907371344889043  |grad|_K:  6.171e-09  alpha:  3.586e-01  linmin: -8.356e-07  t[s]:   4169.52
ElecMinimize: Converged (|Delta F|<1.000000e-08 for 2 iters).
Setting wave functions to eigenvectors of Hamiltonian

# Ionic positions in cartesian coordinates:
ion Ti   4.092604000000001  11.662907000000001  13.227952999999999 1
ion Ti   6.915204000000001   7.066849000000000   4.409318000000000 1
ion Ti   4.092604000000001  21.200547000000000  13.227952999999999 1
ion Ti   6.915204000000001  16.604489999999998   4.409318000000000 1
ion W   1.785400000000000   7.094381000000000   8.778476000000000 1
ion W   1.785400000000000   7.039317999999999   0.040160000000000 1
ion W   9.222407000000000  11.635375000000000   8.858796000000000 1
ion W   9.222407000000000  11.690437999999999  17.597111000000002 1
ion W   1.785400000000000  16.632021000000002   8.778476000000000 1
ion W   1.785400000000000  16.576958000000001   0.040160000000000 1
ion W   9.222407000000000  21.173016000000001   8.858796000000000 1
ion W   9.222407000000000  21.228079000000001  17.597111000000002 1
ion O   3.724855000000000  14.704857999999998  15.189605999999998 1
ion O   3.724855000000000   8.620956000000000  11.266301000000000 1
ion O   7.282953000000001   4.024898000000000   2.447665000000000 1
ion O   7.282953000000001  10.108799999999999   6.370970000000000 1
ion O   9.747304000000002   5.362231000000000   6.932823000000000 1
ion O   9.747304000000002   8.771466999999999   1.885812000000000 1
ion O   1.260504000000000  13.367525000000001  10.704447999999998 1
ion O   1.260504000000000   9.958288999999999  15.751458999999999 1
ion O   6.625016000000000  10.523728999999999  15.500197999999997 1
ion O   6.625016000000000  12.802084999999998  10.955709000000001 1
ion O   4.382792000000001   8.206027000000001   2.137073000000000 1
ion O   4.382792000000001   5.927671000000000   6.681562999999999 1
ion O   9.814022000000001  14.596812999999997  15.684877999999999 1
ion O   1.193786000000000   4.132942999999999   1.952393000000000 1
ion O   9.814022000000001   8.729000999999998  10.771028999999999 1
ion O   1.193786000000000  10.000754999999998   6.866243000000000 1
ion O   3.724855000000000  24.242498999999999  15.189605999999998 1
ion O   3.724855000000000  18.158595999999996  11.266301000000000 1
ion O   7.282953000000001  13.562538000000000   2.447665000000000 1
ion O   7.282953000000001  19.646440999999999   6.370970000000000 1
ion O   9.747304000000002  14.899870999999999   6.932823000000000 1
ion O   9.747304000000002  18.309107999999998   1.885812000000000 1
ion O   1.260504000000000  22.905165999999998  10.704447999999998 1
ion O   1.260504000000000  19.495928999999997  15.751458999999999 1
ion O   6.625016000000000  20.061368999999999  15.500197999999997 1
ion O   6.625016000000000  22.339725999999995  10.955709000000001 1
ion O   4.382792000000001  17.743668000000003   2.137073000000000 1
ion O   4.382792000000001  15.465311000000000   6.681562999999999 1
ion O   9.814022000000001  24.134452999999997  15.684877999999999 1
ion O   1.193786000000000  13.670584000000000   1.952393000000000 1
ion O   9.814022000000001  18.266640999999996  10.771028999999999 1

# Forces in Cartesian coordinates:
force Ti  -0.001363773589256  -0.000604404096473   0.003254709882985 1
force Ti   0.002251832596213   0.001952007225014  -0.004016442840435 1
force Ti  -0.002838605520440   0.003408181766150   0.012874760386082 1
force Ti   0.005214457536341  -0.006178645051977  -0.008083913665114 1
force W   0.014299067781716   0.015479537167673  -0.004033514451956 1
force W   0.010401187038394  -0.004995274350148   0.004507442042891 1
force W  -0.015270555034743  -0.008993607530653   0.003270853426519 1
force W  -0.012233831545891   0.008656594433380  -0.008941856292165 1
force W   0.018655566121645  -0.034891481432018   0.039212255546900 1
force W   0.010183353646150  -0.009546071614249   0.001196958223386 1
force W  -0.024577204684131   0.001122206494325   0.015190235626729 1
force W  -0.010508310171308   0.007588027883964  -0.004577872767448 1
force O  -0.007234796362170   0.005900758444816   0.007301189642984 1
force O  -0.008401631050004  -0.007004295106489  -0.010119170773840 1
force O   0.007123723099218  -0.005456889296022  -0.007408282863035 1
force O   0.007461461799961   0.005918706886402   0.009406804873393 1
force O   0.004803443454311  -0.011410195109597   0.003377025536198 1
force O   0.001285035071476   0.001926701549812  -0.004320162136248 1
force O  -0.006522023377553   0.014563901344796  -0.009706156283683 1
force O  -0.001511640395341  -0.002567220073680   0.005036275532881 1
force O   0.011063586601873   0.004683113241993   0.007777494435216 1
force O   0.011485803245715  -0.004281764815433  -0.009068125736641 1
force O  -0.010251812920479  -0.004880077697650  -0.007050125576364 1
force O  -0.011483648872099   0.002356548466060   0.008261818761359 1
force O   0.000152956980588  -0.012220768373160   0.008891816727980 1
force O   0.000405497025531   0.009897928201114  -0.006257506066882 1
force O   0.000121898863916   0.012045057860727  -0.008563708246412 1
force O   0.000197144484168  -0.011989082404351   0.008874333392588 1
force O  -0.006915928281002   0.004386545345059   0.006740502484979 1
force O  -0.015964694227207  -0.005042432268295  -0.031652800267678 1
force O   0.006698555029814  -0.004160988549044  -0.007284501279586 1
force O   0.020463540226964   0.011020997890058   0.010672343092537 1
force O   0.004303459108926   0.004008580051096   0.001386889308864 1
force O   0.002783717487620   0.002848547734369  -0.000555128802829 1
force O  -0.004209171601959  -0.004568315814270  -0.013894685199318 1
force O  -0.000881535089815  -0.003237139274374   0.004387638286472 1
force O   0.009643350942908   0.004243218912817   0.006079966140240 1
force O   0.015848897277030  -0.007399620094240  -0.009166413178137 1
force O  -0.010643133093584  -0.003044226876035  -0.006141863033751 1
force O  -0.020803695011910   0.018313449674314   0.005084896060874 1
force O   0.000213154244048  -0.011341216317206   0.008186828338958 1
force O   0.000254957290772   0.012078304647528  -0.008095904281373 1
force O   0.006330333015271   0.011394346749487  -0.012024375916095 1

# Energy components:
   Eewald =     -845.5411289735021683
       EH =      362.8610342189495555
     Eloc =    -1019.4554666574429120
      Enl =      -25.2609991933089866
      Exc =     -312.7507506576777701
 Exc_core =       94.0502314231170402
       KE =      463.1994801257800418
-------------------------------------
     Etot =    -1282.8975997140851177
       TS =        0.0097716308038960
-------------------------------------
        F =    -1282.9073713448890430

IonicMinimize: Iter:   0  F: -1282.907371344889043  |grad|_K:  1.023e-02  t[s]:   4204.67

#--- Lowdin population analysis ---
# oxidation-state Ti +1.758 +1.761 +1.752 +1.749
# oxidation-state W +0.950 +0.960 +0.956 +0.956 +0.779 +0.954 +0.844 +0.958
# oxidation-state O -0.432 -0.428 -0.434 -0.428 -0.521 -0.521 -0.465 -0.522 -0.427 -0.428 -0.427 -0.438 -0.335 -0.348 -0.334 -0.335 -0.428 -0.407 -0.428 -0.437 -0.519 -0.532 -0.523 -0.522 -0.429 -0.403 -0.440 -0.422 -0.338 -0.337 -0.312


-------- Electronic minimization -----------
	FillingsUpdate:  mu: +0.331031121  nElectrons: 346.000000
ElecMinimize: Iter:   0  F: -1282.715399619467689  |grad|_K:  8.519e-05  alpha:  1.000e+00
	FillingsUpdate:  mu: +0.314928181  nElectrons: 346.000000
	SubspaceRotationAdjust: set factor to 0.538
ElecMinimize: Iter:   1  F: -1282.889366833218901  |grad|_K:  2.916e-05  alpha:  3.964e-01  linmin: -5.240e-04  t[s]:   4483.28
	FillingsUpdate:  mu: +0.323814942  nElectrons: 346.000000
	SubspaceRotationAdjust: set factor to 0.436
ElecMinimize: Iter:   2  F: -1282.906254619908395  |grad|_K:  1.834e-05  alpha:  3.322e-01  linmin: -4.204e-04  t[s]:   4636.46
	FillingsUpdate:  mu: +0.322428366  nElectrons: 346.000000
	SubspaceRotationAdjust: set factor to 0.38
ElecMinimize: Iter:   3  F: -1282.913796711293344  |grad|_K:  1.228e-05  alpha:  3.727e-01  linmin:  9.053e-04  t[s]:   4789.93
	FillingsUpdate:  mu: +0.325528203  nElectrons: 346.000000
	SubspaceRotationAdjust: set factor to 0.402
ElecMinimize: Iter:   4  F: -1282.917129962434501  |grad|_K:  7.071e-06  alpha:  3.870e-01  linmin: -1.330e-04  t[s]:   4942.94
	FillingsUpdate:  mu: +0.325456645  nElectrons: 346.000000
	SubspaceRotationAdjust: set factor to 0.432
ElecMinimize: Iter:   5  F: -1282.918339544358105  |grad|_K:  3.595e-06  alpha:  4.012e-01  linmin:  2.829e-05  t[s]:   5098.14
	FillingsUpdate:  mu: +0.324952357  nElectrons: 346.000000
	SubspaceRotationAdjust: set factor to 0.454
ElecMinimize: Iter:   6  F: -1282.918609008492695  |grad|_K:  1.951e-06  alpha:  3.487e-01  linmin: -7.201e-06  t[s]:   5249.10
	FillingsUpdate:  mu: +0.325254183  nElectrons: 346.000000
	SubspaceRotationAdjust: set factor to 0.514
ElecMinimize: Iter:   7  F: -1282.918695358870082  |grad|_K:  1.128e-06  alpha:  3.790e-01  linmin: -7.287e-06  t[s]:   5402.39
	FillingsUpdate:  mu: +0.325167538  nElectrons: 346.000000
	SubspaceRotationAdjust: set factor to 0.558
ElecMinimize: Iter:   8  F: -1282.918725344392897  |grad|_K:  7.477e-07  alpha:  3.935e-01  linmin:  3.898e-06  t[s]:   5556.04
	FillingsUpdate:  mu: +0.325288903  nElectrons: 346.000000
	SubspaceRotationAdjust: set factor to 0.524
ElecMinimize: Iter:   9  F: -1282.918737069845520  |grad|_K:  5.002e-07  alpha:  3.504e-01  linmin: -3.711e-06  t[s]:   5705.83
	FillingsUpdate:  mu: +0.325103114  nElectrons: 346.000000
	SubspaceRotationAdjust: set factor to 0.424
ElecMinimize: Iter:  10  F: -1282.918742394947230  |grad|_K:  3.146e-07  alpha:  3.554e-01  linmin:  4.238e-06  t[s]:   5857.90
	FillingsUpdate:  mu: +0.325231976  nElectrons: 346.000000
	SubspaceRotationAdjust: set factor to 0.358
ElecMinimize: Iter:  11  F: -1282.918744451454586  |grad|_K:  1.567e-07  alpha:  3.473e-01  linmin:  9.155e-08  t[s]:   6009.04
	FillingsUpdate:  mu: +0.325224317  nElectrons: 346.000000
	SubspaceRotationAdjust: set factor to 0.405
ElecMinimize: Iter:  12  F: -1282.918745054231749  |grad|_K:  8.775e-08  alpha:  4.099e-01  linmin:  3.052e-07  t[s]:   6162.34
	FillingsUpdate:  mu: +0.325200415  nElectrons: 346.000000
	SubspaceRotationAdjust: set factor to 0.458
ElecMinimize: Iter:  13  F: -1282.918745221349354  |grad|_K:  5.206e-08  alpha:  3.625e-01  linmin:  2.973e-08  t[s]:   6313.86
	FillingsUpdate:  mu: +0.325207079  nElectrons: 346.000000
	SubspaceRotationAdjust: set factor to 0.575
ElecMinimize: Iter:  14  F: -1282.918745288789069  |grad|_K:  3.231e-08  alpha:  4.158e-01  linmin:  2.384e-09  t[s]:   6469.94
	FillingsUpdate:  mu: +0.325209175  nElectrons: 346.000000
	SubspaceRotationAdjust: set factor to 0.715
ElecMinimize: Iter:  15  F: -1282.918745313997988  |grad|_K:  2.341e-08  alpha:  4.032e-01  linmin:  4.125e-07  t[s]:   6622.72
	FillingsUpdate:  mu: +0.325206940  nElectrons: 346.000000
	SubspaceRotationAdjust: set factor to 0.784
ElecMinimize: Iter:  16  F: -1282.918745325402824  |grad|_K:  1.519e-08  alpha:  3.485e-01  linmin: -2.156e-07  t[s]:   6773.39
	FillingsUpdate:  mu: +0.325207144  nElectrons: 346.000000
	SubspaceRotationAdjust: set factor to 0.583
ElecMinimize: Iter:  17  F: -1282.918745329849799  |grad|_K:  9.481e-09  alpha:  3.205e-01  linmin:  7.053e-07  t[s]:   6927.46
	FillingsUpdate:  mu: +0.325207538  nElectrons: 346.000000
	SubspaceRotationAdjust: set factor to 0.411
ElecMinimize: Iter:  18  F: -1282.918745331093078  |grad|_K:  4.949e-09  alpha:  2.284e-01  linmin: -2.611e-06  t[s]:   7082.70
ElecMinimize: Converged (|Delta F|<1.000000e-08 for 2 iters).
Setting wave functions to eigenvectors of Hamiltonian

# Ionic positions in cartesian coordinates:
ion Ti   4.091239528988845  11.662303071582002  13.231207465043635 1
ion Ti   6.917455135174314   7.068801482903490   4.405301312320216 1
ion Ti   4.089764697057660  21.203955657444627  13.240827515546732 1
ion Ti   6.920417760114442  16.598311830626500   4.401233841495536 1
ion W   1.799698370359816   7.109861012846148   8.774442240708694 1
ion W   1.795800489616494   7.034323201328326   0.044667197203542 1
ion W   9.207135747543358  11.626381868147821   8.862066608587169 1
ion W   9.210172471032211  11.699095070111854  17.588168898868489 1
ion W   1.804054868699746  16.597129994246458   8.817688010707549 1
ion W   1.795582656224251  16.567412404064225   0.041356713384037 1
ion W   9.197829097893971  21.174138682172803   8.873985990787380 1
ion W   9.211897992406794  21.235667503562439  17.592532882393204 1
ion O   3.717619506215931  14.710759234123291  15.196906944803631 1
ion O   3.716452671528097   8.613952180571985  11.256181584386811 1
ion O   7.290076025677319   4.019441586382452   2.440256472297615 1
ion O   7.290413764378062  10.114719182564876   6.380376560034043 1
ion O   9.752106746032412   5.350821280568878   6.936199780696849 1
ion O   9.748588337649577   8.773394177228287   1.881491593024403 1
ion O   1.253981279200548  13.382089377023270  10.694741598876966 1
ion O   1.258991662182760   9.955722255604794  15.756495030693531 1
ion O   6.636078889179974  10.528412588920466  15.507975249595864 1
ion O   6.636501105823816  12.797803710863041  10.946640629424012 1
ion O   4.372539489657623   8.201147397980826   2.130022629584286 1
ion O   4.371307653706002   5.930028024144535   6.689824573922008 1
ion O   9.814174259558689  14.584592707305312  15.693769571888629 1
ion O   1.194190799603632   4.142841403879588   1.946135249093768 1
ion O   9.814143201442018   8.741046533539201  10.762465046914238 1
ion O   1.193982447062269   9.988766393274123   6.875117088553238 1
ion O   3.717938374297099  24.246886021023531  15.196346257645628 1
ion O   3.708889608350893  18.153554043410175  11.234647954892973 1
ion O   7.289650857607915  13.558377487129430   2.440380253881065 1
ion O   7.303415842805066  19.657462473568529   6.381642098253187 1
ion O   9.751606761687027  14.903880055729569   6.934209644469513 1
ion O   9.750087020065720  18.311957023412841   1.885256626357822 1
ion O   1.256294130976142  22.900598159864202  10.690553069961329 1
ion O   1.259621767488285  19.492692336404097  15.755846393447122 1
ion O   6.634658653521009  20.065612694591294  15.506277721300888 1
ion O   6.640864199855130  22.332326855584235  10.946542341982516 1
ion O   4.372148169484517  17.740624248802440   2.130930892126899 1
ion O   4.361987607566191  15.483624925352787   6.686647651221524 1
ion O   9.814234456822151  24.123112259361264  15.693064583499607 1
ion O   1.194040259868872  13.682662780326002   1.944296850879277 1
ion O   9.820351635593372  18.278035822427960  10.759004379244557 1

# Forces in Cartesian coordinates:
force Ti  -0.001826150048757  -0.001612863227068   0.005582848631629 1
force Ti   0.003882365468678   0.000260158270888  -0.003825603664442 1
force Ti  -0.006194089405471   0.002791448228836   0.012701501562997 1
force Ti   0.006964234032551  -0.004014740756135  -0.006894997043320 1
force W   0.008042418407821   0.006221579045431  -0.005000563733941 1
force W   0.004873363087322  -0.002241756983457   0.006193370588707 1
force W  -0.011954826781952  -0.004201016705769  -0.000502038830189 1
force W  -0.005803891495023   0.003080572123229  -0.005430005268921 1
force W   0.010184376251321  -0.038422087228443   0.027850943153414 1
force W   0.004449891968759  -0.002468278443641   0.003828108350309 1
force W  -0.018420566783705   0.008365314209098   0.014381040963594 1
force W  -0.004429288597916   0.002851891269961  -0.003296147015136 1
force O  -0.003629309872271   0.002319323868612   0.002033878631070 1
force O  -0.003578050696345  -0.002403126093276  -0.003909025550748 1
force O   0.003755708094932  -0.002091256505722  -0.003413072211158 1
force O   0.003711031544280   0.002957574954214   0.005026061832749 1
force O   0.003211215762755  -0.010039797016253   0.002448697629227 1
force O   0.000205724224019   0.001596081112608  -0.003293634361162 1
force O  -0.003065428423799   0.011399997073980  -0.006243270788539 1
force O  -0.000290519637971  -0.001666879175775   0.003143987266462 1
force O   0.004753578237251   0.002877072489940   0.002478108064563 1
force O   0.005505253233120  -0.002482046705346  -0.004465109950481 1
force O  -0.005394877291864  -0.003138602877316  -0.003312471237556 1
force O  -0.005906708145455   0.001490475081785   0.003990491004441 1
force O  -0.000477026859204  -0.008226637428934   0.004501076265590 1
force O   0.001183992938416   0.008103379525774  -0.004049568388016 1
force O  -0.000690605549589   0.009382952465395  -0.004751913799690 1
force O   0.000734887626506  -0.007395078591788   0.004762014305429 1
force O  -0.002634838924530   0.000534162432281   0.001273619801212 1
force O  -0.007255265136935   0.002640293308438  -0.019180287682951 1
force O   0.003115478670822  -0.001725669886521  -0.003349489374732 1
force O   0.016293050175869   0.006055296188637   0.005344515988127 1
force O   0.001522688796422   0.002587671728681   0.001010364331720 1
force O   0.001700305932521   0.002058198167526  -0.000066407686003 1
force O  -0.002310398435876  -0.004813959313424  -0.011793207669566 1
force O   0.000456827423142  -0.001854016114628   0.002178564165367 1
force O   0.004513571799230   0.002567047058696   0.001807545862852 1
force O   0.009140482587803  -0.004274843091270  -0.004723867600202 1
force O  -0.006012584323273  -0.002158363604740  -0.002972509995577 1
force O  -0.015596899534089   0.016194949119789   0.001776620836573 1
force O  -0.000642401914950  -0.008400602963105   0.004466805470694 1
force O   0.000642110638333   0.008407779023769  -0.004983545795429 1
force O   0.007254392245363   0.008888480841838  -0.011322144320431 1

# Energy components:
   Eewald =     -843.9380474005979522
       EH =      364.4743735513877141
     Eloc =    -1022.8563996126614484
      Enl =      -25.2637433809724499
      Exc =     -312.8479450543607072
 Exc_core =       94.0502533384932775
       KE =      463.4745155920693946
-------------------------------------
     Etot =    -1282.9069929666422922
       TS =        0.0117523644507788
-------------------------------------
        F =    -1282.9187453310930778

IonicMinimize: Iter:   1  F: -1282.918745331093078  |grad|_K:  7.379e-03  alpha:  1.000e+00  linmin: -9.450e-01  t[s]:   7119.12

#--- Lowdin population analysis ---
# oxidation-state Ti +1.760 +1.763 +1.752 +1.752
# oxidation-state W +0.947 +0.957 +0.953 +0.954 +0.783 +0.951 +0.855 +0.955
# oxidation-state O -0.432 -0.427 -0.432 -0.425 -0.525 -0.525 -0.459 -0.527 -0.424 -0.427 -0.425 -0.437 -0.336 -0.347 -0.334 -0.334 -0.426 -0.400 -0.426 -0.435 -0.527 -0.537 -0.530 -0.526 -0.428 -0.395 -0.438 -0.422 -0.337 -0.336 -0.315


-------- Electronic minimization -----------
	FillingsUpdate:  mu: +0.329948947  nElectrons: 346.000000
ElecMinimize: Iter:   0  F: -1282.477984890834932  |grad|_K:  1.211e-04  alpha:  1.000e+00
	FillingsUpdate:  mu: +0.307657399  nElectrons: 346.000000
	SubspaceRotationAdjust: set factor to 0.34
ElecMinimize: Iter:   1  F: -1282.838153157051920  |grad|_K:  4.768e-05  alpha:  4.099e-01  linmin:  6.722e-04  t[s]:   7397.20
	FillingsUpdate:  mu: +0.317986283  nElectrons: 346.000000
	SubspaceRotationAdjust: set factor to 0.29
ElecMinimize: Iter:   2  F: -1282.877377756398573  |grad|_K:  3.114e-05  alpha:  3.062e-01  linmin: -1.055e-03  t[s]:   7551.38
	FillingsUpdate:  mu: +0.326939851  nElectrons: 346.000000
	SubspaceRotationAdjust: set factor to 0.295
ElecMinimize: Iter:   3  F: -1282.906944405328659  |grad|_K:  2.328e-05  alpha:  5.107e-01  linmin:  1.290e-03  t[s]:   7704.23
	FillingsUpdate:  mu: +0.325503572  nElectrons: 346.000000
	SubspaceRotationAdjust: set factor to 0.383
ElecMinimize: Iter:   4  F: -1282.922124605141335  |grad|_K:  1.551e-05  alpha:  5.042e-01  linmin: -2.401e-05  t[s]:   7858.96
	FillingsUpdate:  mu: +0.329716560  nElectrons: 346.000000
	SubspaceRotationAdjust: set factor to 0.385
ElecMinimize: Iter:   5  F: -1282.928006201917015  |grad|_K:  8.018e-06  alpha:  4.087e-01  linmin: -8.251e-05  t[s]:   8009.76
	FillingsUpdate:  mu: +0.327920224  nElectrons: 346.000000
	SubspaceRotationAdjust: set factor to 0.343
ElecMinimize: Iter:   6  F: -1282.929491561748819  |grad|_K:  5.329e-06  alpha:  3.846e-01  linmin:  5.422e-05  t[s]:   8163.98
	FillingsUpdate:  mu: +0.328696155  nElectrons: 346.000000
	SubspaceRotationAdjust: set factor to 0.318
ElecMinimize: Iter:   7  F: -1282.930060200156731  |grad|_K:  3.235e-06  alpha:  3.355e-01  linmin: -4.218e-05  t[s]:   8317.71
	FillingsUpdate:  mu: +0.328632187  nElectrons: 346.000000
	SubspaceRotationAdjust: set factor to 0.362
ElecMinimize: Iter:   8  F: -1282.930327898105816  |grad|_K:  1.854e-06  alpha:  4.266e-01  linmin:  1.465e-05  t[s]:   8469.26
	FillingsUpdate:  mu: +0.328747762  nElectrons: 346.000000
	SubspaceRotationAdjust: set factor to 0.4
ElecMinimize: Iter:   9  F: -1282.930423266671369  |grad|_K:  1.221e-06  alpha:  4.637e-01  linmin:  1.390e-05  t[s]:   8619.99
	FillingsUpdate:  mu: +0.328746098  nElectrons: 346.000000
	SubspaceRotationAdjust: set factor to 0.405
ElecMinimize: Iter:  10  F: -1282.930456921046243  |grad|_K:  8.057e-07  alpha:  3.772e-01  linmin:  4.054e-07  t[s]:   8771.34
	FillingsUpdate:  mu: +0.328639922  nElectrons: 346.000000
	SubspaceRotationAdjust: set factor to 0.379
ElecMinimize: Iter:  11  F: -1282.930471342797546  |grad|_K:  5.076e-07  alpha:  3.711e-01  linmin:  4.641e-06  t[s]:   8925.79
	FillingsUpdate:  mu: +0.328823865  nElectrons: 346.000000
	SubspaceRotationAdjust: set factor to 0.349
ElecMinimize: Iter:  12  F: -1282.930477205940406  |grad|_K:  3.352e-07  alpha:  3.802e-01  linmin: -2.125e-06  t[s]:   9078.09
	FillingsUpdate:  mu: +0.328723419  nElectrons: 346.000000
	SubspaceRotationAdjust: set factor to 0.35
ElecMinimize: Iter:  13  F: -1282.930479782717839  |grad|_K:  2.139e-07  alpha:  3.831e-01  linmin:  2.724e-07  t[s]:   9229.55
	FillingsUpdate:  mu: +0.328717736  nElectrons: 346.000000
	SubspaceRotationAdjust: set factor to 0.361
ElecMinimize: Iter:  14  F: -1282.930480889814817  |grad|_K:  1.337e-07  alpha:  4.043e-01  linmin:  2.531e-07  t[s]:   9381.54
	FillingsUpdate:  mu: +0.328753527  nElectrons: 346.000000
	SubspaceRotationAdjust: set factor to 0.362
ElecMinimize: Iter:  15  F: -1282.930481333360376  |grad|_K:  8.079e-08  alpha:  4.142e-01  linmin:  7.029e-07  t[s]:   9534.85
	FillingsUpdate:  mu: +0.328729526  nElectrons: 346.000000
	SubspaceRotationAdjust: set factor to 0.351
ElecMinimize: Iter:  16  F: -1282.930481503070723  |grad|_K:  5.487e-08  alpha:  4.344e-01  linmin:  4.326e-08  t[s]:   9687.67
	FillingsUpdate:  mu: +0.328737195  nElectrons: 346.000000
	SubspaceRotationAdjust: set factor to 0.341
ElecMinimize: Iter:  17  F: -1282.930481561834540  |grad|_K:  3.274e-08  alpha:  3.260e-01  linmin: -4.483e-07  t[s]:   9841.39
	FillingsUpdate:  mu: +0.328738066  nElectrons: 346.000000
	SubspaceRotationAdjust: set factor to 0.403
ElecMinimize: Iter:  18  F: -1282.930481589972260  |grad|_K:  2.077e-08  alpha:  4.381e-01  linmin:  1.153e-07  t[s]:   9993.93
	FillingsUpdate:  mu: +0.328736207  nElectrons: 346.000000
	SubspaceRotationAdjust: set factor to 0.459
ElecMinimize: Iter:  19  F: -1282.930481600967596  |grad|_K:  1.302e-08  alpha:  4.261e-01  linmin: -2.947e-06  t[s]:  10145.18
	FillingsUpdate:  mu: +0.328737723  nElectrons: 346.000000
	SubspaceRotationAdjust: set factor to 0.442
ElecMinimize: Iter:  20  F: -1282.930481604911392  |grad|_K:  9.076e-09  alpha:  3.849e-01  linmin:  3.469e-07  t[s]:  10298.31
	FillingsUpdate:  mu: +0.328736292  nElectrons: 346.000000
	SubspaceRotationAdjust: set factor to 0.355
ElecMinimize: Iter:  21  F: -1282.930481606490730  |grad|_K:  5.680e-09  alpha:  3.245e-01  linmin: -1.017e-06  t[s]:  10449.90
ElecMinimize: Converged (|Delta F|<1.000000e-08 for 2 iters).
Setting wave functions to eigenvectors of Hamiltonian

# Ionic positions in cartesian coordinates:
ion Ti   4.087194983326689  11.658469787815712  13.243972217419936 1
ion Ti   6.926338123927875   7.068616750770763   4.397327637877154 1
ion Ti   4.075269329597139  21.209566963434966  13.267500564778338 1
ion Ti   6.935842458285284  16.590793736680933   4.387228408257590 1
ion W   1.813927694379518   7.118955096382050   8.763492983915118 1
ion W   1.803671620304245   7.030794062723659   0.058439636793275 1
ion W   9.183396788820035  11.619609433728696   8.859376143708717 1
ion W   9.200734849577769  11.703168404740788  17.578254163040548 1
ion W   1.821836273235353  16.514688554150183   8.871420967145783 1
ion W   1.802472982546338  16.565278178990628   0.050557339147312 1
ion W   9.161703780028095  21.194890422774755   8.903920681226003 1
ion W   9.205203229774334  21.239622840141806  17.586146423678279 1
ion O   3.711538641109135  14.714092901098873  15.198909932645709 1
ion O   3.711007055756596   8.610883049023109  11.250637940870057 1
ion O   7.296528456668834   4.016494365680972   2.434798426999065 1
ion O   7.296606566819902  10.119665462909936   6.389064557855960 1
ion O   9.758181257536851   5.330271551864854   6.940954644035759 1
ion O   9.748555638810990   8.776612022307527   1.874999952565557 1
ion O   1.249023434957101  13.404726728536115  10.683093014947691 1
ion O   1.258909764286666   9.952601523954653  15.762296810005944 1
ion O   6.643359164351579  10.533689369148364  15.510899852562895 1
ion O   6.645506949017491  12.793355655535450  10.939230217614053 1
ion O   4.363282268117183   8.195291491625696   2.124664945282738 1
ion O   4.361284254773770   5.932791680848316   6.696379133897459 1
ion O   9.812898269026919  14.568997093868287  15.701347677729689 1
ion O   1.197022460825869   4.159129209776542   1.938563114117956 1
ion O   9.812338425065899   8.759653426709058  10.754108143197534 1
ion O   1.195764119997091   9.975181635038915   6.883365228705239 1
ion O   3.714244222997412  24.246343035154879  15.196661827704524 1
ion O   3.697382319495464  18.162439801418166  11.199655573488229 1
ion O   7.294661934714804  13.555797427834273   2.435030047775401 1
ion O   7.335923207652636  19.668064465844047   6.390590741919851 1
ion O   9.753610903239053  14.908714109203308   6.936174400736546 1
ion O   9.753199977349642  18.315949025221443   1.885328372431264 1
ion O   1.252251931797270  22.890353922380559  10.666627562472144 1
ion O   1.261164456602702  19.489386506630961  15.759477959615614 1
ion O   6.641944412099937  20.070292813181609  15.508234756332518 1
ion O   6.657210365578959  22.324676967558293  10.938517547633488 1
ion O   4.361492121122288  17.736462235587311   2.126043117300019 1
ion O   4.331397455758937  15.516812486402932   6.688956931961441 1
ion O   9.812512555461083  24.106694233683157  15.700860866853983 1
ion O   1.195561365164788  13.698779524271304   1.935149374497997 1
ion O   9.836029930040501  18.295669045366132  10.735465159255604 1

# Forces in Cartesian coordinates:
force Ti  -0.001252727347526  -0.003300618164715   0.008328358497580 1
force Ti   0.004866868978944  -0.001644121712582  -0.004206122728348 1
force Ti  -0.010210862749122  -0.000143828207845   0.012572787628628 1
force Ti   0.008006966779066  -0.001103981140480  -0.005384517461241 1
force W   0.003544085232093   0.000600226221991  -0.002350687803408 1
force W   0.001826924467243   0.000413274275586   0.003357412469513 1
force W  -0.009784878225936  -0.002359668339539  -0.002948433348527 1
force W  -0.001731631286625  -0.000567786311151  -0.002900518536497 1
force W   0.002085717365189  -0.033119191310571   0.017987590300151 1
force W   0.001335199338845   0.001921900720755   0.002441786820937 1
force W  -0.012854854350182   0.014099608240377   0.012323874693779 1
force W  -0.000577392746798  -0.001130145754168  -0.002703594889436 1
force O  -0.002034581287201   0.000539242889023  -0.000561562959362 1
force O  -0.000982964098926  -0.000030099641315  -0.000616613881037 1
force O   0.001464493288192   0.000032029139764  -0.000637395209028 1
force O  -0.000512935313954   0.000242248964152   0.000262184595511 1
force O   0.001822917982299  -0.007110006285978   0.000981995647537 1
force O  -0.000293660351884   0.000507743199836  -0.001774638273638 1
force O   0.000858681537813   0.002929040462670  -0.000280548620622 1
force O   0.000114401384228  -0.000351168320857   0.001571630649150 1
force O   0.000435478989897   0.000763484601036  -0.000865218608886 1
force O   0.000184895863743  -0.000166826989781  -0.000788423806946 1
force O  -0.000554900729518  -0.000986565931386   0.000374983184214 1
force O  -0.000232436769271   0.000165555671994  -0.000180188037507 1
force O  -0.000803371761080  -0.004243026022185   0.000366761850474 1
force O   0.001202324961344   0.003835040558001  -0.000174291714090 1
force O  -0.000927011235264   0.006342378131623  -0.001502118497187 1
force O   0.000743557061606  -0.002281339472293   0.000355043589577 1
force O  -0.000972899716203  -0.000416238124907  -0.000606047589173 1
force O  -0.000332307943758   0.008261811053388  -0.008372823357023 1
force O   0.000319747542190   0.000087059045650   0.000003804338431 1
force O   0.012926000845978   0.001574132116028   0.001011470172684 1
force O  -0.000608540854080   0.001828813653148   0.000337989658813 1
force O   0.000918117539927   0.000649237965988   0.000735048824641 1
force O  -0.000897452202268  -0.005367617843447  -0.009514853532685 1
force O   0.001297586300278   0.000036665746907   0.000044269009317 1
force O   0.000988139316431   0.000947367954802  -0.001045534296397 1
force O   0.000557579796992   0.001278852739623   0.000107460508755 1
force O  -0.001366287227136  -0.000712347432039   0.000044683196334 1
force O  -0.009164240591978   0.012175108082242  -0.002055515549435 1
force O  -0.000828402428132  -0.004451791494571   0.000539578737032 1
force O   0.000559892247962   0.003851554764184  -0.001069425064187 1
force O   0.010821971091482   0.006461471094223  -0.013274816222530 1

# Energy components:
   Eewald =     -841.8609144602891092
       EH =      366.6354640208980982
     Eloc =    -1027.3420387130986455
      Enl =      -25.2502898839052605
      Exc =     -312.9711508587705566
 Exc_core =       94.0502760743015642
       KE =      463.8231629426833251
-------------------------------------
     Etot =    -1282.9154908781806625
       TS =        0.0149907283101067
-------------------------------------
        F =    -1282.9304816064907300

IonicMinimize: Iter:   2  F: -1282.930481606490730  |grad|_K:  5.442e-03  alpha:  3.984e-01  linmin: -9.182e-01  t[s]:  10486.63

#--- Lowdin population analysis ---
# oxidation-state Ti +1.755 +1.761 +1.747 +1.751
# oxidation-state W +0.943 +0.953 +0.946 +0.950 +0.800 +0.947 +0.876 +0.950
# oxidation-state O -0.437 -0.429 -0.432 -0.420 -0.528 -0.528 -0.441 -0.530 -0.420 -0.427 -0.422 -0.436 -0.336 -0.344 -0.336 -0.335 -0.427 -0.401 -0.426 -0.437 -0.533 -0.540 -0.536 -0.531 -0.428 -0.380 -0.435 -0.420 -0.336 -0.334 -0.319


-------- Electronic minimization -----------
	FillingsUpdate:  mu: +0.328840357  nElectrons: 346.000000
ElecMinimize: Iter:   0  F: -1282.487653853440861  |grad|_K:  1.183e-04  alpha:  1.000e+00
	FillingsUpdate:  mu: +0.302830594  nElectrons: 346.000000
	SubspaceRotationAdjust: set factor to 0.273
ElecMinimize: Iter:   1  F: -1282.824875394265746  |grad|_K:  5.415e-05  alpha:  4.120e-01  linmin:  2.657e-03  t[s]:  10766.60
	FillingsUpdate:  mu: +0.318685659  nElectrons: 346.000000
	SubspaceRotationAdjust: set factor to 0.238
ElecMinimize: Iter:   2  F: -1282.869406746778623  |grad|_K:  3.275e-05  alpha:  2.755e-01  linmin:  5.329e-05  t[s]:  10920.65
	FillingsUpdate:  mu: +0.332118941  nElectrons: 346.000000
	SubspaceRotationAdjust: set factor to 0.301
ElecMinimize: Iter:   3  F: -1282.905262104015492  |grad|_K:  2.648e-05  alpha:  5.678e-01  linmin:  5.848e-04  t[s]:  11072.58
	FillingsUpdate:  mu: +0.327817280  nElectrons: 346.000000
	SubspaceRotationAdjust: set factor to 0.343
ElecMinimize: Iter:   4  F: -1282.924648210205078  |grad|_K:  1.965e-05  alpha:  4.750e-01  linmin:  9.388e-05  t[s]:  11226.75
	FillingsUpdate:  mu: +0.331462527  nElectrons: 346.000000
	SubspaceRotationAdjust: set factor to 0.334
ElecMinimize: Iter:   5  F: -1282.934540628655668  |grad|_K:  1.148e-05  alpha:  4.309e-01  linmin: -1.435e-04  t[s]:  11379.99
	FillingsUpdate:  mu: +0.331604224  nElectrons: 346.000000
	SubspaceRotationAdjust: set factor to 0.318
ElecMinimize: Iter:   6  F: -1282.937176172568570  |grad|_K:  7.440e-06  alpha:  3.306e-01  linmin:  4.215e-05  t[s]:  11534.48
	FillingsUpdate:  mu: +0.332249988  nElectrons: 346.000000
	SubspaceRotationAdjust: set factor to 0.304
ElecMinimize: Iter:   7  F: -1282.938367575681241  |grad|_K:  4.527e-06  alpha:  3.600e-01  linmin: -9.065e-05  t[s]:  11685.93
	FillingsUpdate:  mu: +0.331567344  nElectrons: 346.000000
	SubspaceRotationAdjust: set factor to 0.303
ElecMinimize: Iter:   8  F: -1282.938853679895601  |grad|_K:  2.977e-06  alpha:  3.948e-01  linmin: -9.186e-06  t[s]:  11839.42
	FillingsUpdate:  mu: +0.332029302  nElectrons: 346.000000
	SubspaceRotationAdjust: set factor to 0.351
ElecMinimize: Iter:   9  F: -1282.939063624650998  |grad|_K:  1.853e-06  alpha:  3.957e-01  linmin:  2.024e-05  t[s]:  11993.95
	FillingsUpdate:  mu: +0.332242752  nElectrons: 346.000000
	SubspaceRotationAdjust: set factor to 0.358
ElecMinimize: Iter:  10  F: -1282.939148919231457  |grad|_K:  1.262e-06  alpha:  4.152e-01  linmin:  1.420e-06  t[s]:  12146.80
	FillingsUpdate:  mu: +0.331895010  nElectrons: 346.000000
	SubspaceRotationAdjust: set factor to 0.321
ElecMinimize: Iter:  11  F: -1282.939181821448528  |grad|_K:  8.897e-07  alpha:  3.452e-01  linmin:  7.901e-06  t[s]:  12300.27
	FillingsUpdate:  mu: +0.332050579  nElectrons: 346.000000
	SubspaceRotationAdjust: set factor to 0.344
ElecMinimize: Iter:  12  F: -1282.939199060813735  |grad|_K:  5.703e-07  alpha:  3.639e-01  linmin:  2.683e-06  t[s]:  12452.46
	FillingsUpdate:  mu: +0.332129079  nElectrons: 346.000000
	SubspaceRotationAdjust: set factor to 0.39
ElecMinimize: Iter:  13  F: -1282.939207352063477  |grad|_K:  3.659e-07  alpha:  4.259e-01  linmin:  1.513e-06  t[s]:  12606.27
	FillingsUpdate:  mu: +0.332022427  nElectrons: 346.000000
	SubspaceRotationAdjust: set factor to 0.377
ElecMinimize: Iter:  14  F: -1282.939210841117301  |grad|_K:  2.511e-07  alpha:  4.354e-01  linmin: -1.049e-06  t[s]:  12757.21
	FillingsUpdate:  mu: +0.332070895  nElectrons: 346.000000
	SubspaceRotationAdjust: set factor to 0.324
ElecMinimize: Iter:  15  F: -1282.939212046950615  |grad|_K:  1.731e-07  alpha:  3.195e-01  linmin: -2.285e-07  t[s]:  12910.87
	FillingsUpdate:  mu: +0.332070184  nElectrons: 346.000000
	SubspaceRotationAdjust: set factor to 0.288
ElecMinimize: Iter:  16  F: -1282.939212625464279  |grad|_K:  1.011e-07  alpha:  3.225e-01  linmin:  9.258e-07  t[s]:  13063.12
	FillingsUpdate:  mu: +0.332066848  nElectrons: 346.000000
	SubspaceRotationAdjust: set factor to 0.347
ElecMinimize: Iter:  17  F: -1282.939212869362791  |grad|_K:  6.089e-08  alpha:  3.990e-01  linmin:  4.099e-07  t[s]:  13214.52
	FillingsUpdate:  mu: +0.332064326  nElectrons: 346.000000
	SubspaceRotationAdjust: set factor to 0.402
ElecMinimize: Iter:  18  F: -1282.939212950923775  |grad|_K:  4.278e-08  alpha:  3.675e-01  linmin: -2.371e-07  t[s]:  13367.36
	FillingsUpdate:  mu: +0.332062288  nElectrons: 346.000000
	SubspaceRotationAdjust: set factor to 0.439
ElecMinimize: Iter:  19  F: -1282.939212994668651  |grad|_K:  3.348e-08  alpha:  3.993e-01  linmin:  1.539e-06  t[s]:  13519.26
	FillingsUpdate:  mu: +0.332068514  nElectrons: 346.000000
	SubspaceRotationAdjust: set factor to 0.398
ElecMinimize: Iter:  20  F: -1282.939213016612257  |grad|_K:  2.306e-08  alpha:  3.271e-01  linmin:  9.699e-08  t[s]:  13669.90
	FillingsUpdate:  mu: +0.332063927  nElectrons: 346.000000
	SubspaceRotationAdjust: set factor to 0.363
ElecMinimize: Iter:  21  F: -1282.939213027404094  |grad|_K:  1.457e-08  alpha:  3.396e-01  linmin: -1.313e-07  t[s]:  13826.15
	FillingsUpdate:  mu: +0.332064899  nElectrons: 346.000000
	SubspaceRotationAdjust: set factor to 0.406
ElecMinimize: Iter:  22  F: -1282.939213031785584  |grad|_K:  8.427e-09  alpha:  3.462e-01  linmin:  3.434e-06  t[s]:  13980.56
	FillingsUpdate:  mu: +0.332065882  nElectrons: 346.000000
	SubspaceRotationAdjust: set factor to 0.404
ElecMinimize: Iter:  23  F: -1282.939213033190981  |grad|_K:  4.746e-09  alpha:  3.262e-01  linmin:  1.669e-06  t[s]:  14131.86
ElecMinimize: Converged (|Delta F|<1.000000e-08 for 2 iters).
Setting wave functions to eigenvectors of Hamiltonian

# Ionic positions in cartesian coordinates:
ion Ti   4.083978526722785  11.650602631415543  13.264193933230857 1
ion Ti   6.938214029776085   7.065233988658363   4.386547910764616 1
ion Ti   4.050752252396993  21.209973377545079  13.299897812393974 1
ion Ti   6.955746897263920  16.586769847267213   4.372758660893045 1
ion W   1.825638211935954   7.124121452841596   8.757152792670553 1
ion W   1.810470438256342   7.030568481618658   0.067223965038094 1
ion W   9.156913220653093  11.611887467649622   8.853310614844961 1
ion W   9.193731563872372  11.703945054371520  17.569342322859150 1
ion W   1.831138751615398  16.429365474737263   8.922737982018884 1
ion W   1.808076385351767  16.567423946448709   0.056433773412183 1
ion W   9.125864651857629  21.228015624987947   8.936250935289303 1
ion W   9.201306137675935  21.238801955938104  17.578736721515906 1
ion O   3.705022997705774  14.716796141335726  15.199406508084037 1
ion O   3.706662938173258   8.609088678183806  11.246724203414825 1
ion O   7.301666330135520   4.015238608086907   2.431525005950661 1
ion O   7.297167856914085  10.121637657782255   6.391899720195194 1
ion O   9.763581759110656   5.311013617288872   6.944035789685342 1
ion O   9.748192896589865   8.778230093431077   1.869851260718505 1
ion O   1.249495835985046  13.414867770695892  10.680208520273577 1
ion O   1.258798332863576   9.951181628335755  15.767170623724303 1
ion O   6.647054633208375  10.536569967642421  15.510781302911949 1
ion O   6.648681599989491  12.791962168733804  10.935218789682196 1
ion O   4.359558476365670   8.191840345549469   2.123870689541173 1
ion O   4.358024024843354   5.933721239917343   6.697923641351522 1
ion O   9.811070154901843  14.556194809252595  15.704322150505485 1
ion O   1.199905875275477   4.170355198300124   1.936721604365698 1
ion O   9.810221816583176   8.777296524274208  10.748560703077928 1
ion O   1.197533820644599   9.967026506783300   6.886293249982200 1
ion O   3.710265223759226  24.246487428162411  15.196946512120149 1
ion O   3.692775500160987  18.180465262918158  11.172570501040138 1
ion O   7.297019747166716  13.554994152323090   2.433299605082739 1
ion O   7.370963135037537  19.674360926449605   6.395511899379820 1
ion O   9.753230861294217  14.913947182304689   6.937287434031970 1
ion O   9.756012813317975  18.318119623444474   1.886924090146520 1
ion O   1.249148643713142  22.876733469933598  10.641137605496064 1
ion O   1.263972167217688  19.488715343702069  15.760627053614988 1
ion O   6.646582342926554  20.073508116296729  15.507278389689178 1
ion O   6.662220331273890  22.325969897889088  10.936609173551487 1
ion O   4.355782973121371  17.734090324520331   2.124690633859782 1
ion O   4.305114782424477  15.549511759228590   6.685354983052585 1
ion O   9.810650234904019  24.093640953816244  15.704058900247889 1
ion O   1.196917789136275  13.710604097514580   1.930759608780482 1
ion O   9.862859037877907  18.313448202423146  10.701567421510076 1

# Forces in Cartesian coordinates:
force Ti  -0.000616118277538  -0.004536918724369   0.009792535898275 1
force Ti   0.004782185466530  -0.002981544256568  -0.004641304827477 1
force Ti  -0.012473747157961  -0.003342912752862   0.011117208198705 1
force Ti   0.007715229671814   0.000836065672194  -0.004269670978415 1
force W   0.001431522549150  -0.002076267742806  -0.002325476053846 1
force W  -0.000071533917178   0.000790313503767   0.003092740566146 1
force W  -0.007661926625002  -0.001470488628882  -0.004889723627121 1
force W   0.001675603141649  -0.002089454562393   0.000343237062116 1
force W  -0.002667863727446  -0.020934775509792   0.009227717104364 1
force W  -0.000611237015025   0.003481438851821   0.002865367503156 1
force W  -0.007317654636012   0.017188725242379   0.006174423519396 1
force W   0.001240087692690  -0.002125705872722  -0.000297633605479 1
force O  -0.000798879862985  -0.000406248813617  -0.002163197471344 1
force O   0.000740826240364   0.001075716443231   0.001486772787725 1
force O   0.000188227496899   0.000578606902522   0.000373190138027 1
force O  -0.003624106859309  -0.001308557787757  -0.002788976057055 1
force O   0.000737730748233  -0.004389112053223   0.000135705528538 1
force O  -0.000292845401890  -0.000183515064627  -0.001048044399826 1
force O   0.003856147820602  -0.008614095106056   0.007294154621528 1
force O   0.000273298529738   0.000687631201026   0.000258835701002 1
force O  -0.002266270373168  -0.001256264247121  -0.002703738292766 1
force O  -0.003469674792797   0.001482203634701   0.001598268436948 1
force O   0.001881797101708   0.000342274993467   0.001860222561882 1
force O   0.002573450046084  -0.000397580039873  -0.001907192837416 1
force O  -0.000753630540997  -0.001211030932476  -0.002393204152423 1
force O   0.000974891023453   0.001493475802589   0.001445308215742 1
force O  -0.001020096131660   0.003274688159826   0.000802640240096 1
force O   0.000403065409327   0.000553347800704  -0.001745801924587 1
force O   0.000128369073057  -0.000339736730082  -0.001498360446625 1
force O   0.002703363234617   0.009167391542912  -0.002758892266996 1
force O  -0.000733528279496   0.000449856214199   0.001043105957145 1
force O   0.011415896478196  -0.000246276976813  -0.000225453237067 1
force O  -0.000405326087426   0.001782949074027   0.000735330469251 1
force O   0.000300502440422  -0.000140337810388   0.001041357432689 1
force O  -0.000267374847397  -0.005467648785705  -0.007405393874055 1
force O   0.001836868337020   0.001422483231386  -0.001708771954712 1
force O  -0.001355647825874  -0.000301431564129  -0.002733361409901 1
force O  -0.008387754896510   0.006319968705272   0.005821778646231 1
force O   0.001383839400405   0.000388851558928   0.001467549957818 1
force O  -0.005909657048729   0.009256442851666  -0.003364715798978 1
force O  -0.000672917505752  -0.001583053311035  -0.002063204454960 1
force O   0.000226755918061   0.001165768390214   0.000797951572735 1
force O   0.014774346921065   0.003941996932679  -0.015996374504822 1

# Energy components:
   Eewald =     -840.1757340610877236
       EH =      368.4440440131807009
     Eloc =    -1031.0424873423646659
      Enl =      -25.2300426753097327
      Exc =     -313.0723211549843654
 Exc_core =       94.0503127139637627
       KE =      464.1044222487010416
-------------------------------------
     Etot =    -1282.9218062579009256
       TS =        0.0174067752901290
-------------------------------------
        F =    -1282.9392130331909812

IonicMinimize: Iter:   3  F: -1282.939213033190981  |grad|_K:  4.816e-03  alpha:  2.905e-01  linmin: -7.909e-01  t[s]:  14167.61

#--- Lowdin population analysis ---
# oxidation-state Ti +1.747 +1.756 +1.740 +1.747
# oxidation-state W +0.940 +0.948 +0.939 +0.946 +0.828 +0.943 +0.899 +0.946
# oxidation-state O -0.440 -0.430 -0.432 -0.414 -0.528 -0.530 -0.421 -0.532 -0.416 -0.428 -0.420 -0.436 -0.337 -0.343 -0.338 -0.337 -0.429 -0.408 -0.427 -0.442 -0.536 -0.543 -0.539 -0.533 -0.427 -0.365 -0.433 -0.419 -0.337 -0.334 -0.323


-------- Electronic minimization -----------
	FillingsUpdate:  mu: +0.328048895  nElectrons: 346.000000
ElecMinimize: Iter:   0  F: -1282.388999142939156  |grad|_K:  1.322e-04  alpha:  1.000e+00
	FillingsUpdate:  mu: +0.289712641  nElectrons: 346.000000
	SubspaceRotationAdjust: set factor to 0.283
ElecMinimize: Iter:   1  F: -1282.799493580611170  |grad|_K:  7.276e-05  alpha:  4.142e-01  linmin:  3.454e-03  t[s]:  14446.08
	FillingsUpdate:  mu: +0.311105754  nElectrons: 346.000000
	SubspaceRotationAdjust: set factor to 0.208
ElecMinimize: Iter:   2  F: -1282.858975481340622  |grad|_K:  4.191e-05  alpha:  2.216e-01  linmin:  2.432e-03  t[s]:  14596.92
	FillingsUpdate:  mu: +0.326296632  nElectrons: 346.000000
	SubspaceRotationAdjust: set factor to 0.288
ElecMinimize: Iter:   3  F: -1282.901180841789710  |grad|_K:  3.067e-05  alpha:  4.257e-01  linmin: -2.839e-04  t[s]:  14749.15
	FillingsUpdate:  mu: +0.330795581  nElectrons: 346.000000
	SubspaceRotationAdjust: set factor to 0.319
ElecMinimize: Iter:   4  F: -1282.925293656219083  |grad|_K:  2.232e-05  alpha:  4.233e-01  linmin:  1.514e-04  t[s]:  14902.68
	FillingsUpdate:  mu: +0.330198797  nElectrons: 346.000000
	SubspaceRotationAdjust: set factor to 0.309
ElecMinimize: Iter:   5  F: -1282.937056948366035  |grad|_K:  1.887e-05  alpha:  3.973e-01  linmin: -1.477e-04  t[s]:  15055.27
	FillingsUpdate:  mu: +0.334129576  nElectrons: 346.000000
	SubspaceRotationAdjust: set factor to 0.33
ElecMinimize: Iter:   6  F: -1282.943281017352774  |grad|_K:  1.018e-05  alpha:  2.899e-01  linmin: -8.472e-06  t[s]:  15210.22
	FillingsUpdate:  mu: +0.335693268  nElectrons: 346.000000
	SubspaceRotationAdjust: set factor to 0.385
ElecMinimize: Iter:   7  F: -1282.945764295211575  |grad|_K:  6.814e-06  alpha:  4.003e-01  linmin:  3.401e-05  t[s]:  15366.46
	FillingsUpdate:  mu: +0.335276807  nElectrons: 346.000000
	SubspaceRotationAdjust: set factor to 0.358
ElecMinimize: Iter:   8  F: -1282.946629632548365  |grad|_K:  4.890e-06  alpha:  3.123e-01  linmin: -2.595e-05  t[s]:  15521.76
	FillingsUpdate:  mu: +0.334517429  nElectrons: 346.000000
	SubspaceRotationAdjust: set factor to 0.304
ElecMinimize: Iter:   9  F: -1282.947022195494355  |grad|_K:  3.185e-06  alpha:  2.738e-01  linmin:  2.728e-05  t[s]:  15675.54
	FillingsUpdate:  mu: +0.335282068  nElectrons: 346.000000
	SubspaceRotationAdjust: set factor to 0.362
ElecMinimize: Iter:  10  F: -1282.947252848696507  |grad|_K:  1.964e-06  alpha:  3.803e-01  linmin:  2.262e-05  t[s]:  15828.34
	FillingsUpdate:  mu: +0.335456172  nElectrons: 346.000000
	SubspaceRotationAdjust: set factor to 0.376
ElecMinimize: Iter:  11  F: -1282.947342910642192  |grad|_K:  1.429e-06  alpha:  3.906e-01  linmin:  1.525e-05  t[s]:  15983.13
	FillingsUpdate:  mu: +0.335136943  nElectrons: 346.000000
	SubspaceRotationAdjust: set factor to 0.315
ElecMinimize: Iter:  12  F: -1282.947376830433313  |grad|_K:  9.641e-07  alpha:  2.774e-01  linmin:  1.973e-06  t[s]:  16135.39
	FillingsUpdate:  mu: +0.335169451  nElectrons: 346.000000
	SubspaceRotationAdjust: set factor to 0.312
ElecMinimize: Iter:  13  F: -1282.947394710724438  |grad|_K:  6.351e-07  alpha:  3.214e-01  linmin:  5.975e-06  t[s]:  16287.11
	FillingsUpdate:  mu: +0.335274022  nElectrons: 346.000000
	SubspaceRotationAdjust: set factor to 0.381
ElecMinimize: Iter:  14  F: -1282.947403797292509  |grad|_K:  4.126e-07  alpha:  3.764e-01  linmin:  2.447e-06  t[s]:  16443.83
	FillingsUpdate:  mu: +0.335232599  nElectrons: 346.000000
	SubspaceRotationAdjust: set factor to 0.381
ElecMinimize: Iter:  15  F: -1282.947407725165476  |grad|_K:  3.083e-07  alpha:  3.854e-01  linmin: -7.050e-09  t[s]:  16598.16
	FillingsUpdate:  mu: +0.335233036  nElectrons: 346.000000
	SubspaceRotationAdjust: set factor to 0.335
ElecMinimize: Iter:  16  F: -1282.947409352420436  |grad|_K:  2.088e-07  alpha:  2.859e-01  linmin: -2.823e-07  t[s]:  16754.21
	FillingsUpdate:  mu: +0.335223133  nElectrons: 346.000000
	SubspaceRotationAdjust: set factor to 0.325
ElecMinimize: Iter:  17  F: -1282.947410180016504  |grad|_K:  1.318e-07  alpha:  3.171e-01  linmin: -3.863e-07  t[s]:  16907.93
	FillingsUpdate:  mu: +0.335242502  nElectrons: 346.000000
	SubspaceRotationAdjust: set factor to 0.39
ElecMinimize: Iter:  18  F: -1282.947410545716366  |grad|_K:  8.028e-08  alpha:  3.519e-01  linmin:  1.646e-06  t[s]:  17061.09
	FillingsUpdate:  mu: +0.335239955  nElectrons: 346.000000
	SubspaceRotationAdjust: set factor to 0.446
ElecMinimize: Iter:  19  F: -1282.947410677433481  |grad|_K:  5.593e-08  alpha:  3.415e-01  linmin: -8.731e-07  t[s]:  17213.82
	FillingsUpdate:  mu: +0.335229305  nElectrons: 346.000000
	SubspaceRotationAdjust: set factor to 0.371
ElecMinimize: Iter:  20  F: -1282.947410731786022  |grad|_K:  4.377e-08  alpha:  2.902e-01  linmin:  9.569e-07  t[s]:  17370.47
	FillingsUpdate:  mu: +0.335235452  nElectrons: 346.000000
	SubspaceRotationAdjust: set factor to 0.353
ElecMinimize: Iter:  21  F: -1282.947410766955272  |grad|_K:  2.918e-08  alpha:  3.070e-01  linmin:  1.831e-06  t[s]:  17520.47
	FillingsUpdate:  mu: +0.335237007  nElectrons: 346.000000
	SubspaceRotationAdjust: set factor to 0.437
ElecMinimize: Iter:  22  F: -1282.947410783462828  |grad|_K:  1.701e-08  alpha:  3.239e-01  linmin:  4.308e-06  t[s]:  17671.66
	FillingsUpdate:  mu: +0.335234943  nElectrons: 346.000000
	SubspaceRotationAdjust: set factor to 0.403
ElecMinimize: Iter:  23  F: -1282.947410790201275  |grad|_K:  1.101e-08  alpha:  3.906e-01  linmin:  3.518e-06  t[s]:  17829.28
	FillingsUpdate:  mu: +0.335235652  nElectrons: 346.000000
	SubspaceRotationAdjust: set factor to 0.328
ElecMinimize: Iter:  24  F: -1282.947410792256960  |grad|_K:  7.652e-09  alpha:  2.856e-01  linmin: -2.616e-06  t[s]:  17980.52
ElecMinimize: Converged (|Delta F|<1.000000e-08 for 2 iters).
Setting wave functions to eigenvectors of Hamiltonian

# Ionic positions in cartesian coordinates:
ion Ti   4.081197829081296  11.637846737655352  13.293262609814079 1
ion Ti   6.953012213703569   7.058544562557206   4.371029410392350 1
ion Ti   4.014716953958266  21.203633667252831  13.339723062409915 1
ion Ti   6.980730674704436  16.584438464637433   4.355173885286545 1
ion W   1.839803621164073   7.129384338201906   8.747657408791781 1
ion W   1.817668609009500   7.029147515733620   0.079265780078954 1
ion W   9.124912926536282  11.601564724132055   8.842289523776529 1
ion W   9.189513043445155  11.704339656017197  17.563723707066913 1
ion W   1.837463750045750  16.345365652180462   8.976626980945209 1
ion W   1.813631805048316  16.570236754840966   0.065403804896126 1
ion W   9.087859798552850  21.275852528073028   8.964642665318308 1
ion W   9.197247887104487  21.238371872104011  17.574511461321826 1
ion O   3.697724922293201  14.719815258678628  15.198617795382386 1
ion O   3.702738076434092   8.607106235595946  11.243643765067503 1
ion O   7.307291096280999   4.012971455466444   2.427290901947616 1
ion O   7.292826013252293  10.122350268162624   6.391224424200720 1
ion O   9.769110722766840   5.290485215232993   6.946928561188880 1
ion O   9.748269419174441   8.779190593229156   1.863814171784310 1
ion O   1.255168854989842  13.402910247419451  10.692524655990866 1
ion O   1.258525043205381   9.951110224879187  15.771562788500733 1
ion O   6.648797708679984  10.536627534870721  15.508915751809925 1
ion O   6.647593386006119  12.792795129753703  10.933030116702749 1
ion O   4.357239684754897   8.189151693885380   2.123854735350189 1
ion O   4.356690016054293   5.934367268940612   6.698707906474576 1
ion O   9.809091008822955  14.543902229473634  15.704298912297125 1
ion O   1.202952379703170   4.181849139954292   1.935999391915604 1
ion O   9.807482410698386   8.795130065950509  10.744526726830150 1
ion O   1.198855361749527   9.959727080293529   6.888016053890497 1
ion O   3.705794738301213  24.248448209431618  15.197460964513342 1
ion O   3.688723557040930  18.202114167748658  11.142131754438005 1
ion O   7.299810193782073  13.553267688866537   2.430947784520895 1
ion O   7.416952027099471  19.681624487857725   6.402524903365655 1
ion O   9.755120294423532  14.921635528609650   6.940287704241956 1
ion O   9.758857772389009  18.319852817906057   1.889351720930016 1
ion O   1.245409298013864  22.858478838539533  10.610731676784946 1
ion O   1.268387075802641  19.490150100513034  15.759208022691979 1
ion O   6.649813309440441  20.075783748596816  15.504148905520383 1
ion O   6.651358820872518  22.337449745072185  10.945571734341710 1
ion O   4.351788247838179  17.732843739871708   2.124253604677591 1
ion O   4.273735619823150  15.588324477201059   6.679883707306315 1
ion O   9.808901250199771  24.080895757580336  15.704459365236838 1
ion O   1.197791270952167  13.722668298809744   1.926990182408628 1
ion O   9.907427306800662  18.332573278222444  10.649506009589368 1

# Forces in Cartesian coordinates:
force Ti  -0.000414609665448  -0.005333214240979   0.009741727515562 1
force Ti   0.004198044549898  -0.003569481152931  -0.004750487129479 1
force Ti  -0.013499394963536  -0.005376109625923   0.008458434724934 1
force Ti   0.006634896275247   0.002847375823298  -0.002022850742959 1
force W  -0.000321815261081  -0.004531424183309  -0.000034444493628 1
force W  -0.001800822750367   0.001790140128569   0.000643434741481 1
force W  -0.003957506018468   0.000317138068943  -0.003348415840507 1
force W   0.004379275527962  -0.003458834499206   0.000794577923413 1
force W  -0.009071663758050  -0.006202666699244   0.000824684616368 1
force W  -0.001960657427727   0.004735331615774   0.001521779091120 1
force W  -0.000075870624398   0.016801458285401   0.000668817735855 1
force W   0.002366313119037  -0.003022828831196  -0.000360051719220 1
force O   0.000116380905441  -0.000765569911866  -0.002604567333194 1
force O   0.001910499285465   0.001426965041211   0.002567890437989 1
force O  -0.001318599324302   0.001025248405740   0.001718176999898 1
force O  -0.007001250262133  -0.003254998399814  -0.006388198672470 1
force O  -0.000575000251899  -0.000497362769566  -0.001498973982114 1
force O  -0.000156131883951  -0.000979488252762  -0.000205593188864 1
force O   0.006463250950036  -0.019536420615911   0.014809944085711 1
force O   0.000366696011751   0.001417099758154  -0.000481180645808 1
force O  -0.003319630475646  -0.003000776344305  -0.002881683599156 1
force O  -0.006044659285264   0.002549511126061   0.002947639346436 1
force O   0.004246586445238   0.001590389919940   0.003254576554411 1
force O   0.005440683998583  -0.001100030231262  -0.003871733139959 1
force O  -0.000645962312121   0.001082303743261  -0.004012037663979 1
force O   0.000591413053145  -0.001604755307740   0.003630449565973 1
force O  -0.001407042517726   0.000463242592998   0.001966438588628 1
force O  -0.000214827512622   0.003285365398988  -0.004052927004807 1
force O   0.000763834016887   0.000054236821009  -0.001549887469838 1
force O   0.005262405101773   0.007554741864821   0.001676612284983 1
force O  -0.002117294600266   0.001035083166785   0.002504944662405 1
force O   0.009064173116579  -0.001763383082113  -0.002073140303053 1
force O   0.000796393994916   0.001701253463763   0.001400769856111 1
force O  -0.000320747680167  -0.000933150542928   0.001475063727211 1
force O   0.000319597635478  -0.004094844517991  -0.005042348828262 1
force O   0.002225304957211   0.002214798526595  -0.002792518308083 1
force O  -0.002951511339117  -0.001195559722140  -0.003251600093747 1
force O  -0.016008614405586   0.009625973956091   0.011497732776741 1
force O   0.004062985278350   0.001520983945593   0.002700075193016 1
force O  -0.002975564345782   0.006874282630368  -0.004590070825617 1
force O  -0.000436882014718   0.000767979170653  -0.003700993140646 1
force O  -0.000197220360177  -0.001876917421638   0.003006979811662 1
force O   0.016984860964086   0.001841278370249  -0.018604728682809 1

# Energy components:
   Eewald =     -838.5678340050951647
       EH =      370.1766757733469717
     Eloc =    -1034.5747019717589410
      Enl =      -25.2077765562994642
      Exc =     -313.1674001326184680
 Exc_core =       94.0503745741467299
       KE =      464.3621181046395350
-------------------------------------
     Etot =    -1282.9285442136388156
       TS =        0.0188665786181651
-------------------------------------
        F =    -1282.9474107922569601

IonicMinimize: Iter:   4  F: -1282.947410792256960  |grad|_K:  5.267e-03  alpha:  2.843e-01  linmin: -5.711e-01  t[s]:  18017.32

#--- Lowdin population analysis ---
# oxidation-state Ti +1.738 +1.749 +1.734 +1.741
# oxidation-state W +0.937 +0.943 +0.932 +0.942 +0.867 +0.937 +0.921 +0.940
# oxidation-state O -0.443 -0.430 -0.431 -0.408 -0.525 -0.532 -0.404 -0.534 -0.413 -0.430 -0.417 -0.435 -0.338 -0.341 -0.339 -0.338 -0.431 -0.413 -0.428 -0.447 -0.539 -0.544 -0.542 -0.536 -0.427 -0.355 -0.431 -0.420 -0.337 -0.334 -0.330


-------- Electronic minimization -----------
	FillingsUpdate:  mu: +0.326506197  nElectrons: 346.000000
ElecMinimize: Iter:   0  F: -1282.240568876419047  |grad|_K:  1.455e-04  alpha:  1.000e+00
	FillingsUpdate:  mu: +0.303192510  nElectrons: 346.000000
	SubspaceRotationAdjust: set factor to 0.29
ElecMinimize: Iter:   1  F: -1282.766116274271553  |grad|_K:  6.760e-05  alpha:  4.284e-01  linmin:  2.235e-03  t[s]:  18294.21
	FillingsUpdate:  mu: +0.308885956  nElectrons: 346.000000
	SubspaceRotationAdjust: set factor to 0.247
ElecMinimize: Iter:   2  F: -1282.836876604834970  |grad|_K:  4.685e-05  alpha:  2.777e-01  linmin:  5.811e-04  t[s]:  18446.23
	FillingsUpdate:  mu: +0.320938051  nElectrons: 346.000000
	SubspaceRotationAdjust: set factor to 0.288
ElecMinimize: Iter:   3  F: -1282.889762338379569  |grad|_K:  3.639e-05  alpha:  4.064e-01  linmin: -2.155e-04  t[s]:  18597.86
	FillingsUpdate:  mu: +0.333819980  nElectrons: 346.000000
[...]

#--- Lowdin population analysis ---
# oxidation-state Ti +1.735 +1.740 +1.721 +1.726
# oxidation-state W +0.933 +0.924 +0.922 +0.926 +0.957 +0.920 +0.971 +0.919
# oxidation-state O -0.433 -0.414 -0.429 -0.405 -0.497 -0.539 -0.440 -0.536 -0.414 -0.442 -0.412 -0.441 -0.333 -0.338 -0.351 -0.345 -0.430 -0.436 -0.424 -0.449 -0.527 -0.545 -0.514 -0.547 -0.420 -0.388 -0.420 -0.420 -0.331 -0.326 -0.340


-------- Electronic minimization -----------
	FillingsUpdate:  mu: +0.339944961  nElectrons: 346.000000
ElecMinimize: Iter:   0  F: -1282.980946800874563  |grad|_K:  5.858e-07  alpha:  1.000e+00
	FillingsUpdate:  mu: +0.339894067  nElectrons: 346.000000
	SubspaceRotationAdjust: set factor to 0.227
ElecMinimize: Iter:   1  F: -1282.980955662460474  |grad|_K:  4.237e-07  alpha:  4.314e-01  linmin:  4.265e-06  t[s]:  88310.55
	FillingsUpdate:  mu: +0.339947638  nElectrons: 346.000000
	SubspaceRotationAdjust: set factor to 0.2
ElecMinimize: Iter:   2  F: -1282.980958089663318  |grad|_K:  2.502e-07  alpha:  2.258e-01  linmin:  5.115e-07  t[s]:  88464.07
	FillingsUpdate:  mu: +0.339940584  nElectrons: 346.000000
	SubspaceRotationAdjust: set factor to 0.284
ElecMinimize: Iter:   3  F: -1282.980960426155889  |grad|_K:  2.163e-07  alpha:  6.233e-01  linmin:  7.170e-07  t[s]:  88617.11
	FillingsUpdate:  mu: +0.339918990  nElectrons: 346.000000
	SubspaceRotationAdjust: set factor to 0.286
ElecMinimize: Iter:   4  F: -1282.980962138755785  |grad|_K:  1.832e-07  alpha:  6.113e-01  linmin: -9.617e-07  t[s]:  88766.79
	FillingsUpdate:  mu: +0.339941411  nElectrons: 346.000000
	SubspaceRotationAdjust: set factor to 0.233
ElecMinimize: Iter:   5  F: -1282.980962900508757  |grad|_K:  1.471e-07  alpha:  3.793e-01  linmin: -1.375e-07  t[s]:  88919.19
	FillingsUpdate:  mu: +0.339932283  nElectrons: 346.000000
	SubspaceRotationAdjust: set factor to 0.215
ElecMinimize: Iter:   6  F: -1282.980963327453765  |grad|_K:  8.182e-08  alpha:  3.297e-01  linmin: -7.615e-07  t[s]:  89072.40
	FillingsUpdate:  mu: +0.339933142  nElectrons: 346.000000
	SubspaceRotationAdjust: set factor to 0.215
ElecMinimize: Iter:   7  F: -1282.980963484721315  |grad|_K:  4.960e-08  alpha:  3.924e-01  linmin:  6.230e-06  t[s]:  89227.01
	FillingsUpdate:  mu: +0.339934163  nElectrons: 346.000000
	SubspaceRotationAdjust: set factor to 0.213
ElecMinimize: Iter:   8  F: -1282.980963540844641  |grad|_K:  2.789e-08  alpha:  3.810e-01  linmin: -1.260e-05  t[s]:  89380.47
	FillingsUpdate:  mu: +0.339932643  nElectrons: 346.000000
	SubspaceRotationAdjust: set factor to 0.21
ElecMinimize: Iter:   9  F: -1282.980963557921996  |grad|_K:  1.805e-08  alpha:  3.661e-01  linmin: -4.902e-05  t[s]:  89533.51
	FillingsUpdate:  mu: +0.339934154  nElectrons: 346.000000
	SubspaceRotationAdjust: set factor to 0.198
ElecMinimize: Iter:  10  F: -1282.980963565402817  |grad|_K:  1.123e-08  alpha:  3.821e-01  linmin: -7.937e-05  t[s]:  89687.66
	FillingsUpdate:  mu: +0.339933657  nElectrons: 346.000000
	SubspaceRotationAdjust: set factor to 0.221
ElecMinimize: Iter:  11  F: -1282.980963568599009  |grad|_K:  7.700e-09  alpha:  4.233e-01  linmin: -5.758e-05  t[s]:  89843.52
ElecMinimize: Converged (|Delta F|<1.000000e-08 for 2 iters).
Setting wave functions to eigenvectors of Hamiltonian

# Ionic positions in cartesian coordinates:
ion Ti   4.050157137092222  11.440412222759036  13.470926098168331 1
ion Ti   7.046060150379524   7.104298881054685   4.188409016643008 1
ion Ti   3.816164410501636  21.047957993699978  13.471048728768187 1
ion Ti   7.117876956514507  16.756419325881048   4.356856144392488 1
ion W   1.958618383577108   7.182430382113093   8.660652961624479 1
ion W   1.830145036691857   6.991442635400703   0.093405819838796 1
ion W   8.979978967258930  11.532135035141138   8.855357587320349 1
ion W   9.231433881783637  11.661111485600198  17.536289170479840 1
ion W   1.869427344238352  16.141157490862113   9.170509411057104 1
ion W   1.872630157522575  16.509561236667516   0.177964301753824 1
ion W   8.943025251512259  21.683101313691147   8.863480459287127 1
ion W   9.100971879359484  21.271481651126368  17.608564736484357 1
ion O   3.747492222231823  14.615015413710372  15.311292229545320 1
ion O   3.788435452621949   8.539085099978424  11.217420705340686 1
ion O   7.276164800330393   4.009899917227282   2.323611334039921 1
ion O   7.143845369668568  10.139027962111310   6.361799075844617 1
ion O   9.687357205257179   5.473565747412080   6.779005666076746 1
ion O   9.696902551818681   8.745685998364186   1.838990507741739 1
ion O   1.354976696899493  13.180711796293281  10.936312421312705 1
ion O   1.315204687168306   9.912538518215781  15.826493590654350 1
ion O   6.717575570979771  10.337242861593012  15.532723240530899 1
ion O   6.562631635788275  12.755531779997686  10.994115313962492 1
ion O   4.344534224991007   8.265088849113294   2.086865564964897 1
ion O   4.404054298200548   5.921066041435733   6.583885522497130 1
ion O   9.834070718005663  14.468161902234842  15.638148767206008 1
ion O   1.178831449464539   4.195080786072737   2.004639676527198 1
ion O   9.786425016150737   8.731542683754668  10.694150955054793 1
ion O   1.181043953705524  10.021295063590429   6.871930864636964 1
ion O   3.647330792920591  24.218617162966485  15.240513801993021 1
ion O   3.785942484206024  18.028269941753205  11.333909573310553 1
ion O   7.301785248292314  13.591490557615957   2.505027325672882 1
ion O   7.487395531086360  19.861444982466125   6.303527914709097 1
ion O   9.803404407316966  14.807605571926075   7.104292331190696 1
ion O   9.829171144022439  18.300461167097371   1.981788008746545 1
ion O   1.132898239434030  23.004150071957824  10.465084162201872 1
ion O   1.190285524688354  19.455821063750189  15.714006092938506 1
ion O   6.534766796951425  20.079641432782537  15.570105713554629 1
ion O   6.479889272418473  22.395831716996145  11.016405258100329 1
ion O   4.462114549529535  17.745483022775062   2.128321299870413 1
ion O   4.158438723771805  15.870982880565684   6.677910074272234 1
ion O   9.781799005876472  24.069047743989508  15.736736637870504 1
ion O   1.203599166145872  13.667798083564582   1.995944822711113 1
ion O  10.343129703624813  18.615631524691075   9.925302111103253 1

# Forces in Cartesian coordinates:
force Ti   0.000202330004827   0.000086976301855   0.000158986160736 1
force Ti  -0.000203534953828  -0.000050974075145  -0.000056966832423 1
force Ti   0.000254117811584  -0.000283799641319   0.000136930165057 1
force Ti   0.000146715213426   0.000101987794162  -0.000042745054814 1
force W  -0.000071716834025   0.000031452442071  -0.000040048429717 1
force W  -0.000142003981853   0.000020499942047   0.000078678053436 1
force W  -0.000022841015867   0.000134080542081  -0.000074749395851 1
force W   0.000116843411520  -0.000019796445158   0.000020600956552 1
force W   0.000076179843946   0.000133711318077  -0.000062387856360 1
force W   0.000053878603226  -0.000097243936645  -0.000036330047234 1
force W   0.000201246172857  -0.000138277761463  -0.000284469633171 1
force W   0.000231270664555  -0.000029901610016  -0.000063722668455 1
force O  -0.000099348976425   0.000214837970419   0.000102210710581 1
force O  -0.000039169088032  -0.000109096208009  -0.000059576625091 1
force O   0.000015819319570  -0.000169119893985  -0.000032170341059 1
force O  -0.000145195769854   0.000042837301809   0.000320653593014 1
force O   0.000065033822859   0.000039822670740  -0.000154758158469 1
force O   0.000191723277223   0.000081738411969   0.000209625106635 1
force O  -0.000016241594831   0.000164424308643   0.000161244256298 1
force O  -0.000078704860636   0.000062650959246  -0.000097153277479 1
force O  -0.000039206924918   0.000123928612684  -0.000002038483441 1
force O   0.000055318061164  -0.000017210303003   0.000004018429771 1
force O   0.000142935803536  -0.000075562234991   0.000076777093222 1
force O  -0.000203423179031   0.000003598627930   0.000071716010783 1
force O   0.000182128737304  -0.000167946025961   0.000098516794899 1
force O   0.000034008717666  -0.000029690631992   0.000006688416545 1
force O   0.000074468669270  -0.000121081165349  -0.000068793456349 1
force O  -0.000153425906562  -0.000043223691505  -0.000165485980370 1
force O   0.000119294905560  -0.000008854158697   0.000056396671595 1
force O   0.000097747451124  -0.000086877315525  -0.000143525802851 1
force O   0.000147001845617   0.000028402353101  -0.000270884665134 1
force O  -0.000093815411895  -0.000019671445209   0.000156550285688 1
force O   0.000081825685696   0.000153768543933   0.000016166971908 1
force O  -0.000030147890204   0.000090178714492  -0.000047482641767 1
force O   0.000055112160955  -0.000118226332072   0.000149970820867 1
force O   0.000017916748404  -0.000028742768118  -0.000018499915910 1
force O   0.000095132491500   0.000054778430927  -0.000184832643824 1
force O  -0.000060614796949   0.000030473649966  -0.000021649855375 1
force O  -0.000133895785494   0.000177443286988  -0.000120061701495 1
force O   0.000043162380531  -0.000006082579113  -0.000052196070672 1
force O   0.000053896733692  -0.000077409184990   0.000004780732838 1
force O   0.000028073157085   0.000015304550210   0.000041384306262 1
force O   0.000151308634342   0.000212875309977   0.000012784273799 1

# Energy components:
   Eewald =     -836.3294565065790493
       EH =      372.6366924673188805
     Eloc =    -1039.4049970609344200
      Enl =      -25.1626537984177219
      Exc =     -313.2268278484377788
 Exc_core =       94.0504098411459495
       KE =      464.4752335296959700
-------------------------------------
     Etot =    -1282.9615993762081416
       TS =        0.0193641923907881
-------------------------------------
        F =    -1282.9809635685990088

IonicMinimize: Iter:  27  F: -1282.980963568599009  |grad|_K:  1.158e-04  alpha:  1.000e+00  linmin: -3.609e-01  t[s]:  89879.91

#--- Lowdin population analysis ---
# oxidation-state Ti +1.735 +1.740 +1.721 +1.726
# oxidation-state W +0.933 +0.924 +0.922 +0.926 +0.957 +0.920 +0.972 +0.919
# oxidation-state O -0.433 -0.414 -0.429 -0.405 -0.497 -0.540 -0.440 -0.536 -0.414 -0.443 -0.413 -0.442 -0.333 -0.337 -0.350 -0.344 -0.430 -0.435 -0.424 -0.449 -0.528 -0.546 -0.515 -0.547 -0.420 -0.388 -0.420 -0.421 -0.331 -0.326 -0.340


-------- Electronic minimization -----------
	FillingsUpdate:  mu: +0.339926892  nElectrons: 346.000000
ElecMinimize: Iter:   0  F: -1282.980962558289775  |grad|_K:  2.698e-07  alpha:  1.000e+00
	FillingsUpdate:  mu: +0.339927885  nElectrons: 346.000000
	SubspaceRotationAdjust: set factor to 0.2
ElecMinimize: Iter:   1  F: -1282.980964858145171  |grad|_K:  1.501e-07  alpha:  5.279e-01  linmin:  1.124e-06  t[s]:  90167.68
	FillingsUpdate:  mu: +0.339932128  nElectrons: 346.000000
	SubspaceRotationAdjust: set factor to 0.212
ElecMinimize: Iter:   2  F: -1282.980965461725418  |grad|_K:  1.322e-07  alpha:  4.473e-01  linmin:  2.711e-06  t[s]:  90318.15
	FillingsUpdate:  mu: +0.339925957  nElectrons: 346.000000
	SubspaceRotationAdjust: set factor to 0.255
ElecMinimize: Iter:   3  F: -1282.980966185898069  |grad|_K:  1.262e-07  alpha:  6.918e-01  linmin: -4.870e-07  t[s]:  90472.60
	FillingsUpdate:  mu: +0.339932509  nElectrons: 346.000000
	SubspaceRotationAdjust: set factor to 0.266
ElecMinimize: Iter:   4  F: -1282.980966763715969  |grad|_K:  9.573e-08  alpha:  6.059e-01  linmin:  1.252e-06  t[s]:  90626.00
	FillingsUpdate:  mu: +0.339923235  nElectrons: 346.000000
	SubspaceRotationAdjust: set factor to 0.237
ElecMinimize: Iter:   5  F: -1282.980967001744602  |grad|_K:  7.122e-08  alpha:  4.339e-01  linmin:  7.434e-07  t[s]:  90779.80
	FillingsUpdate:  mu: +0.339930793  nElectrons: 346.000000
	SubspaceRotationAdjust: set factor to 0.168
ElecMinimize: Iter:   6  F: -1282.980967099924783  |grad|_K:  3.775e-08  alpha:  3.233e-01  linmin:  2.961e-06  t[s]:  90934.58
	FillingsUpdate:  mu: +0.339928697  nElectrons: 346.000000
	SubspaceRotationAdjust: set factor to 0.147
ElecMinimize: Iter:   7  F: -1282.980967135594938  |grad|_K:  2.097e-08  alpha:  4.185e-01  linmin:  2.771e-05  t[s]:  91086.92
	FillingsUpdate:  mu: +0.339928412  nElectrons: 346.000000
	SubspaceRotationAdjust: set factor to 0.165
ElecMinimize: Iter:   8  F: -1282.980967145479099  |grad|_K:  1.197e-08  alpha:  3.762e-01  linmin:  1.534e-05  t[s]:  91240.13
	FillingsUpdate:  mu: +0.339929192  nElectrons: 346.000000
	SubspaceRotationAdjust: set factor to 0.173
ElecMinimize: Iter:   9  F: -1282.980967149335584  |grad|_K:  6.428e-09  alpha:  4.470e-01  linmin: -6.938e-05  t[s]:  91391.35
ElecMinimize: Converged (|Delta F|<1.000000e-08 for 2 iters).
Setting wave functions to eigenvectors of Hamiltonian

# Ionic positions in cartesian coordinates:
ion Ti   4.050421896456152  11.440602590658290  13.471405700012369 1
ion Ti   7.045637216711567   7.103882794658288   4.188473037461613 1
ion Ti   3.816296700017639  21.047064789166100  13.470427189130611 1
ion Ti   7.118170092007803  16.757098470121168   4.356352278008723 1
ion W   1.958088227094279   7.182670219103967   8.660311279652513 1
ion W   1.829604075456880   6.991506548805273   0.094004979111669 1
ion W   8.980303186177318  11.532314331265376   8.855258141975726 1
ion W   9.231981275450799  11.661190176498780  17.535884129251102 1
ion W   1.869120789300420  16.141525103823298   9.170359059698466 1
ion W   1.872791069912291  16.509022283682281   0.178140654035575 1
ion W   8.943606981756421  21.682565811061561   8.863368458673650 1
ion W   9.101146524053338  21.271252934328757  17.608023052387480 1
ion O   3.747053517274170  14.616024588798140  15.311415655589759 1
ion O   3.788059221182140   8.538277739759746  11.217087560797125 1
ion O   7.276372762703490   4.009058440148273   2.323803388961495 1
ion O   7.143460642453536  10.139233274247761   6.362983753322141 1
ion O   9.688209253332177   5.473108342792230   6.778827284916728 1
ion O   9.697604548719390   8.745775046161512   1.840034596459713 1
ion O   1.354345853244810  13.181362464807496  10.936470698153242 1
ion O   1.314346315926882   9.912818314078860  15.825962626060573 1
ion O   6.717174904375244  10.337844153852238  15.532614634615472 1
ion O   6.562651041290291  12.755536537736745  10.993771030415832 1
ion O   4.345241214575696   8.264712769718871   2.087022925724502 1
ion O   4.403822515068623   5.920986480662686   6.584139723842457 1
ion O   9.834710831509586  14.467693689643738  15.638266391553357 1
ion O   1.178967495946224   4.194794537164062   2.004872136823233 1
ion O   9.786521313399218   8.731236940384571  10.694037047646590 1
ion O   1.180624885089480  10.021154708463047   6.871319254471056 1
ion O   3.647473433829253  24.218947238425407  15.240887068676964 1
ion O   3.786225585303769  18.027757756816222  11.333902195919718 1
ion O   7.302115986275800  13.591709438314867   2.504211826616345 1
ion O   7.487115191089274  19.861311641978606   6.304206854988014 1
ion O   9.803148060460613  14.808900288021817   7.104231698106116 1
ion O   9.828982736445150  18.300735278524456   1.981894137836747 1
ion O   1.133277654787509  23.003489805602449  10.466093838203651 1
ion O   1.189662993400525  19.455601307609605  15.713937789058557 1
ion O   6.534736939910180  20.079833402353788  15.569717462581517 1
ion O   6.479867316897837  22.395377357329547  11.015908918725570 1
ion O   4.461884600562221  17.746460462082332   2.127664234693988 1
ion O   4.158100848074454  15.871510365227421   6.677608760657332 1
ion O   9.782139266960675  24.069065983706054  15.736417697643219 1
ion O   1.203579720731589  13.667415951196785   1.996386147929747 1
ion O  10.343341314785297  18.615896641217482   9.926019699609743 1

# Forces in Cartesian coordinates:
force Ti   0.000127883404932   0.000082762172361   0.000067566440438 1
force Ti  -0.000182481453974  -0.000095398669873  -0.000043617768622 1
force Ti   0.000191317141318  -0.000136769021390   0.000131529122804 1
force Ti   0.000117706008829   0.000019400463871  -0.000061929804430 1
force W  -0.000068102376489  -0.000188533601475   0.000083834449215 1
force W   0.000005381919235   0.000088305158955   0.000139337606243 1
force W  -0.000018279153840   0.000177735722811   0.000078145664170 1
force W   0.000012911740315  -0.000207940156552   0.000162600924331 1
force W   0.000142635555831  -0.000011964893062  -0.000175121498863 1
force W   0.000004449747730  -0.000094766910164  -0.000073463004701 1
force W   0.000130688773005   0.000149777529802  -0.000102569623255 1
force W   0.000239787294313   0.000049596986264  -0.000063641365446 1
force O  -0.000059106069694   0.000103441554824   0.000038646650077 1
force O   0.000013966694022   0.000065386800348   0.000054882401809 1
force O   0.000026004550666  -0.000069024969604   0.000002983759966 1
force O  -0.000207286601931  -0.000056029350959   0.000125166709357 1
force O   0.000016233436194   0.000009924218165  -0.000130047315406 1
force O   0.000142944707911   0.000086851672297   0.000158147302253 1
force O   0.000027502977809   0.000131926026659   0.000146213085095 1
force O   0.000003973829686  -0.000002522386904  -0.000072585465629 1
force O  -0.000011222372972   0.000100769696669   0.000013356032972 1
force O   0.000044881983730  -0.000038745485388   0.000035433767841 1
force O   0.000057328169365  -0.000078841990241   0.000012539029503 1
force O  -0.000145068032158  -0.000000252812459   0.000015597567615 1
force O   0.000139591498176   0.000036641844189  -0.000007682086338 1
force O   0.000040256366961  -0.000032190020463   0.000003415222085 1
force O   0.000037249952946  -0.000039238049109  -0.000102331266095 1
force O  -0.000140894854256   0.000059555931900  -0.000192627808280 1
force O   0.000140256876506  -0.000099213177445   0.000016580907405 1
force O   0.000130656975711  -0.000021444786858  -0.000092977978477 1
force O   0.000104823751261   0.000077860207836  -0.000206248648565 1
force O  -0.000104171252069  -0.000088909549081   0.000045567724808 1
force O   0.000055757982306   0.000064386431190   0.000005879043990 1
force O  -0.000028846137727   0.000036825225168  -0.000044275373248 1
force O   0.000033939069849  -0.000032979746182   0.000050600202883 1
force O   0.000068675732388  -0.000027020383569  -0.000025867679759 1
force O   0.000109149745829   0.000012071098222  -0.000165678424118 1
force O  -0.000008661740308   0.000025115031528  -0.000038936142642 1
force O  -0.000076873469497   0.000156722929496  -0.000036061749312 1
force O   0.000023778279151   0.000004288855607  -0.000038850055652 1
force O   0.000034211195670  -0.000132024613639   0.000060742997442 1
force O   0.000061574516186   0.000100541098454  -0.000020985294131 1
force O   0.000139818255265   0.000128398642494   0.000057071460312 1

# Energy components:
   Eewald =     -836.3411546263381524
       EH =      372.6244898298411954
     Eloc =    -1039.3807981159868632
      Enl =      -25.1628785845182890
      Exc =     -313.2267856970526054
 Exc_core =       94.0504095629281096
       KE =      464.4751168516992266
-------------------------------------
     Etot =    -1282.9616007794274992
       TS =        0.0193663699080556
-------------------------------------
        F =    -1282.9809671493355836

IonicMinimize: Iter:  28  F: -1282.980967149335584  |grad|_K:  9.388e-05  alpha:  1.000e+00  linmin: -4.229e-01  t[s]:  91427.11
IonicMinimize: Converged (|grad|_K<1.000000e-04).

#--- Lowdin population analysis ---
# oxidation-state Ti +1.735 +1.740 +1.722 +1.727
# oxidation-state W +0.933 +0.924 +0.922 +0.926 +0.957 +0.920 +0.972 +0.919
# oxidation-state O -0.433 -0.414 -0.429 -0.404 -0.497 -0.540 -0.440 -0.536 -0.414 -0.443 -0.413 -0.442 -0.333 -0.337 -0.350 -0.344 -0.430 -0.435 -0.425 -0.449 -0.528 -0.546 -0.515 -0.547 -0.420 -0.388 -0.420 -0.421 -0.331 -0.326 -0.340


Dumping 'Ti4W8O31.Ecomponents' ... done
End date and time: Sat Dec  9 16:59:26 2023  (Duration: 1-1:24:14.37)
Done!
