--------------------------------------------------------------------------
Initialization of PSM library failed.

  Error: PSM is in the finalized state
--------------------------------------------------------------------------

*************** JDFTx 1.7.0  ***************

Start date and time: Fri Dec  8 15:53:47 2023
Executable jdftx with command-line: -i /home/cam559/Valla_project/TiW/Ti4W8O32.in
Running on hosts (process indices):  node3204.physics.cornell.edu (0-9)
Divided in process groups (process indices):  0 (0)  1 (1)  2 (2)  3 (3)  4 (4)  5 (5)  6 (6)  7 (7)  8 (8)  9 (9)
Resource initialization completed at t[s]:      0.00
Run totals: 10 processes, 30 threads, 0 GPUs


Input parsed successfully to the following command list (including defaults):

basis kpoint-dependent
coords-type Cartesian
core-overlap-check vector
coulomb-interaction Periodic
davidson-band-ratio 1.1
dump End Ecomponents
dump-name Ti4W8O32.$VAR
elec-cutoff 20 100
elec-eigen-algo Davidson
elec-ex-corr gga-PBE
elec-smearing Fermi 0.004
electronic-minimize  \
	dirUpdateScheme      FletcherReeves \
	linminMethod         DirUpdateRecommended \
	nIterations          100 \
	history              15 \
	knormThreshold       0 \
	energyDiffThreshold  1e-08 \
	nEnergyDiff          2 \
	alphaTstart          1 \
	alphaTmin            1e-10 \
	updateTestStepSize   yes \
	alphaTreduceFactor   0.1 \
	alphaTincreaseFactor 3 \
	nAlphaAdjustMax      3 \
	wolfeEnergy          0.0001 \
	wolfeGradient        0.9 \
	fdTest               no
exchange-regularization WignerSeitzTruncated
fluid None
fluid-ex-corr lda-TF lda-PZ
fluid-gummel-loop 10 1.000000e-05
fluid-minimize  \
	dirUpdateScheme      PolakRibiere \
	linminMethod         DirUpdateRecommended \
	nIterations          100 \
	history              15 \
	knormThreshold       0 \
	energyDiffThreshold  0 \
	nEnergyDiff          2 \
	alphaTstart          1 \
	alphaTmin            1e-10 \
	updateTestStepSize   yes \
	alphaTreduceFactor   0.1 \
	alphaTincreaseFactor 3 \
	nAlphaAdjustMax      3 \
	wolfeEnergy          0.0001 \
	wolfeGradient        0.9 \
	fdTest               no
fluid-solvent H2O 55.338 ScalarEOS \
	epsBulk 78.4 \
	pMol 0.92466 \
	epsInf 1.77 \
	Pvap 1.06736e-10 \
	sigmaBulk 4.62e-05 \
	Rvdw 2.61727 \
	Res 1.42 \
	tauNuc 343133 \
	poleEl 15 7 1
forces-output-coords Positions
initial-state Ti4W8O32.$VAR
ion Ti   4.092604000000001  11.662907000000001  13.227952999999999 1
ion Ti   6.915204000000001   7.066849000000000   4.409318000000000 1
ion Ti   4.092604000000001  21.200547000000000  13.227952999999999 1
ion Ti   6.915204000000001  16.604489999999998   4.409318000000000 1
ion W   1.785400000000000   7.094381000000000   8.778476000000000 1
ion W   1.785400000000000   7.039317999999999   0.040160000000000 1
ion W   9.222407000000000  11.635375000000000   8.858796000000000 1
ion W   9.222407000000000  11.690437999999999  17.597111000000002 1
ion W   1.785400000000000  16.632021000000002   8.778476000000000 1
ion W   1.785400000000000  16.576958000000001   0.040160000000000 1
ion W   9.222407000000000  21.173016000000001   8.858796000000000 1
ion W   9.222407000000000  21.228079000000001  17.597111000000002 1
ion O   3.724855000000000  14.704857999999998  15.189605999999998 1
ion O   3.724855000000000   8.620956000000000  11.266301000000000 1
ion O   7.282953000000001   4.024898000000000   2.447665000000000 1
ion O   7.282953000000001  10.108799999999999   6.370970000000000 1
ion O   9.747304000000002   5.362231000000000   6.932823000000000 1
ion O   9.747304000000002   8.771466999999999   1.885812000000000 1
ion O   1.260504000000000  13.367525000000001  10.704447999999998 1
ion O   1.260504000000000   9.958288999999999  15.751458999999999 1
ion O   6.625016000000000  10.523728999999999  15.500197999999997 1
ion O   6.625016000000000  12.802084999999998  10.955709000000001 1
ion O   4.382792000000001   8.206027000000001   2.137073000000000 1
ion O   4.382792000000001   5.927671000000000   6.681562999999999 1
ion O   9.814022000000001  14.596812999999997  15.684877999999999 1
ion O   1.193786000000000   4.132942999999999   1.952393000000000 1
ion O   9.814022000000001   8.729000999999998  10.771028999999999 1
ion O   1.193786000000000  10.000754999999998   6.866243000000000 1
ion O   3.724855000000000  24.242498999999999  15.189605999999998 1
ion O   3.724855000000000  18.158595999999996  11.266301000000000 1
ion O   7.282953000000001  13.562538000000000   2.447665000000000 1
ion O   7.282953000000001  19.646440999999999   6.370970000000000 1
ion O   9.747304000000002  14.899870999999999   6.932823000000000 1
ion O   9.747304000000002  18.309107999999998   1.885812000000000 1
ion O   1.260504000000000  22.905165999999998  10.704447999999998 1
ion O   1.260504000000000  19.495928999999997  15.751458999999999 1
ion O   6.625016000000000  20.061368999999999  15.500197999999997 1
ion O   6.625016000000000  22.339725999999995  10.955709000000001 1
ion O   4.382792000000001  17.743668000000003   2.137073000000000 1
ion O   4.382792000000001  15.465311000000000   6.681562999999999 1
ion O   9.814022000000001  24.134452999999997  15.684877999999999 1
ion O   1.193786000000000  13.670584000000000   1.952393000000000 1
ion O   9.814022000000001  18.266640999999996  10.771028999999999 1
ion O   1.193786000000000  19.538395999999999   6.866243000000000 1
ion-species GBRV/$ID_pbe.uspp
ion-width 0
ionic-minimize  \
	dirUpdateScheme      L-BFGS \
	linminMethod         DirUpdateRecommended \
	nIterations          30 \
	history              15 \
	knormThreshold       0.0001 \
	energyDiffThreshold  1e-05 \
	nEnergyDiff          2 \
	alphaTstart          1 \
	alphaTmin            1e-10 \
	updateTestStepSize   yes \
	alphaTreduceFactor   0.1 \
	alphaTincreaseFactor 3 \
	nAlphaAdjustMax      3 \
	wolfeEnergy          0.0001 \
	wolfeGradient        0.9 \
	fdTest               no
kpoint   0.000000000000   0.000000000000   0.000000000000  1.00000000000000
kpoint-folding 3 3 3 
latt-move-scale 1 1 1
latt-scale 1 1 1 
lattice  \
	  11.007808000000001    0.000000000000000    0.000000000000000  \
	   0.000000000000000   19.075281000000000    9.192114999999999  \
	   0.000000000000000    0.000000000000000   17.637270999999998 
lattice-minimize  \
	dirUpdateScheme      L-BFGS \
	linminMethod         DirUpdateRecommended \
	nIterations          0 \
	history              15 \
	knormThreshold       0 \
	energyDiffThreshold  1e-06 \
	nEnergyDiff          2 \
	alphaTstart          1 \
	alphaTmin            1e-10 \
	updateTestStepSize   yes \
	alphaTreduceFactor   0.1 \
	alphaTincreaseFactor 3 \
	nAlphaAdjustMax      3 \
	wolfeEnergy          0.0001 \
	wolfeGradient        0.9 \
	fdTest               no
lcao-params -1 1e-06 0.004
pcm-variant GLSSA13
spintype no-spin
subspace-rotation-factor 1 yes
symmetries automatic
symmetry-threshold 0.0001



---------- Setting up symmetries ----------

Found 4 point-group symmetries of the bravais lattice
Found 8 space-group symmetries with basis
Applied RMS atom displacement 4.60192e-07 bohrs to make symmetries exact.

---------- Initializing the Grid ----------
R = 
[      11.0078            0            0  ]
[            0      19.0753      9.19211  ]
[            0            0      17.6373  ]
unit cell volume = 3703.42
G =
[   0.570794          0          0  ]
[          0   0.329389  -0.171669  ]
[          0          0   0.356245  ]
Minimum fftbox size, Smin = [  52  88  92  ]
Chosen fftbox size, S = [  54  90  96  ]

---------- Initializing tighter grid for wavefunction operations ----------
R = 
[      11.0078            0            0  ]
[            0      19.0753      9.19211  ]
[            0            0      17.6373  ]
unit cell volume = 3703.42
G =
[   0.570794          0          0  ]
[          0   0.329389  -0.171669  ]
[          0          0   0.356245  ]
Minimum fftbox size, Smin = [  48  80  84  ]
Chosen fftbox size, S = [  48  80  84  ]

---------- Exchange Correlation functional ----------
Initalized PBE GGA exchange.
Initalized PBE GGA correlation.

---------- Setting up pseudopotentials ----------
Width of ionic core gaussian charges (only for fluid interactions / plotting) set to 0

Reading pseudopotential file '/home/cam559/JDFTx/build/pseudopotentials/GBRV/ti_pbe.uspp':
  Title: Ti.  Created by USPP 7.3.6 on 31-3-15
  Reference state energy: -59.020943.  12 valence electrons in orbitals:
    |300>  occupation: 2  eigenvalue: -2.777623
    |310>  occupation: 6  eigenvalue: -1.894596
    |400>  occupation: 2  eigenvalue: -0.438610
    |320>  occupation: 1  eigenvalue: -0.583119
  lMax: 2  lLocal: 3  QijEcut: 6
  6 projectors sampled on a log grid with 597 points:
    l: 0  eig: -2.777624  rCut: 1.8
    l: 0  eig: -0.438611  rCut: 1.8
    l: 1  eig: -1.894596  rCut: 1.8
    l: 1  eig: 0.500000  rCut: 1.8
    l: 2  eig: -0.583118  rCut: 1.8
    l: 2  eig: 0.150000  rCut: 1.8
  Partial core density with radius 0.8
  Transforming core density to a uniform radial grid of dG=0.02 with 1644 points.
  Transforming local potential to a uniform radial grid of dG=0.02 with 1644 points.
  Transforming nonlocal projectors to a uniform radial grid of dG=0.02 with 432 points.
  Transforming density augmentations to a uniform radial grid of dG=0.02 with 1644 points.
  Transforming atomic orbitals to a uniform radial grid of dG=0.02 with 432 points.
  Core radius for overlap checks: 1.80 bohrs.

Reading pseudopotential file '/home/cam559/JDFTx/build/pseudopotentials/GBRV/w_pbe.uspp':
  Title: W.  Created by USPP 7.3.6 on 3-2-2014
  Reference state energy: -79.133630.  14 valence electrons in orbitals:
    |500>  occupation: 2  eigenvalue: -2.938934
    |510>  occupation: 6  eigenvalue: -1.620730
    |520>  occupation: 3.9  eigenvalue: -0.194511
    |600>  occupation: 2  eigenvalue: -0.234858
    |610>  occupation: 0  eigenvalue: -0.069444
  lMax: 3  lLocal: 3  QijEcut: 5
  8 projectors sampled on a log grid with 667 points:
    l: 0  eig: -2.938934  rCut: 1.45
    l: 0  eig: -0.234859  rCut: 1.45
    l: 0  eig: 0.500000  rCut: 1.45
    l: 1  eig: -1.620730  rCut: 1.5
    l: 1  eig: -0.069446  rCut: 1.5
    l: 2  eig: -0.194511  rCut: 1.7
    l: 2  eig: 0.150000  rCut: 1.7
    l: 3  eig: 0.500000  rCut: 2.3
  Partial core density with radius 1.2
  Transforming core density to a uniform radial grid of dG=0.02 with 1644 points.
  Transforming local potential to a uniform radial grid of dG=0.02 with 1644 points.
  Transforming nonlocal projectors to a uniform radial grid of dG=0.02 with 432 points.
  Transforming density augmentations to a uniform radial grid of dG=0.02 with 1644 points.
  Transforming atomic orbitals to a uniform radial grid of dG=0.02 with 432 points.
  Core radius for overlap checks: 2.30 bohrs.

Reading pseudopotential file '/home/cam559/JDFTx/build/pseudopotentials/GBRV/o_pbe.uspp':
  Title: O.  Created by USPP 7.3.6 on 3-2-2014
  Reference state energy: -15.894388.  6 valence electrons in orbitals:
    |200>  occupation: 2  eigenvalue: -0.878823
    |210>  occupation: 4  eigenvalue: -0.332131
  lMax: 2  lLocal: 2  QijEcut: 6
  5 projectors sampled on a log grid with 511 points:
    l: 0  eig: -0.878823  rCut: 1.25
    l: 0  eig: 0.000000  rCut: 1.25
    l: 1  eig: -0.332132  rCut: 1.25
    l: 1  eig: 0.000000  rCut: 1.25
    l: 2  eig: 1.000000  rCut: 1.25
  Partial core density with radius 0.7
  Transforming core density to a uniform radial grid of dG=0.02 with 1644 points.
  Transforming local potential to a uniform radial grid of dG=0.02 with 1644 points.
  Transforming nonlocal projectors to a uniform radial grid of dG=0.02 with 432 points.
  Transforming density augmentations to a uniform radial grid of dG=0.02 with 1644 points.
  Transforming atomic orbitals to a uniform radial grid of dG=0.02 with 432 points.
  Core radius for overlap checks: 1.25 bohrs.

Initialized 3 species with 44 total atoms.

Folded 1 k-points by 3x3x3 to 27 k-points.

---------- Setting up k-points, bands, fillings ----------
Reduced to 10 k-points under symmetry. 
Computing the number of bands and number of electrons
Calculating initial fillings.
nElectrons: 352.000000   nBands: 272   nStates: 10

----- Setting up reduced wavefunction bases (one per k-point) -----
average nbasis = 15823.370 , ideal nbasis = 15821.300

---------- Setting up ewald sum ----------
Optimum gaussian width for ewald sums = 3.285002 bohr.
Real space sum over 441 unit cells with max indices [  4  3  3  ]
Reciprocal space sum over 7245 terms with max indices [  7  10  11  ]

---------- Allocating electronic variables ----------
Initializing wave functions:  linear combination of atomic orbitals
Ti pseudo-atom occupations:   s ( 2 0 )  p ( 6 )  d ( 4 )
W pseudo-atom occupations:   s ( 2 2 )  p ( 6 0 )  d ( 4 )
O pseudo-atom occupations:   s ( 2 )  p ( 4 )
	FillingsUpdate:  mu: +0.467251970  nElectrons: 352.000000
LCAOMinimize: Iter:   0  F: -1287.2513691563840439  |grad|_K:  7.345e-03  alpha:  1.000e+00
	FillingsUpdate:  mu: +0.401320170  nElectrons: 352.000000
LCAOMinimize: Iter:   1  F: -1291.9494880140914574  |grad|_K:  5.022e-03  alpha:  1.327e-01  linmin: -2.722e-01  cgtest:  9.383e-01  t[s]:    139.57
LCAOMinimize: Encountered beta<0, resetting CG.
LCAOMinimize: 	Predicted alpha/alphaT>3.000000, increasing alphaT to 3.981781e-01.
	FillingsUpdate:  mu: +0.234946473  nElectrons: 352.000000
LCAOMinimize: Iter:   2  F: -1295.6399858624522494  |grad|_K:  4.501e-03  alpha:  3.903e-01  linmin:  2.627e-02  cgtest: -3.840e-01  t[s]:    186.92
	FillingsUpdate:  mu: +0.229593385  nElectrons: 352.000000
LCAOMinimize: Iter:   3  F: -1295.7625915914281904  |grad|_K:  4.514e-03  alpha:  1.023e-02  linmin: -7.443e-02  cgtest:  9.817e-01  t[s]:    227.49
LCAOMinimize: 	Predicted alpha/alphaT>3.000000, increasing alphaT to 3.068085e-02.
LCAOMinimize: 	Predicted alpha/alphaT>3.000000, increasing alphaT to 9.204255e-02.
	FillingsUpdate:  mu: +0.310838318  nElectrons: 352.000000
LCAOMinimize: Iter:   4  F: -1297.4799049950661356  |grad|_K:  6.919e-04  alpha:  2.269e-01  linmin:  1.487e-01  cgtest: -7.573e-01  t[s]:    287.59
	FillingsUpdate:  mu: +0.310089065  nElectrons: 352.000000
LCAOMinimize: Iter:   5  F: -1297.4878631051442426  |grad|_K:  6.095e-04  alpha:  7.720e-02  linmin: -1.452e-02  cgtest:  8.821e-01  t[s]:    326.93
LCAOMinimize: Encountered beta<0, resetting CG.
	FillingsUpdate:  mu: +0.307580923  nElectrons: 352.000000
LCAOMinimize: Iter:   6  F: -1297.5155668680404233  |grad|_K:  1.284e-04  alpha:  2.049e-01  linmin:  8.267e-02  cgtest: -2.036e-01  t[s]:    368.22
	FillingsUpdate:  mu: +0.308101344  nElectrons: 352.000000
LCAOMinimize: Iter:   7  F: -1297.5177510718776830  |grad|_K:  9.852e-05  alpha:  3.920e-01  linmin:  7.570e-03  cgtest:  1.332e-01  t[s]:    407.23
	FillingsUpdate:  mu: +0.309575756  nElectrons: 352.000000
LCAOMinimize: Iter:   8  F: -1297.5188945361214792  |grad|_K:  2.756e-05  alpha:  3.211e-01  linmin: -7.936e-04  cgtest: -3.074e-02  t[s]:    447.24
	FillingsUpdate:  mu: +0.309553885  nElectrons: 352.000000
LCAOMinimize: Iter:   9  F: -1297.5189533637555996  |grad|_K:  7.616e-06  alpha:  2.078e-01  linmin:  4.750e-05  cgtest: -9.505e-03  t[s]:    488.32
	FillingsUpdate:  mu: +0.309529592  nElectrons: 352.000000
LCAOMinimize: Iter:  10  F: -1297.5189597480073189  |grad|_K:  4.553e-06  alpha:  2.954e-01  linmin:  3.819e-04  cgtest:  2.506e-04  t[s]:    528.34
	FillingsUpdate:  mu: +0.309571301  nElectrons: 352.000000
LCAOMinimize: Iter:  11  F: -1297.5189627288386873  |grad|_K:  2.299e-06  alpha:  3.862e-01  linmin:  1.217e-04  cgtest:  2.159e-03  t[s]:    568.08
	FillingsUpdate:  mu: +0.309576187  nElectrons: 352.000000
LCAOMinimize: Iter:  12  F: -1297.5189632281530976  |grad|_K:  6.800e-07  alpha:  2.536e-01  linmin:  9.117e-06  cgtest:  4.010e-04  t[s]:    607.52
	FillingsUpdate:  mu: +0.309572809  nElectrons: 352.000000
LCAOMinimize: Iter:  13  F: -1297.5189632701285518  |grad|_K:  3.506e-07  alpha:  2.436e-01  linmin:  7.505e-05  cgtest: -2.646e-04  t[s]:    648.10
LCAOMinimize: Converged (|Delta F|<1.000000e-06 for 2 iters).


---- Citations for features of the code used in this run ----

   Software package:
      R. Sundararaman, K. Letchworth-Weaver, K.A. Schwarz, D. Gunceler, Y. Ozhabes and T.A. Arias, 'JDFTx: software for joint density-functional theory', SoftwareX 6, 278 (2017)

   gga-PBE exchange-correlation functional:
      J.P. Perdew, K. Burke and M. Ernzerhof, Phys. Rev. Lett. 77, 3865 (1996)

   Pseudopotentials:
      KF Garrity, JW Bennett, KM Rabe and D Vanderbilt, Comput. Mater. Sci. 81, 446 (2014)

   Total energy minimization with Auxiliary Hamiltonian:
      C. Freysoldt, S. Boeck, and J. Neugebauer, Phys. Rev. B 79, 241103(R) (2009)

This list may not be complete. Please suggest additional citations or
report any other bugs at https://github.com/shankar1729/jdftx/issues

Initialization completed successfully at t[s]:    681.26


-------- Electronic minimization -----------
	FillingsUpdate:  mu: +0.309572809  nElectrons: 352.000000
ElecMinimize: Iter:   0  F: -1297.518963270128097  |grad|_K:  2.373e-04  alpha:  1.000e+00
	FillingsUpdate:  mu: +0.281387267  nElectrons: 352.000000
	SubspaceRotationAdjust: set factor to 0.901
ElecMinimize: Iter:   1  F: -1298.652040528934094  |grad|_K:  1.511e-04  alpha:  4.611e-01  linmin:  3.505e-05  t[s]:    909.89
	FillingsUpdate:  mu: +0.296379844  nElectrons: 352.000000
	SubspaceRotationAdjust: set factor to 0.578
ElecMinimize: Iter:   2  F: -1298.969004122015122  |grad|_K:  6.481e-05  alpha:  3.293e-01  linmin: -1.885e-04  t[s]:   1056.60
	FillingsUpdate:  mu: +0.291336076  nElectrons: 352.000000
	SubspaceRotationAdjust: set factor to 0.421
ElecMinimize: Iter:   3  F: -1299.049012639983175  |grad|_K:  3.435e-05  alpha:  4.368e-01  linmin:  1.056e-04  t[s]:   1205.47
	FillingsUpdate:  mu: +0.292093540  nElectrons: 352.000000
	SubspaceRotationAdjust: set factor to 0.451
ElecMinimize: Iter:   4  F: -1299.073582361305398  |grad|_K:  1.818e-05  alpha:  4.830e-01  linmin:  1.956e-04  t[s]:   1361.83
	FillingsUpdate:  mu: +0.293024626  nElectrons: 352.000000
	SubspaceRotationAdjust: set factor to 0.46
ElecMinimize: Iter:   5  F: -1299.080540387921701  |grad|_K:  9.448e-06  alpha:  4.904e-01  linmin:  4.352e-05  t[s]:   1517.23
	FillingsUpdate:  mu: +0.293166602  nElectrons: 352.000000
	SubspaceRotationAdjust: set factor to 0.536
ElecMinimize: Iter:   6  F: -1299.082183299711687  |grad|_K:  5.919e-06  alpha:  4.250e-01  linmin:  3.040e-05  t[s]:   1664.40
	FillingsUpdate:  mu: +0.292759236  nElectrons: 352.000000
	SubspaceRotationAdjust: set factor to 0.611
ElecMinimize: Iter:   7  F: -1299.082670688669850  |grad|_K:  3.580e-06  alpha:  3.213e-01  linmin:  1.369e-05  t[s]:   1822.32
	FillingsUpdate:  mu: +0.292688080  nElectrons: 352.000000
	SubspaceRotationAdjust: set factor to 0.759
ElecMinimize: Iter:   8  F: -1299.082905343264429  |grad|_K:  2.257e-06  alpha:  4.227e-01  linmin:  9.492e-06  t[s]:   1968.96
	FillingsUpdate:  mu: +0.292924019  nElectrons: 352.000000
	SubspaceRotationAdjust: set factor to 0.861
ElecMinimize: Iter:   9  F: -1299.082993907539503  |grad|_K:  1.445e-06  alpha:  4.013e-01  linmin: -7.401e-07  t[s]:   2128.26
	FillingsUpdate:  mu: +0.292779337  nElectrons: 352.000000
	SubspaceRotationAdjust: set factor to 0.851
ElecMinimize: Iter:  10  F: -1299.083026159758219  |grad|_K:  7.825e-07  alpha:  3.560e-01  linmin:  3.098e-07  t[s]:   2278.58
	FillingsUpdate:  mu: +0.292797264  nElectrons: 352.000000
	SubspaceRotationAdjust: set factor to 0.848
ElecMinimize: Iter:  11  F: -1299.083035974051882  |grad|_K:  4.333e-07  alpha:  3.694e-01  linmin:  6.271e-07  t[s]:   2425.70
	FillingsUpdate:  mu: +0.292815704  nElectrons: 352.000000
	SubspaceRotationAdjust: set factor to 0.812
ElecMinimize: Iter:  12  F: -1299.083038860357419  |grad|_K:  2.499e-07  alpha:  3.544e-01  linmin: -2.393e-07  t[s]:   2580.65
	FillingsUpdate:  mu: +0.292801434  nElectrons: 352.000000
	SubspaceRotationAdjust: set factor to 0.847
ElecMinimize: Iter:  13  F: -1299.083039845421581  |grad|_K:  1.567e-07  alpha:  3.634e-01  linmin:  4.770e-07  t[s]:   2735.96
	FillingsUpdate:  mu: +0.292807044  nElectrons: 352.000000
	SubspaceRotationAdjust: set factor to 0.921
ElecMinimize: Iter:  14  F: -1299.083040238958120  |grad|_K:  9.169e-08  alpha:  3.693e-01  linmin:  8.912e-07  t[s]:   2886.31
	FillingsUpdate:  mu: +0.292806578  nElectrons: 352.000000
	SubspaceRotationAdjust: set factor to 1.08
ElecMinimize: Iter:  15  F: -1299.083040402781535  |grad|_K:  5.608e-08  alpha:  4.499e-01  linmin:  1.566e-06  t[s]:   3037.13
	FillingsUpdate:  mu: +0.292806895  nElectrons: 352.000000
	SubspaceRotationAdjust: set factor to 1.16
ElecMinimize: Iter:  16  F: -1299.083040451300349  |grad|_K:  3.692e-08  alpha:  3.566e-01  linmin:  3.020e-07  t[s]:   3191.05
	FillingsUpdate:  mu: +0.292807174  nElectrons: 352.000000
	SubspaceRotationAdjust: set factor to 1.21
ElecMinimize: Iter:  17  F: -1299.083040470177139  |grad|_K:  1.882e-08  alpha:  3.192e-01  linmin:  6.168e-08  t[s]:   3347.69
	FillingsUpdate:  mu: +0.292807340  nElectrons: 352.000000
	SubspaceRotationAdjust: set factor to 1.09
ElecMinimize: Iter:  18  F: -1299.083040476441511  |grad|_K:  1.198e-08  alpha:  4.087e-01  linmin:  4.128e-07  t[s]:   3498.54
	FillingsUpdate:  mu: +0.292807408  nElectrons: 352.000000
	SubspaceRotationAdjust: set factor to 0.861
ElecMinimize: Iter:  19  F: -1299.083040478316207  |grad|_K:  7.548e-09  alpha:  3.037e-01  linmin:  1.896e-07  t[s]:   3646.21
ElecMinimize: Converged (|Delta F|<1.000000e-08 for 2 iters).
Setting wave functions to eigenvectors of Hamiltonian

# Ionic positions in cartesian coordinates:
ion Ti   4.092603909090910  11.662906749999998  13.227953386363634 1
ion Ti   6.915203909090910   7.066849250000000   4.409317886363636 1
ion Ti   4.092603909090910  21.200547250000000  13.227953386363634 1
ion Ti   6.915203909090910  16.604489749999999   4.409317886363636 1
ion W   1.785400409090909   7.094380750000001   8.778475636363638 1
ion W   1.785400409090909   7.039317750000000   0.040160136363636 1
ion W   9.222407409090909  11.635375249999999   8.858795636363636 1
ion W   9.222407409090909  11.690438250000000  17.597111136363637 1
ion W   1.785400409090909  16.632021250000001   8.778475636363638 1
ion W   1.785400409090909  16.576958250000001   0.040160136363636 1
ion W   9.222407409090909  21.173015749999998   8.858795636363636 1
ion W   9.222407409090909  21.228078749999998  17.597111136363637 1
ion O   3.724854909090909  14.704857999999998  15.189605886363633 1
ion O   3.724854909090909   8.620955500000001  11.266300886363636 1
ion O   7.282952909090910   4.024897999999999   2.447665386363637 1
ion O   7.282952909090910  10.108800499999999   6.370970386363635 1
ion O   9.747303909090910   5.362231000000000   6.932823386363637 1
ion O   9.747303909090910   8.771467499999998   1.885812386363636 1
ion O   1.260503909090909  13.367524999999999  10.704447886363637 1
ion O   1.260503909090909   9.958288499999998  15.751458886363634 1
ion O   6.625015909090910  10.523728499999999  15.500198136363636 1
ion O   6.625015909090910  12.802085000000000  10.955708636363637 1
ion O   4.382791909090910   8.206027499999999   2.137073136363637 1
ion O   4.382791909090910   5.927671000000000   6.681562636363636 1
ion O   9.814021909090910  14.596812749999998  15.684878136363634 1
ion O   1.193785909090909   4.132943250000000   1.952393136363637 1
ion O   9.814021909090910   8.729000749999999  10.771028636363637 1
ion O   1.193785909090909  10.000755249999999   6.866242636363636 1
ion O   3.724854909090909  24.242498500000004  15.189605886363633 1
ion O   3.724854909090909  18.158595999999999  11.266300886363636 1
ion O   7.282952909090910  13.562538500000000   2.447665386363637 1
ion O   7.282952909090910  19.646440999999999   6.370970386363635 1
ion O   9.747303909090910  14.899871500000001   6.932823386363637 1
ion O   9.747303909090910  18.309107999999998   1.885812386363636 1
ion O   1.260503909090909  22.905165499999999  10.704447886363637 1
ion O   1.260503909090909  19.495928999999997  15.751458886363634 1
ion O   6.625015909090910  20.061368999999999  15.500198136363636 1
ion O   6.625015909090910  22.339725500000000  10.955708636363637 1
ion O   4.382791909090910  17.743668000000000   2.137073136363637 1
ion O   4.382791909090910  15.465311499999999   6.681562636363636 1
ion O   9.814021909090910  24.134453249999996  15.684878136363634 1
ion O   1.193785909090909  13.670583750000000   1.952393136363637 1
ion O   9.814021909090910  18.266641249999999  10.771028636363637 1
ion O   1.193785909090909  19.538395749999999   6.866242636363636 1

# Forces in Cartesian coordinates:
force Ti  -0.002356826969965   0.000000000000000  -0.000000000000000 1
force Ti   0.002356826969965   0.000000000000000  -0.000000000000000 1
force Ti  -0.002356826969965  -0.000000000000000   0.000000000000000 1
force Ti   0.002356826969965  -0.000000000000000   0.000000000000000 1
force W   0.010561855241580   0.008234663515129  -0.005354715478005 1
force W   0.010561855241580  -0.008234663515130   0.005354715478005 1
force W  -0.010561855241580  -0.008234663515129   0.005354715478006 1
force W  -0.010561855241580   0.008234663515130  -0.005354715478006 1
force W   0.010561855241580   0.008234663515129  -0.005354715478006 1
force W   0.010561855241579  -0.008234663515130   0.005354715478006 1
force W  -0.010561855241580  -0.008234663515130   0.005354715478006 1
force W  -0.010561855241580   0.008234663515130  -0.005354715478006 1
force O  -0.007452296729716   0.005150666349822   0.008103112154753 1
force O  -0.007452296729715  -0.005150666349822  -0.008103112154753 1
force O   0.007452296729716  -0.005150666349822  -0.008103112154753 1
force O   0.007452296729716   0.005150666349822   0.008103112154753 1
force O   0.000962828380103  -0.002304874076580   0.004626653851081 1
force O   0.000962828380103   0.002304874076580  -0.004626653851081 1
force O  -0.000962828380103   0.002304874076580  -0.004626653851081 1
force O  -0.000962828380103  -0.002304874076580   0.004626653851081 1
force O   0.010108730220590   0.004386540951031   0.007263129677428 1
force O   0.010108730220590  -0.004386540951030  -0.007263129677428 1
force O  -0.010108730220589  -0.004386540951031  -0.007263129677428 1
force O  -0.010108730220590   0.004386540951031   0.007263129677427 1
force O   0.000015054218854  -0.012021504799268   0.008627052257050 1
force O  -0.000015054218854   0.012021504799269  -0.008627052257051 1
force O   0.000015054218854   0.012021504799269  -0.008627052257050 1
force O  -0.000015054218854  -0.012021504799269   0.008627052257049 1
force O  -0.007452296729716   0.005150666349822   0.008103112154753 1
force O  -0.007452296729716  -0.005150666349822  -0.008103112154753 1
force O   0.007452296729716  -0.005150666349822  -0.008103112154753 1
force O   0.007452296729715   0.005150666349822   0.008103112154753 1
force O   0.000962828380103  -0.002304874076580   0.004626653851081 1
force O   0.000962828380103   0.002304874076580  -0.004626653851081 1
force O  -0.000962828380103   0.002304874076580  -0.004626653851081 1
force O  -0.000962828380103  -0.002304874076580   0.004626653851081 1
force O   0.010108730220589   0.004386540951030   0.007263129677428 1
force O   0.010108730220590  -0.004386540951030  -0.007263129677428 1
force O  -0.010108730220590  -0.004386540951031  -0.007263129677428 1
force O  -0.010108730220589   0.004386540951031   0.007263129677428 1
force O   0.000015054218854  -0.012021504799269   0.008627052257050 1
force O  -0.000015054218854   0.012021504799268  -0.008627052257050 1
force O   0.000015054218854   0.012021504799268  -0.008627052257051 1
force O  -0.000015054218854  -0.012021504799268   0.008627052257049 1

# Energy components:
   Eewald =     -866.5936328092344638
       EH =      359.8098609629991529
     Eloc =    -1017.5098949390046528
      Enl =      -23.0120720144650051
      Exc =     -316.4210552235444993
 Exc_core =       94.1152896108946351
       KE =      470.5284729552623162
-------------------------------------
     Etot =    -1299.0830314570926021
       TS =        0.0000090212237078
-------------------------------------
        F =    -1299.0830404783162066

IonicMinimize: Iter:   0  F: -1299.083040478316207  |grad|_K:  6.872e-03  t[s]:   3674.30

#--- Lowdin population analysis ---
# oxidation-state Ti +1.771 +1.771 +1.771 +1.771
# oxidation-state W +0.964 +0.964 +0.964 +0.964 +0.964 +0.964 +0.964 +0.964
# oxidation-state O -0.428 -0.428 -0.428 -0.428 -0.521 -0.521 -0.521 -0.521 -0.428 -0.428 -0.428 -0.428 -0.334 -0.334 -0.334 -0.334 -0.428 -0.428 -0.428 -0.428 -0.521 -0.521 -0.521 -0.521 -0.428 -0.428 -0.428 -0.428 -0.334 -0.334 -0.334 -0.334


-------- Electronic minimization -----------
	FillingsUpdate:  mu: +0.292424444  nElectrons: 352.000000
ElecMinimize: Iter:   0  F: -1299.086095144348292  |grad|_K:  7.692e-06  alpha:  1.000e+00
	FillingsUpdate:  mu: +0.292673990  nElectrons: 352.000000
	SubspaceRotationAdjust: set factor to 0.58
ElecMinimize: Iter:   1  F: -1299.087296118930226  |grad|_K:  5.103e-06  alpha:  4.678e-01  linmin:  6.713e-07  t[s]:   3963.91
	FillingsUpdate:  mu: +0.292490959  nElectrons: 352.000000
	SubspaceRotationAdjust: set factor to 0.612
ElecMinimize: Iter:   2  F: -1299.087715331731033  |grad|_K:  2.430e-06  alpha:  3.714e-01  linmin: -2.618e-05  t[s]:   4108.72
	FillingsUpdate:  mu: +0.292535416  nElectrons: 352.000000
	SubspaceRotationAdjust: set factor to 0.916
ElecMinimize: Iter:   3  F: -1299.087844649583303  |grad|_K:  9.926e-07  alpha:  5.042e-01  linmin: -1.051e-05  t[s]:   4261.38
	FillingsUpdate:  mu: +0.292536362  nElectrons: 352.000000
	SubspaceRotationAdjust: set factor to 0.979
ElecMinimize: Iter:   4  F: -1299.087864110601913  |grad|_K:  4.237e-07  alpha:  4.550e-01  linmin:  5.483e-07  t[s]:   4415.08
	FillingsUpdate:  mu: +0.292524552  nElectrons: 352.000000
	SubspaceRotationAdjust: set factor to 1.01
ElecMinimize: Iter:   5  F: -1299.087866980608851  |grad|_K:  2.395e-07  alpha:  3.684e-01  linmin:  1.972e-07  t[s]:   4569.35
	FillingsUpdate:  mu: +0.292534949  nElectrons: 352.000000
	SubspaceRotationAdjust: set factor to 1.09
ElecMinimize: Iter:   6  F: -1299.087867841526077  |grad|_K:  1.157e-07  alpha:  3.460e-01  linmin:  3.008e-07  t[s]:   4717.43
	FillingsUpdate:  mu: +0.292535391  nElectrons: 352.000000
	SubspaceRotationAdjust: set factor to 1.17
ElecMinimize: Iter:   7  F: -1299.087868024339741  |grad|_K:  6.024e-08  alpha:  3.148e-01  linmin:  1.240e-07  t[s]:   4862.95
	FillingsUpdate:  mu: +0.292531687  nElectrons: 352.000000
	SubspaceRotationAdjust: set factor to 1.03
ElecMinimize: Iter:   8  F: -1299.087868075877395  |grad|_K:  3.285e-08  alpha:  3.273e-01  linmin:  1.288e-07  t[s]:   5012.63
	FillingsUpdate:  mu: +0.292533349  nElectrons: 352.000000
	SubspaceRotationAdjust: set factor to 0.784
ElecMinimize: Iter:   9  F: -1299.087868093500447  |grad|_K:  1.991e-08  alpha:  3.764e-01  linmin:  4.457e-09  t[s]:   5169.37
	FillingsUpdate:  mu: +0.292532843  nElectrons: 352.000000
	SubspaceRotationAdjust: set factor to 0.632
ElecMinimize: Iter:  10  F: -1299.087868100848709  |grad|_K:  1.297e-08  alpha:  4.269e-01  linmin: -5.406e-07  t[s]:   5319.17
	FillingsUpdate:  mu: +0.292532989  nElectrons: 352.000000
	SubspaceRotationAdjust: set factor to 0.685
ElecMinimize: Iter:  11  F: -1299.087868103771370  |grad|_K:  7.663e-09  alpha:  3.987e-01  linmin: -2.085e-07  t[s]:   5473.94
ElecMinimize: Converged (|Delta F|<1.000000e-08 for 2 iters).
Setting wave functions to eigenvectors of Hamiltonian

# Ionic positions in cartesian coordinates:
ion Ti   4.090247082120944  11.662906749999998  13.227953386363634 1
ion Ti   6.917560736060874   7.066849250000000   4.409317886363636 1
ion Ti   4.090247082120944  21.200547250000000  13.227953386363634 1
ion Ti   6.917560736060874  16.604489749999999   4.409317886363636 1
ion W   1.795962264332489   7.102615413515130   8.773120920885631 1
ion W   1.795962264332489   7.031083086484871   0.045514851841642 1
ion W   9.211845553849329  11.627140586484870   8.864150351841642 1
ion W   9.211845553849329  11.698672913515130  17.591756420885631 1
ion W   1.795962264332489  16.640255913515130   8.773120920885631 1
ion W   1.795962264332489  16.568723586484872   0.045514851841642 1
ion W   9.211845553849329  21.164781086484872   8.864150351841642 1
ion W   9.211845553849329  21.236313413515127  17.591756420885631 1
ion O   3.717402612361194  14.710008666349820  15.197708998518387 1
ion O   3.717402612361194   8.615804833650179  11.258197774208885 1
ion O   7.290405205820625   4.019747333650177   2.439562274208884 1
ion O   7.290405205820625  10.113951166349821   6.379073498518387 1
ion O   9.748266737471013   5.359926125923421   6.937450040214718 1
ion O   9.748266737471013   8.773772374076579   1.881185732512556 1
ion O   1.259541080710806  13.369829874076579  10.699821232512557 1
ion O   1.259541080710806   9.955983625923418  15.756085540214714 1
ion O   6.635124639311500  10.528115040951031  15.507461266041062 1
ion O   6.635124639311500  12.797698459048970  10.948445506686211 1
ion O   4.372683178870321   8.201640959048969   2.129810006686210 1
ion O   4.372683178870321   5.932057540951030   6.688825766041064 1
ion O   9.814036963309764  14.584791245200730  15.693505188620685 1
ion O   1.193770854872055   4.144964754799268   1.943766084106586 1
ion O   9.814036963309764   8.741022254799269  10.762401584106586 1
ion O   1.193770854872055   9.988733745200731   6.874869688620686 1
ion O   3.717402612361194  24.247649166349824  15.197708998518387 1
ion O   3.717402612361194  18.153445333650176  11.258197774208885 1
ion O   7.290405205820625  13.557387833650179   2.439562274208884 1
ion O   7.290405205820625  19.651591666349823   6.379073498518387 1
ion O   9.748266737471013  14.897566625923421   6.937450040214718 1
ion O   9.748266737471013  18.311412874076581   1.881185732512556 1
ion O   1.259541080710806  22.907470374076581  10.699821232512557 1
ion O   1.259541080710806  19.493624125923418  15.756085540214714 1
ion O   6.635124639311500  20.065755540951031  15.507461266041062 1
ion O   6.635124639311500  22.335338959048968  10.948445506686211 1
ion O   4.372683178870321  17.739281459048968   2.129810006686210 1
ion O   4.372683178870321  15.469698040951030   6.688825766041064 1
ion O   9.814036963309764  24.122431745200728  15.693505188620685 1
ion O   1.193770854872055  13.682605254799268   1.943766084106586 1
ion O   9.814036963309764  18.278662754799267  10.762401584106586 1
ion O   1.193770854872055  19.526374245200735   6.874869688620686 1

# Forces in Cartesian coordinates:
force Ti  -0.003973777208224  -0.000000000000000   0.000000000000000 1
force Ti   0.003973777208224  -0.000000000000000   0.000000000000000 1
force Ti  -0.003973777208224   0.000000000000000  -0.000000000000000 1
force Ti   0.003973777208224   0.000000000000000  -0.000000000000000 1
force W   0.005154728142414   0.002849321697557  -0.005133253537294 1
force W   0.005154728142415  -0.002849321697557   0.005133253537293 1
force W  -0.005154728142415  -0.002849321697557   0.005133253537293 1
force W  -0.005154728142415   0.002849321697557  -0.005133253537293 1
force W   0.005154728142415   0.002849321697557  -0.005133253537293 1
force W   0.005154728142415  -0.002849321697557   0.005133253537293 1
force W  -0.005154728142414  -0.002849321697557   0.005133253537293 1
force W  -0.005154728142415   0.002849321697557  -0.005133253537293 1
force O  -0.003912472493229   0.001599664764025   0.003368772805385 1
force O  -0.003912472493230  -0.001599664764025  -0.003368772805385 1
force O   0.003912472493230  -0.001599664764025  -0.003368772805385 1
force O   0.003912472493229   0.001599664764025   0.003368772805385 1
force O  -0.000140989806030  -0.001419191213592   0.003257357419472 1
force O  -0.000140989806030   0.001419191213592  -0.003257357419472 1
force O   0.000140989806030   0.001419191213592  -0.003257357419473 1
force O   0.000140989806030  -0.001419191213592   0.003257357419472 1
force O   0.004857059858031   0.002954446605762   0.003059258776633 1
force O   0.004857059858031  -0.002954446605762  -0.003059258776633 1
force O  -0.004857059858031  -0.002954446605762  -0.003059258776633 1
force O  -0.004857059858031   0.002954446605762   0.003059258776634 1
force O  -0.000684762185639  -0.008671655728030   0.004971694745124 1
force O   0.000684762185638   0.008671655728030  -0.004971694745124 1
force O  -0.000684762185639   0.008671655728030  -0.004971694745125 1
force O   0.000684762185638  -0.008671655728029   0.004971694745124 1
force O  -0.003912472493230   0.001599664764025   0.003368772805385 1
force O  -0.003912472493230  -0.001599664764025  -0.003368772805385 1
force O   0.003912472493230  -0.001599664764025  -0.003368772805385 1
force O   0.003912472493229   0.001599664764025   0.003368772805385 1
force O  -0.000140989806030  -0.001419191213592   0.003257357419472 1
force O  -0.000140989806030   0.001419191213592  -0.003257357419473 1
force O   0.000140989806030   0.001419191213592  -0.003257357419473 1
force O   0.000140989806030  -0.001419191213592   0.003257357419473 1
force O   0.004857059858031   0.002954446605762   0.003059258776633 1
force O   0.004857059858031  -0.002954446605762  -0.003059258776633 1
force O  -0.004857059858031  -0.002954446605762  -0.003059258776633 1
force O  -0.004857059858031   0.002954446605761   0.003059258776634 1
force O  -0.000684762185638  -0.008671655728030   0.004971694745124 1
force O   0.000684762185638   0.008671655728029  -0.004971694745125 1
force O  -0.000684762185638   0.008671655728030  -0.004971694745124 1
force O   0.000684762185639  -0.008671655728030   0.004971694745124 1

# Energy components:
   Eewald =     -865.3738574359718996
       EH =      360.9931043570602469
     Eloc =    -1020.0361868684115052
      Enl =      -23.0281064916777467
      Exc =     -316.4923123432772627
 Exc_core =       94.1153089034618091
       KE =      470.7341907303809307
-------------------------------------
     Etot =    -1299.0878591484354274
       TS =        0.0000089553359300
-------------------------------------
        F =    -1299.0878681037713704

IonicMinimize: Iter:   1  F: -1299.087868103771370  |grad|_K:  3.915e-03  alpha:  1.000e+00  linmin: -9.560e-01  t[s]:   5503.71

#--- Lowdin population analysis ---
# oxidation-state Ti +1.776 +1.776 +1.776 +1.776
# oxidation-state W +0.963 +0.963 +0.963 +0.963 +0.963 +0.963 +0.963 +0.963
# oxidation-state O -0.426 -0.426 -0.426 -0.426 -0.525 -0.525 -0.525 -0.525 -0.426 -0.426 -0.426 -0.426 -0.333 -0.333 -0.333 -0.333 -0.426 -0.426 -0.426 -0.426 -0.525 -0.525 -0.525 -0.525 -0.426 -0.426 -0.426 -0.426 -0.333 -0.333 -0.333 -0.333


-------- Electronic minimization -----------
	FillingsUpdate:  mu: +0.292630862  nElectrons: 352.000000
ElecMinimize: Iter:   0  F: -1298.873997763710804  |grad|_K:  1.039e-04  alpha:  1.000e+00
	FillingsUpdate:  mu: +0.288000946  nElectrons: 352.000000
	SubspaceRotationAdjust: set factor to 0.891
ElecMinimize: Iter:   1  F: -1299.066413177054528  |grad|_K:  3.201e-05  alpha:  4.111e-01  linmin:  3.409e-05  t[s]:   5786.67
	FillingsUpdate:  mu: +0.294046733  nElectrons: 352.000000
	SubspaceRotationAdjust: set factor to 0.981
ElecMinimize: Iter:   2  F: -1299.083888957225327  |grad|_K:  1.784e-05  alpha:  3.932e-01  linmin:  1.101e-05  t[s]:   5941.05
	FillingsUpdate:  mu: +0.291264331  nElectrons: 352.000000
	SubspaceRotationAdjust: set factor to 1.1
ElecMinimize: Iter:   3  F: -1299.089026248613209  |grad|_K:  9.988e-06  alpha:  3.720e-01  linmin: -1.784e-05  t[s]:   6100.21
	FillingsUpdate:  mu: +0.292659823  nElectrons: 352.000000
	SubspaceRotationAdjust: set factor to 0.884
ElecMinimize: Iter:   4  F: -1299.090491763890213  |grad|_K:  5.551e-06  alpha:  3.381e-01  linmin:  1.946e-05  t[s]:   6250.97
	FillingsUpdate:  mu: +0.292098334  nElectrons: 352.000000
	SubspaceRotationAdjust: set factor to 0.569
ElecMinimize: Iter:   5  F: -1299.090875545408380  |grad|_K:  2.261e-06  alpha:  2.875e-01  linmin: -1.163e-05  t[s]:   6408.56
	FillingsUpdate:  mu: +0.292301625  nElectrons: 352.000000
	SubspaceRotationAdjust: set factor to 0.498
ElecMinimize: Iter:   6  F: -1299.090963418333104  |grad|_K:  1.052e-06  alpha:  3.961e-01  linmin:  9.644e-06  t[s]:   6569.60
	FillingsUpdate:  mu: +0.292178741  nElectrons: 352.000000
	SubspaceRotationAdjust: set factor to 0.556
ElecMinimize: Iter:   7  F: -1299.090986537034269  |grad|_K:  5.683e-07  alpha:  4.818e-01  linmin: -1.094e-06  t[s]:   6720.82
	FillingsUpdate:  mu: +0.292221466  nElectrons: 352.000000
	SubspaceRotationAdjust: set factor to 0.649
ElecMinimize: Iter:   8  F: -1299.090992602359847  |grad|_K:  3.377e-07  alpha:  4.328e-01  linmin:  1.395e-06  t[s]:   6867.94
	FillingsUpdate:  mu: +0.292205498  nElectrons: 352.000000
	SubspaceRotationAdjust: set factor to 0.741
ElecMinimize: Iter:   9  F: -1299.090994777195419  |grad|_K:  2.192e-07  alpha:  4.396e-01  linmin:  1.203e-06  t[s]:   7019.31
	FillingsUpdate:  mu: +0.292213458  nElectrons: 352.000000
	SubspaceRotationAdjust: set factor to 0.836
ElecMinimize: Iter:  10  F: -1299.090995491636932  |grad|_K:  1.211e-07  alpha:  3.428e-01  linmin:  5.669e-07  t[s]:   7169.59
	FillingsUpdate:  mu: +0.292215552  nElectrons: 352.000000
	SubspaceRotationAdjust: set factor to 1.01
ElecMinimize: Iter:  11  F: -1299.090995740906919  |grad|_K:  6.921e-08  alpha:  3.920e-01  linmin:  4.639e-07  t[s]:   7321.47
	FillingsUpdate:  mu: +0.292210033  nElectrons: 352.000000
	SubspaceRotationAdjust: set factor to 0.99
ElecMinimize: Iter:  12  F: -1299.090995809593551  |grad|_K:  4.120e-08  alpha:  3.305e-01  linmin:  7.947e-08  t[s]:   7476.55
	FillingsUpdate:  mu: +0.292214551  nElectrons: 352.000000
	SubspaceRotationAdjust: set factor to 0.812
ElecMinimize: Iter:  13  F: -1299.090995835038029  |grad|_K:  2.195e-08  alpha:  3.455e-01  linmin: -2.942e-07  t[s]:   7630.74
	FillingsUpdate:  mu: +0.292211435  nElectrons: 352.000000
	SubspaceRotationAdjust: set factor to 0.675
ElecMinimize: Iter:  14  F: -1299.090995842757593  |grad|_K:  1.334e-08  alpha:  3.686e-01  linmin:  3.296e-07  t[s]:   7778.44
	FillingsUpdate:  mu: +0.292212883  nElectrons: 352.000000
	SubspaceRotationAdjust: set factor to 0.771
ElecMinimize: Iter:  15  F: -1299.090995845423549  |grad|_K:  7.887e-09  alpha:  3.458e-01  linmin: -1.023e-06  t[s]:   7929.22
ElecMinimize: Converged (|Delta F|<1.000000e-08 for 2 iters).
Setting wave functions to eigenvectors of Hamiltonian

# Ionic positions in cartesian coordinates:
ion Ti   4.075383530416935  11.662906749999998  13.227953386363634 1
ion Ti   6.932424287764885   7.066849250000000   4.409317886363636 1
ion Ti   4.075383530416935  21.200547250000000  13.227953386363634 1
ion Ti   6.932424287764885  16.604489749999999   4.409317886363636 1
ion W   1.808805765670527   7.107659104570882   8.755902099571822 1
ion W   1.808805765670527   7.026039395429119   0.062733673155453 1
ion W   9.199002052511291  11.622096895429120   8.881369173155454 1
ion W   9.199002052511291  11.703716604570880  17.574537599571819 1
ion W   1.808805765670527  16.645299604570880   8.755902099571822 1
ion W   1.808805765670527  16.563679895429122   0.062733673155453 1
ion W   9.199002052511291  21.159737395429122   8.881369173155454 1
ion W   9.199002052511291  21.241357104570881  17.574537599571819 1
ion O   3.707170334542409  14.712387758744690  15.205072758406494 1
ion O   3.707170334542409   8.613425741255309  11.250834014320777 1
ion O   7.300637483639409   4.017368241255307   2.432198514320774 1
ion O   7.300637483639409  10.116330258744691   6.386437258406497 1
ion O   9.746841757475964   5.355872835762219   6.947322407859738 1
ion O   9.746841757475964   8.777825664237779   1.871313364867535 1
ion O   1.260966060705856  13.373883164237778  10.689948864867535 1
ion O   1.260966060705856   9.951930335762217  15.765957907859736 1
ion O   6.647091983281311  10.536906257854232  15.514230371920808 1
ion O   6.647091983281311  12.788907242145768  10.941676400806465 1
ion O   4.360715834900510   8.192849742145768   2.123040900806465 1
ion O   4.360715834900510   5.940848757854233   6.695594871920808 1
ion O   9.811114391151206  14.558255837035667  15.707230584164705 1
ion O   1.196693427030614   4.171500162964333   1.930040688562568 1
ion O   9.811114391151206   8.767557662964332  10.748676188562566 1
ion O   1.196693427030614   9.962198337035666   6.888595084164704 1
ion O   3.707170334542409  24.250028258744692  15.205072758406494 1
ion O   3.707170334542409  18.151066241255307  11.250834014320777 1
ion O   7.300637483639409  13.555008741255307   2.432198514320774 1
ion O   7.300637483639409  19.653970758744691   6.386437258406497 1
ion O   9.746841757475964  14.893513335762220   6.947322407859738 1
ion O   9.746841757475964  18.315466164237783   1.871313364867535 1
ion O   1.260966060705856  22.911523664237784  10.689948864867535 1
ion O   1.260966060705856  19.489570835762215  15.765957907859736 1
ion O   6.647091983281311  20.074546757854236  15.514230371920808 1
ion O   6.647091983281311  22.326547742145763  10.941676400806465 1
ion O   4.360715834900510  17.730490242145766   2.123040900806465 1
ion O   4.360715834900510  15.478489257854235   6.695594871920808 1
ion O   9.811114391151206  24.095896337035668  15.707230584164705 1
ion O   1.196693427030614  13.709140662964332   1.930040688562568 1
ion O   9.811114391151206  18.305198162964331  10.748676188562566 1
ion O   1.196693427030614  19.499838837035668   6.888595084164704 1

# Forces in Cartesian coordinates:
force Ti  -0.005800814653455   0.000000000000000  -0.000000000000000 1
force Ti   0.005800814653455   0.000000000000000  -0.000000000000000 1
force Ti  -0.005800814653455  -0.000000000000000   0.000000000000000 1
force Ti   0.005800814653455  -0.000000000000000   0.000000000000000 1
force W   0.000560173777117  -0.002980060791014  -0.001838259760793 1
force W   0.000560173777116   0.002980060791015   0.001838259760792 1
force W  -0.000560173777116   0.002980060791015   0.001838259760793 1
force W  -0.000560173777116  -0.002980060791014  -0.001838259760794 1
force W   0.000560173777116  -0.002980060791015  -0.001838259760793 1
force W   0.000560173777116   0.002980060791015   0.001838259760793 1
force W  -0.000560173777116   0.002980060791014   0.001838259760793 1
force W  -0.000560173777116  -0.002980060791014  -0.001838259760793 1
force O  -0.001071187628404  -0.001644667025829  -0.001009441836739 1
force O  -0.001071187628404   0.001644667025829   0.001009441836740 1
force O   0.001071187628404   0.001644667025828   0.001009441836740 1
force O   0.001071187628403  -0.001644667025828  -0.001009441836740 1
force O  -0.000862499256588   0.000818379084671   0.000955689013172 1
force O  -0.000862499256588  -0.000818379084671  -0.000955689013173 1
force O   0.000862499256587  -0.000818379084671  -0.000955689013173 1
force O   0.000862499256588   0.000818379084671   0.000955689013173 1
force O  -0.002166717979821   0.000082712738814  -0.002285904672845 1
force O  -0.002166717979821  -0.000082712738815   0.002285904672845 1
force O   0.002166717979821  -0.000082712738814   0.002285904672845 1
force O   0.002166717979821   0.000082712738815  -0.002285904672845 1
force O  -0.000806315880936  -0.001660487612586  -0.001654879037492 1
force O   0.000806315880937   0.001660487612586   0.001654879037492 1
force O  -0.000806315880936   0.001660487612586   0.001654879037491 1
force O   0.000806315880936  -0.001660487612586  -0.001654879037491 1
force O  -0.001071187628404  -0.001644667025828  -0.001009441836739 1
force O  -0.001071187628404   0.001644667025828   0.001009441836740 1
force O   0.001071187628404   0.001644667025828   0.001009441836740 1
force O   0.001071187628402  -0.001644667025829  -0.001009441836740 1
force O  -0.000862499256588   0.000818379084671   0.000955689013173 1
force O  -0.000862499256587  -0.000818379084671  -0.000955689013173 1
force O   0.000862499256588  -0.000818379084671  -0.000955689013172 1
force O   0.000862499256588   0.000818379084671   0.000955689013173 1
force O  -0.002166717979821   0.000082712738814  -0.002285904672844 1
force O  -0.002166717979821  -0.000082712738814   0.002285904672845 1
force O   0.002166717979821  -0.000082712738815   0.002285904672845 1
force O   0.002166717979821   0.000082712738815  -0.002285904672845 1
force O  -0.000806315880936  -0.001660487612586  -0.001654879037491 1
force O   0.000806315880936   0.001660487612586   0.001654879037491 1
force O  -0.000806315880936   0.001660487612586   0.001654879037492 1
force O   0.000806315880936  -0.001660487612586  -0.001654879037492 1

# Energy components:
   Eewald =     -863.3256608018799625
       EH =      362.9952126070226655
     Eloc =    -1024.2853176376174815
      Enl =      -23.0457374147522174
      Exc =     -316.6030765373986924
 Exc_core =       94.1153386076490790
       KE =      471.0582540496391175
-------------------------------------
     Etot =    -1299.0909871273374847
       TS =        0.0000087180861137
-------------------------------------
        F =    -1299.0909958454235493

IonicMinimize: Iter:   2  F: -1299.090995845423549  |grad|_K:  1.787e-03  alpha:  1.000e+00  linmin: -1.734e-01  t[s]:   7958.30

#--- Lowdin population analysis ---
# oxidation-state Ti +1.783 +1.783 +1.783 +1.783
# oxidation-state W +0.960 +0.960 +0.960 +0.960 +0.960 +0.960 +0.960 +0.960
# oxidation-state O -0.428 -0.428 -0.428 -0.428 -0.530 -0.530 -0.530 -0.530 -0.422 -0.422 -0.422 -0.422 -0.329 -0.329 -0.329 -0.329 -0.428 -0.428 -0.428 -0.428 -0.530 -0.530 -0.530 -0.530 -0.422 -0.422 -0.422 -0.422 -0.329 -0.329 -0.329 -0.329


-------- Electronic minimization -----------
	FillingsUpdate:  mu: +0.292386706  nElectrons: 352.000000
ElecMinimize: Iter:   0  F: -1299.091137900347121  |grad|_K:  4.568e-06  alpha:  1.000e+00
	FillingsUpdate:  mu: +0.292117708  nElectrons: 352.000000
	SubspaceRotationAdjust: set factor to 0.657
ElecMinimize: Iter:   1  F: -1299.091633186454601  |grad|_K:  2.746e-06  alpha:  5.468e-01  linmin: -7.103e-06  t[s]:   8252.19
	FillingsUpdate:  mu: +0.292290798  nElectrons: 352.000000
	SubspaceRotationAdjust: set factor to 0.73
ElecMinimize: Iter:   2  F: -1299.091777200556862  |grad|_K:  1.583e-06  alpha:  4.401e-01  linmin: -9.064e-06  t[s]:   8400.91
	FillingsUpdate:  mu: +0.292260694  nElectrons: 352.000000
	SubspaceRotationAdjust: set factor to 0.995
ElecMinimize: Iter:   3  F: -1299.091828057738439  |grad|_K:  6.132e-07  alpha:  4.674e-01  linmin:  1.479e-06  t[s]:   8551.97
	FillingsUpdate:  mu: +0.292241032  nElectrons: 352.000000
	SubspaceRotationAdjust: set factor to 1.07
ElecMinimize: Iter:   4  F: -1299.091834706370719  |grad|_K:  2.785e-07  alpha:  4.074e-01  linmin: -1.986e-07  t[s]:   8695.78
	FillingsUpdate:  mu: +0.292257068  nElectrons: 352.000000
	SubspaceRotationAdjust: set factor to 1.11
ElecMinimize: Iter:   5  F: -1299.091835667796204  |grad|_K:  1.263e-07  alpha:  2.857e-01  linmin:  5.173e-08  t[s]:   8846.54
	FillingsUpdate:  mu: +0.292245857  nElectrons: 352.000000
	SubspaceRotationAdjust: set factor to 1.12
ElecMinimize: Iter:   6  F: -1299.091835928681348  |grad|_K:  6.351e-08  alpha:  3.770e-01  linmin: -5.813e-08  t[s]:   9001.73
	FillingsUpdate:  mu: +0.292254124  nElectrons: 352.000000
	SubspaceRotationAdjust: set factor to 0.899
ElecMinimize: Iter:   7  F: -1299.091835978271547  |grad|_K:  3.314e-08  alpha:  2.833e-01  linmin:  2.197e-07  t[s]:   9148.67
	FillingsUpdate:  mu: +0.292249565  nElectrons: 352.000000
	SubspaceRotationAdjust: set factor to 0.662
ElecMinimize: Iter:   8  F: -1299.091835994600842  |grad|_K:  1.902e-08  alpha:  3.430e-01  linmin:  1.595e-06  t[s]:   9304.78
	FillingsUpdate:  mu: +0.292251462  nElectrons: 352.000000
	SubspaceRotationAdjust: set factor to 0.587
ElecMinimize: Iter:   9  F: -1299.091836000370904  |grad|_K:  1.211e-08  alpha:  3.667e-01  linmin: -9.920e-07  t[s]:   9459.98
	FillingsUpdate:  mu: +0.292251029  nElectrons: 352.000000
	SubspaceRotationAdjust: set factor to 0.652
ElecMinimize: Iter:  10  F: -1299.091836003037997  |grad|_K:  7.789e-09  alpha:  4.153e-01  linmin: -2.830e-06  t[s]:   9609.40
ElecMinimize: Converged (|Delta F|<1.000000e-08 for 2 iters).
Setting wave functions to eigenvectors of Hamiltonian

# Ionic positions in cartesian coordinates:
ion Ti   4.059854634693272  11.662906749999998  13.227953386363634 1
ion Ti   6.947953183488547   7.066849250000000   4.409317886363636 1
ion Ti   4.059854634693272  21.200547250000000  13.227953386363634 1
ion Ti   6.947953183488547  16.604489749999999   4.409317886363636 1
ion W   1.813918510772795   7.103122803450734   8.748912063436730 1
ion W   1.813918510772795   7.030575696549265   0.069723709290544 1
ion W   9.193889307409023  11.626633196549266   8.888359209290545 1
ion W   9.193889307409023  11.699180303450735  17.567547563436730 1
ion W   1.813918510772795  16.640763303450733   8.748912063436730 1
ion W   1.813918510772795  16.568216196549269   0.069723709290544 1
ion W   9.193889307409023  21.164273696549269   8.888359209290545 1
ion W   9.193889307409023  21.236820803450733  17.567547563436730 1
ion O   3.701865338003515  14.710029868513246  15.205381013724224 1
ion O   3.701865338003515   8.615783631486751  11.250525759003047 1
ion O   7.305942480178304   4.019726131486750   2.431890259003045 1
ion O   7.305942480178304  10.113972368513249   6.386745513724227 1
ion O   9.744950967614507   5.356941712610581   6.951532015999563 1
ion O   9.744950967614507   8.776756787389417   1.867103756727710 1
ion O   1.262856850567313  13.372814287389417  10.685739256727711 1
ion O   1.262856850567313   9.952999212610580  15.770167515999560 1
ion O   6.645466178336749  10.538882452915320  15.511196158985207 1
ion O   6.645466178336749  12.786931047084678  10.944710613742066 1
ion O   4.362341639845072   8.190873547084680   2.126075113742067 1
ion O   4.362341639845072   5.942824952915321   6.692560658985205 1
ion O   9.808999480301516  14.549241613323455  15.706526878611211 1
ion O   1.198808337880303   4.180514386676546   1.930744394116062 1
ion O   9.808999480301516   8.776571886676546  10.749379894116061 1
ion O   1.198808337880303   9.953184113323454   6.887891378611211 1
ion O   3.701865338003515  24.247670368513248  15.205381013724224 1
ion O   3.701865338003515  18.153424131486751  11.250525759003047 1
ion O   7.305942480178304  13.557366631486751   2.431890259003045 1
ion O   7.305942480178304  19.651612868513251   6.386745513724227 1
ion O   9.744950967614507  14.894582212610581   6.951532015999563 1
ion O   9.744950967614507  18.314397287389419   1.867103756727710 1
ion O   1.262856850567313  22.910454787389419  10.685739256727711 1
ion O   1.262856850567313  19.490639712610580  15.770167515999560 1
ion O   6.645466178336749  20.076522952915326  15.511196158985207 1
ion O   6.645466178336749  22.324571547084673  10.944710613742066 1
ion O   4.362341639845072  17.728514047084676   2.126075113742067 1
ion O   4.362341639845072  15.480465452915324   6.692560658985205 1
ion O   9.808999480301516  24.086882113323455  15.706526878611211 1
ion O   1.198808337880303  13.718154886676546   1.930744394116062 1
ion O   9.808999480301516  18.314212386676544  10.749379894116061 1
ion O   1.198808337880303  19.490824613323454   6.887891378611211 1

# Forces in Cartesian coordinates:
force Ti  -0.005305484271265  -0.000000000000000  -0.000000000000000 1
force Ti   0.005305484271265   0.000000000000000   0.000000000000000 1
force Ti  -0.005305484271265   0.000000000000000  -0.000000000000000 1
force Ti   0.005305484271265   0.000000000000000   0.000000000000000 1
force W   0.000134866620785  -0.001543027031490  -0.001465884263862 1
force W   0.000134866620786   0.001543027031490   0.001465884263862 1
force W  -0.000134866620786   0.001543027031490   0.001465884263862 1
force W  -0.000134866620786  -0.001543027031490  -0.001465884263862 1
force W   0.000134866620786  -0.001543027031490  -0.001465884263862 1
force W   0.000134866620785   0.001543027031490   0.001465884263862 1
force W  -0.000134866620786   0.001543027031489   0.001465884263863 1
force W  -0.000134866620786  -0.001543027031490  -0.001465884263862 1
force O  -0.000974433258935  -0.001421762441634  -0.001092268898962 1
force O  -0.000974433258935   0.001421762441634   0.001092268898962 1
force O   0.000974433258936   0.001421762441634   0.001092268898962 1
force O   0.000974433258936  -0.001421762441634  -0.001092268898962 1
force O  -0.000736130461159   0.001342738989765   0.000377004928007 1
force O  -0.000736130461159  -0.001342738989765  -0.000377004928007 1
force O   0.000736130461159  -0.001342738989765  -0.000377004928006 1
force O   0.000736130461159   0.001342738989765   0.000377004928007 1
force O  -0.002988658233425  -0.000581654198997  -0.002522979543991 1
force O  -0.002988658233425   0.000581654198997   0.002522979543991 1
force O   0.002988658233425   0.000581654198997   0.002522979543991 1
force O   0.002988658233425  -0.000581654198996  -0.002522979543992 1
force O  -0.000449291801868  -0.000668276433191  -0.002057041551901 1
force O   0.000449291801869   0.000668276433190   0.002057041551901 1
force O  -0.000449291801868   0.000668276433190   0.002057041551901 1
force O   0.000449291801868  -0.000668276433190  -0.002057041551902 1
force O  -0.000974433258935  -0.001421762441634  -0.001092268898962 1
force O  -0.000974433258936   0.001421762441634   0.001092268898962 1
force O   0.000974433258935   0.001421762441634   0.001092268898962 1
force O   0.000974433258936  -0.001421762441634  -0.001092268898962 1
force O  -0.000736130461159   0.001342738989765   0.000377004928007 1
force O  -0.000736130461159  -0.001342738989765  -0.000377004928006 1
force O   0.000736130461159  -0.001342738989765  -0.000377004928007 1
force O   0.000736130461159   0.001342738989765   0.000377004928007 1
force O  -0.002988658233425  -0.000581654198997  -0.002522979543992 1
force O  -0.002988658233425   0.000581654198997   0.002522979543992 1
force O   0.002988658233425   0.000581654198997   0.002522979543991 1
force O   0.002988658233425  -0.000581654198997  -0.002522979543991 1
force O  -0.000449291801868  -0.000668276433190  -0.002057041551902 1
force O   0.000449291801868   0.000668276433190   0.002057041551902 1
force O  -0.000449291801869   0.000668276433190   0.002057041551901 1
force O   0.000449291801868  -0.000668276433190  -0.002057041551901 1

# Energy components:
   Eewald =     -863.0484239191787310
       EH =      363.2813464077020171
     Eloc =    -1024.8750422694854478
      Enl =      -23.0469508336334954
      Exc =     -316.6166840217025538
 Exc_core =       94.1153540188009998
       KE =      471.0985734154306215
-------------------------------------
     Etot =    -1299.0918272020667246
       TS =        0.0000088009713621
-------------------------------------
        F =    -1299.0918360030379972

IonicMinimize: Iter:   3  F: -1299.091836003037997  |grad|_K:  1.666e-03  alpha:  1.000e+00  linmin: -6.990e-01  t[s]:   9637.91

#--- Lowdin population analysis ---
# oxidation-state Ti +1.783 +1.783 +1.783 +1.783
# oxidation-state W +0.959 +0.959 +0.959 +0.959 +0.959 +0.959 +0.959 +0.959
# oxidation-state O -0.430 -0.430 -0.430 -0.430 -0.531 -0.531 -0.531 -0.531 -0.421 -0.421 -0.421 -0.421 -0.329 -0.329 -0.329 -0.329 -0.430 -0.430 -0.430 -0.430 -0.531 -0.531 -0.531 -0.531 -0.421 -0.421 -0.421 -0.421 -0.329 -0.329 -0.329 -0.329


-------- Electronic minimization -----------
	FillingsUpdate:  mu: +0.293557421  nElectrons: 352.000000
ElecMinimize: Iter:   0  F: -1297.515727975545587  |grad|_K:  2.670e-04  alpha:  1.000e+00
	FillingsUpdate:  mu: +0.297972626  nElectrons: 352.000000
	SubspaceRotationAdjust: set factor to 1.07
ElecMinimize: Iter:   1  F: -1298.813170702796469  |grad|_K:  1.089e-04  alpha:  4.193e-01  linmin:  1.488e-04  t[s]:   9918.70
	FillingsUpdate:  mu: +0.289879676  nElectrons: 352.000000
	SubspaceRotationAdjust: set factor to 1.45
ElecMinimize: Iter:   2  F: -1299.002194303204078  |grad|_K:  6.640e-05  alpha:  3.679e-01  linmin:  2.003e-04  t[s]:  10078.62
	FillingsUpdate:  mu: +0.294140542  nElectrons: 352.000000
	SubspaceRotationAdjust: set factor to 1.55
ElecMinimize: Iter:   3  F: -1299.077688619693845  |grad|_K:  2.980e-05  alpha:  3.978e-01  linmin: -7.462e-05  t[s]:  10236.54
	FillingsUpdate:  mu: +0.290338156  nElectrons: 352.000000
	SubspaceRotationAdjust: set factor to 1.34
ElecMinimize: Iter:   4  F: -1299.089993552441911  |grad|_K:  1.927e-05  alpha:  3.184e-01  linmin: -2.376e-05  t[s]:  10385.90
	FillingsUpdate:  mu: +0.293547333  nElectrons: 352.000000
	SubspaceRotationAdjust: set factor to 0.874
ElecMinimize: Iter:   5  F: -1299.093375706298502  |grad|_K:  9.931e-06  alpha:  2.078e-01  linmin: -9.835e-06  t[s]:  10534.90
	FillingsUpdate:  mu: +0.292429331  nElectrons: 352.000000
	SubspaceRotationAdjust: set factor to 0.894
ElecMinimize: Iter:   6  F: -1299.094438996414283  |grad|_K:  4.466e-06  alpha:  2.482e-01  linmin: -3.168e-05  t[s]:  10690.11
	FillingsUpdate:  mu: +0.292326974  nElectrons: 352.000000
	SubspaceRotationAdjust: set factor to 1.02
ElecMinimize: Iter:   7  F: -1299.094765315148607  |grad|_K:  2.587e-06  alpha:  3.765e-01  linmin:  2.060e-06  t[s]:  10844.33
	FillingsUpdate:  mu: +0.292692110  nElectrons: 352.000000
	SubspaceRotationAdjust: set factor to 0.956
ElecMinimize: Iter:   8  F: -1299.094867215884278  |grad|_K:  1.678e-06  alpha:  3.509e-01  linmin:  5.845e-06  t[s]:  10996.24
	FillingsUpdate:  mu: +0.292443723  nElectrons: 352.000000
	SubspaceRotationAdjust: set factor to 0.891
ElecMinimize: Iter:   9  F: -1299.094905771934236  |grad|_K:  1.015e-06  alpha:  3.157e-01  linmin:  3.856e-07  t[s]:  11144.69
	FillingsUpdate:  mu: +0.292510495  nElectrons: 352.000000
	SubspaceRotationAdjust: set factor to 0.941
ElecMinimize: Iter:  10  F: -1299.094922202817543  |grad|_K:  5.287e-07  alpha:  3.677e-01  linmin:  1.023e-06  t[s]:  11298.25
	FillingsUpdate:  mu: +0.292542654  nElectrons: 352.000000
	SubspaceRotationAdjust: set factor to 0.994
ElecMinimize: Iter:  11  F: -1299.094926801157499  |grad|_K:  3.194e-07  alpha:  3.791e-01  linmin:  2.255e-07  t[s]:  11450.98
	FillingsUpdate:  mu: +0.292499530  nElectrons: 352.000000
	SubspaceRotationAdjust: set factor to 0.951
ElecMinimize: Iter:  12  F: -1299.094928083157583  |grad|_K:  1.886e-07  alpha:  2.896e-01  linmin:  6.244e-09  t[s]:  11599.75
	FillingsUpdate:  mu: +0.292515410  nElectrons: 352.000000
	SubspaceRotationAdjust: set factor to 0.917
ElecMinimize: Iter:  13  F: -1299.094928655779768  |grad|_K:  1.030e-07  alpha:  3.708e-01  linmin:  2.486e-07  t[s]:  11751.31
	FillingsUpdate:  mu: +0.292515967  nElectrons: 352.000000
	SubspaceRotationAdjust: set factor to 0.984
ElecMinimize: Iter:  14  F: -1299.094928826719070  |grad|_K:  6.618e-08  alpha:  3.711e-01  linmin:  3.806e-07  t[s]:  11902.27
	FillingsUpdate:  mu: +0.292513610  nElectrons: 352.000000
	SubspaceRotationAdjust: set factor to 1.05
ElecMinimize: Iter:  15  F: -1299.094928893894121  |grad|_K:  3.982e-08  alpha:  3.534e-01  linmin: -4.763e-07  t[s]:  12054.73
	FillingsUpdate:  mu: +0.292515562  nElectrons: 352.000000
	SubspaceRotationAdjust: set factor to 0.982
ElecMinimize: Iter:  16  F: -1299.094928915704713  |grad|_K:  2.415e-08  alpha:  3.170e-01  linmin:  8.077e-09  t[s]:  12207.02
	FillingsUpdate:  mu: +0.292513866  nElectrons: 352.000000
	SubspaceRotationAdjust: set factor to 0.996
ElecMinimize: Iter:  17  F: -1299.094928924751457  |grad|_K:  1.297e-08  alpha:  3.577e-01  linmin:  1.308e-06  t[s]:  12356.68
	FillingsUpdate:  mu: +0.292514889  nElectrons: 352.000000
	SubspaceRotationAdjust: set factor to 1.07
ElecMinimize: Iter:  18  F: -1299.094928927403089  |grad|_K:  8.079e-09  alpha:  3.637e-01  linmin: -2.960e-07  t[s]:  12511.55
ElecMinimize: Converged (|Delta F|<1.000000e-08 for 2 iters).
Setting wave functions to eigenvectors of Hamiltonian

# Ionic positions in cartesian coordinates:
ion Ti   3.959854634693272  11.662906749999998  13.227953386363634 1
ion Ti   7.047953183488547   7.066849250000000   4.409317886363636 1
ion Ti   3.959854634693272  21.200547250000000  13.227953386363634 1
ion Ti   7.047953183488547  16.604489749999999   4.409317886363636 1
ion W   1.841544580939726   7.098522238146507   8.706352458102170 1
ion W   1.841544580939726   7.035176261853493   0.112283314625104 1
ion W   9.166263237242092  11.631233761853494   8.930918814625105 1
ion W   9.166263237242092  11.694579738146507  17.524987958102169 1
ion W   1.841544580939726  16.636162738146506   8.706352458102170 1
ion W   1.841544580939726  16.572816761853495   0.112283314625104 1
ion W   9.166263237242092  21.168874261853496   8.930918814625105 1
ion W   9.166263237242092  21.232220238146507  17.524987958102169 1
ion O   3.666529145965455  14.697522116865210  15.205775749032988 1
ion O   3.666529145965455   8.628291383134789  11.250131023694282 1
ion O   7.341278672216364   4.032233883134786   2.431495523694281 1
ion O   7.341278672216364  10.101464616865211   6.387140249032991 1
ion O   9.733954506667748   5.374344039852701   6.970222380483696 1
ion O   9.733954506667748   8.759354460147296   1.848413392243577 1
ion O   1.273853311514072  13.355411960147297  10.667048892243578 1
ion O   1.273853311514072   9.970401539852700  15.788857880483693 1
ion O   6.618371758548599  10.540260410357002  15.485304127660870 1
ion O   6.618371758548599  12.785553089642999  10.970602645066403 1
ion O   4.389436059633224   8.189495589642998   2.151967145066404 1
ion O   4.389436059633224   5.944202910357001   6.666668627660869 1
ion O   9.800819312768139  14.504282790624043  15.694170746995855 1
ion O   1.206988505413681   4.225473209375958   1.943100525731417 1
ion O   9.800819312768139   8.821530709375958  10.761736025731416 1
ion O   1.206988505413681   9.908225290624042   6.875535246995855 1
ion O   3.666529145965455  24.235162616865214  15.205775749032988 1
ion O   3.666529145965455  18.165931883134785  11.250131023694282 1
ion O   7.341278672216364  13.569874383134787   2.431495523694281 1
ion O   7.341278672216364  19.639105116865210   6.387140249032991 1
ion O   9.733954506667748  14.911984539852703   6.970222380483696 1
ion O   9.733954506667748  18.296994960147298   1.848413392243577 1
ion O   1.273853311514072  22.893052460147299  10.667048892243578 1
ion O   1.273853311514072  19.508042039852697  15.788857880483693 1
ion O   6.618371758548599  20.077900910357005  15.485304127660870 1
ion O   6.618371758548599  22.323193589642994  10.970602645066403 1
ion O   4.389436059633224  17.727136089642997   2.151967145066404 1
ion O   4.389436059633224  15.481843410357005   6.666668627660869 1
ion O   9.800819312768139  24.041923290624037  15.694170746995855 1
ion O   1.206988505413681  13.763113709375959   1.943100525731417 1
ion O   9.800819312768139  18.359171209375958  10.761736025731416 1
ion O   1.206988505413681  19.445865790624040   6.875535246995855 1

# Forces in Cartesian coordinates:
force Ti  -0.003705293268311   0.000000000000000  -0.000000000000000 1
force Ti   0.003705293268312   0.000000000000000  -0.000000000000000 1
force Ti  -0.003705293268312   0.000000000000000   0.000000000000000 1
force Ti   0.003705293268311  -0.000000000000000   0.000000000000000 1
force W   0.003260469988483  -0.005915714839444  -0.001491631995363 1
force W   0.003260469988483   0.005915714839444   0.001491631995363 1
force W  -0.003260469988483   0.005915714839444   0.001491631995363 1
force W  -0.003260469988482  -0.005915714839444  -0.001491631995363 1
force W   0.003260469988482  -0.005915714839444  -0.001491631995363 1
force W   0.003260469988483   0.005915714839444   0.001491631995363 1
force W  -0.003260469988482   0.005915714839445   0.001491631995362 1
force W  -0.003260469988483  -0.005915714839444  -0.001491631995363 1
force O  -0.000445730207261   0.000922698860130  -0.000153252725180 1
force O  -0.000445730207261  -0.000922698860130   0.000153252725180 1
force O   0.000445730207260  -0.000922698860130   0.000153252725179 1
force O   0.000445730207261   0.000922698860130  -0.000153252725180 1
force O   0.000941335767397   0.001806719749257  -0.000526215053739 1
force O   0.000941335767397  -0.001806719749257   0.000526215053739 1
force O  -0.000941335767397  -0.001806719749257   0.000526215053739 1
force O  -0.000941335767397   0.001806719749257  -0.000526215053739 1
force O  -0.001282447619089  -0.001078171663313   0.000874269907089 1
force O  -0.001282447619089   0.001078171663313  -0.000874269907089 1
force O   0.001282447619089   0.001078171663312  -0.000874269907088 1
force O   0.001282447619089  -0.001078171663313   0.000874269907089 1
force O   0.001161679704876   0.006825851279056  -0.005178975013779 1
force O  -0.001161679704875  -0.006825851279056   0.005178975013780 1
force O   0.001161679704876  -0.006825851279057   0.005178975013780 1
force O  -0.001161679704876   0.006825851279056  -0.005178975013779 1
force O  -0.000445730207260   0.000922698860131  -0.000153252725180 1
force O  -0.000445730207260  -0.000922698860130   0.000153252725179 1
force O   0.000445730207260  -0.000922698860130   0.000153252725180 1
force O   0.000445730207259   0.000922698860130  -0.000153252725180 1
force O   0.000941335767397   0.001806719749257  -0.000526215053739 1
force O   0.000941335767397  -0.001806719749257   0.000526215053739 1
force O  -0.000941335767397  -0.001806719749257   0.000526215053739 1
force O  -0.000941335767397   0.001806719749257  -0.000526215053739 1
force O  -0.001282447619089  -0.001078171663313   0.000874269907089 1
force O  -0.001282447619089   0.001078171663313  -0.000874269907089 1
force O   0.001282447619089   0.001078171663313  -0.000874269907089 1
force O   0.001282447619089  -0.001078171663313   0.000874269907089 1
force O   0.001161679704875   0.006825851279057  -0.005178975013780 1
force O  -0.001161679704875  -0.006825851279057   0.005178975013780 1
force O   0.001161679704875  -0.006825851279056   0.005178975013780 1
force O  -0.001161679704876   0.006825851279056  -0.005178975013779 1

# Energy components:
   Eewald =     -861.8731821620466462
       EH =      364.5261496571365001
     Eloc =    -1027.3901004639787971
      Enl =      -23.0524360484201196
      Exc =     -316.6634281953711252
 Exc_core =       94.1154972604405771
       KE =      471.2425782856107617
-------------------------------------
     Etot =    -1299.0949216666288066
       TS =        0.0000072607743785
-------------------------------------
        F =    -1299.0949289274030889

IonicMinimize: Iter:   4  F: -1299.094928927403089  |grad|_K:  2.898e-03  alpha:  9.109e-01  linmin: -1.024e-01  t[s]:  12541.28

#--- Lowdin population analysis ---
# oxidation-state Ti +1.785 +1.785 +1.785 +1.785
# oxidation-state W +0.954 +0.954 +0.954 +0.954 +0.954 +0.954 +0.954 +0.954
# oxidation-state O -0.432 -0.432 -0.432 -0.432 -0.535 -0.535 -0.535 -0.535 -0.419 -0.419 -0.419 -0.419 -0.319 -0.319 -0.319 -0.319 -0.432 -0.432 -0.432 -0.432 -0.535 -0.535 -0.535 -0.535 -0.419 -0.419 -0.419 -0.419 -0.319 -0.319 -0.319 -0.319


-------- Electronic minimization -----------
	FillingsUpdate:  mu: +0.302012888  nElectrons: 352.000000
ElecMinimize: Iter:   0  F: -1297.435630320300561  |grad|_K:  2.996e-04  alpha:  1.000e+00
	FillingsUpdate:  mu: +0.299902508  nElectrons: 352.000000
	SubspaceRotationAdjust: set factor to 1.62
ElecMinimize: Iter:   1  F: -1298.910397527530904  |grad|_K:  1.070e-04  alpha:  3.796e-01  linmin:  1.552e-04  t[s]:  12817.53
	FillingsUpdate:  mu: +0.287050308  nElectrons: 352.000000
	SubspaceRotationAdjust: set factor to 1.44
ElecMinimize: Iter:   2  F: -1299.047719149593377  |grad|_K:  5.602e-05  alpha:  2.787e-01  linmin: -2.171e-05  t[s]:  12962.50
	FillingsUpdate:  mu: +0.297065671  nElectrons: 352.000000
	SubspaceRotationAdjust: set factor to 0.922
ElecMinimize: Iter:   3  F: -1299.079194095649655  |grad|_K:  3.562e-05  alpha:  2.294e-01  linmin:  1.355e-04  t[s]:  13112.88
	FillingsUpdate:  mu: +0.292442225  nElectrons: 352.000000
	SubspaceRotationAdjust: set factor to 0.664
ElecMinimize: Iter:   4  F: -1299.092187545337993  |grad|_K:  1.312e-05  alpha:  2.379e-01  linmin: -1.600e-04  t[s]:  13264.13
	FillingsUpdate:  mu: +0.293515908  nElectrons: 352.000000
	SubspaceRotationAdjust: set factor to 0.659
ElecMinimize: Iter:   5  F: -1299.095378403637824  |grad|_K:  7.792e-06  alpha:  4.247e-01  linmin:  1.843e-05  t[s]:  13416.55
	FillingsUpdate:  mu: +0.293318810  nElectrons: 352.000000
	SubspaceRotationAdjust: set factor to 0.676
ElecMinimize: Iter:   6  F: -1299.096433399137140  |grad|_K:  4.501e-06  alpha:  4.008e-01  linmin: -3.213e-08  t[s]:  13569.26
	FillingsUpdate:  mu: +0.293115158  nElectrons: 352.000000
	SubspaceRotationAdjust: set factor to 0.757
ElecMinimize: Iter:   7  F: -1299.096809390426188  |grad|_K:  2.775e-06  alpha:  4.276e-01  linmin:  2.890e-06  t[s]:  13716.33
	FillingsUpdate:  mu: +0.293304546  nElectrons: 352.000000
	SubspaceRotationAdjust: set factor to 0.865
ElecMinimize: Iter:   8  F: -1299.096927995870146  |grad|_K:  1.556e-06  alpha:  3.550e-01  linmin:  1.551e-06  t[s]:  13873.11
	FillingsUpdate:  mu: +0.293239067  nElectrons: 352.000000
	SubspaceRotationAdjust: set factor to 1.1
ElecMinimize: Iter:   9  F: -1299.096966688260409  |grad|_K:  9.082e-07  alpha:  3.683e-01  linmin:  6.327e-07  t[s]:  14022.47
	FillingsUpdate:  mu: +0.293220105  nElectrons: 352.000000
	SubspaceRotationAdjust: set factor to 1.28
ElecMinimize: Iter:  10  F: -1299.096978949004551  |grad|_K:  5.381e-07  alpha:  3.426e-01  linmin:  1.764e-07  t[s]:  14177.80
	FillingsUpdate:  mu: +0.293249832  nElectrons: 352.000000
	SubspaceRotationAdjust: set factor to 1.19
ElecMinimize: Iter:  11  F: -1299.096983491770970  |grad|_K:  2.954e-07  alpha:  3.616e-01  linmin:  9.433e-08  t[s]:  14331.38
	FillingsUpdate:  mu: +0.293223973  nElectrons: 352.000000
	SubspaceRotationAdjust: set factor to 0.881
ElecMinimize: Iter:  12  F: -1299.096984687408167  |grad|_K:  1.797e-07  alpha:  3.158e-01  linmin: -1.332e-07  t[s]:  14484.32
	FillingsUpdate:  mu: +0.293237826  nElectrons: 352.000000
	SubspaceRotationAdjust: set factor to 0.788
ElecMinimize: Iter:  13  F: -1299.096985174008523  |grad|_K:  1.057e-07  alpha:  3.471e-01  linmin:  6.122e-08  t[s]:  14637.50
	FillingsUpdate:  mu: +0.293232589  nElectrons: 352.000000
	SubspaceRotationAdjust: set factor to 0.88
ElecMinimize: Iter:  14  F: -1299.096985352390675  |grad|_K:  7.281e-08  alpha:  3.678e-01  linmin: -1.124e-07  t[s]:  14788.36
	FillingsUpdate:  mu: +0.293235454  nElectrons: 352.000000
	SubspaceRotationAdjust: set factor to 1.04
ElecMinimize: Iter:  15  F: -1299.096985441509105  |grad|_K:  3.916e-08  alpha:  3.874e-01  linmin: -1.121e-07  t[s]:  14937.15
	FillingsUpdate:  mu: +0.293235366  nElectrons: 352.000000
	SubspaceRotationAdjust: set factor to 1.08
ElecMinimize: Iter:  16  F: -1299.096985465872876  |grad|_K:  2.341e-08  alpha:  3.661e-01  linmin:  2.418e-07  t[s]:  15091.85
	FillingsUpdate:  mu: +0.293233589  nElectrons: 352.000000
	SubspaceRotationAdjust: set factor to 1.15
ElecMinimize: Iter:  17  F: -1299.096985473493078  |grad|_K:  1.284e-08  alpha:  3.209e-01  linmin: -9.235e-07  t[s]:  15245.27
	FillingsUpdate:  mu: +0.293235521  nElectrons: 352.000000
	SubspaceRotationAdjust: set factor to 0.983
ElecMinimize: Iter:  18  F: -1299.096985475910515  |grad|_K:  7.681e-09  alpha:  3.385e-01  linmin:  2.377e-06  t[s]:  15394.86
ElecMinimize: Converged (|Delta F|<1.000000e-08 for 2 iters).
Setting wave functions to eigenvectors of Hamiltonian

# Ionic positions in cartesian coordinates:
ion Ti   3.859854634693272  11.662906749999998  13.227953386363634 1
ion Ti   7.147953183488547   7.066849250000000   4.409317886363636 1
ion Ti   3.859854634693272  21.200547250000000  13.227953386363634 1
ion Ti   7.147953183488547  16.604489749999999   4.409317886363636 1
ion W   1.880279848528160   7.078662261045769   8.661288737287657 1
ion W   1.880279848528160   7.055036238954229   0.157347035439617 1
ion W   9.127527969653658  11.651093738954231   8.975982535439618 1
ion W   9.127527969653658  11.674719761045768  17.479924237287655 1
ion W   1.880279848528160  16.616302761045770   8.661288737287657 1
ion W   1.880279848528160  16.592676738954232   0.157347035439617 1
ion W   9.127527969653658  21.188734238954233   8.975982535439618 1
ion W   9.127527969653658  21.212360261045767  17.479924237287655 1
ion O   3.631752664516140  14.691957332659722  15.208570247873570 1
ion O   3.631752664516140   8.633856167340276  11.247336524853699 1
ion O   7.376055153665679   4.037798667340274   2.428701024853699 1
ion O   7.376055153665679  10.095899832659722   6.389934747873573 1
ion O   9.728008477576230   5.394695067469614   6.986316407447452 1
ion O   9.728008477576230   8.739003432530383   1.832319365279821 1
ion O   1.279799340605589  13.335060932530386  10.650954865279822 1
ion O   1.279799340605589   9.990752567469613  15.804951907447450 1
ion O   6.594414230157228  10.539457914932346  15.468971788280308 1
ion O   6.594414230157228  12.786355585067653  10.986934984446965 1
ion O   4.413393588024594   8.190298085067655   2.168299484446965 1
ion O   4.413393588024594   5.943400414932345   6.650336288280307 1
ion O   9.797820625412498  14.483577875394083  15.669742596949296 1
ion O   1.209987192769320   4.246178124605917   1.967528675777974 1
ion O   9.797820625412498   8.842235624605918  10.786164175777973 1
ion O   1.209987192769320   9.887520375394084   6.851107096949299 1
ion O   3.631752664516140  24.229597832659728  15.208570247873570 1
ion O   3.631752664516140  18.171496667340271  11.247336524853699 1
ion O   7.376055153665679  13.575439167340274   2.428701024853699 1
ion O   7.376055153665679  19.633540332659724   6.389934747873573 1
ion O   9.728008477576230  14.932335567469615   6.986316407447452 1
ion O   9.728008477576230  18.276643932530384   1.832319365279821 1
ion O   1.279799340605589  22.872701432530384  10.650954865279822 1
ion O   1.279799340605589  19.528393067469612  15.804951907447450 1
ion O   6.594414230157228  20.077098414932347  15.468971788280308 1
ion O   6.594414230157228  22.323996085067652  10.986934984446965 1
ion O   4.413393588024594  17.727938585067655   2.168299484446965 1
ion O   4.413393588024594  15.481040914932347   6.650336288280307 1
ion O   9.797820625412498  24.021218375394078  15.669742596949296 1
ion O   1.209987192769320  13.783818624605919   1.967528675777974 1
ion O   9.797820625412498  18.379876124605918  10.786164175777973 1
ion O   1.209987192769320  19.425160875394081   6.851107096949299 1

# Forces in Cartesian coordinates:
force Ti  -0.003061855991379   0.000000000000000   0.000000000000000 1
force Ti   0.003061855991379   0.000000000000000   0.000000000000000 1
force Ti  -0.003061855991378  -0.000000000000000  -0.000000000000000 1
force Ti   0.003061855991378  -0.000000000000000  -0.000000000000000 1
force W  -0.004156160676153   0.004345221663173  -0.000607858247487 1
force W  -0.004156160676153  -0.004345221663173   0.000607858247487 1
force W   0.004156160676153  -0.004345221663173   0.000607858247487 1
force W   0.004156160676153   0.004345221663173  -0.000607858247487 1
force W  -0.004156160676153   0.004345221663173  -0.000607858247487 1
force W  -0.004156160676153  -0.004345221663173   0.000607858247487 1
force W   0.004156160676153  -0.004345221663173   0.000607858247487 1
force W   0.004156160676153   0.004345221663173  -0.000607858247487 1
force O   0.001416904899900   0.001909970217631   0.000111601981159 1
force O   0.001416904899900  -0.001909970217631  -0.000111601981159 1
force O  -0.001416904899900  -0.001909970217631  -0.000111601981159 1
force O  -0.001416904899899   0.001909970217631   0.000111601981159 1
force O   0.001353092080365   0.001033976423212  -0.001411290363915 1
[...]
      Enl =      -23.0940270389609807
      Exc =     -316.5727852412317134
 Exc_core =       94.1154520566816473
       KE =      471.0136300773651215
-------------------------------------
     Etot =    -1299.1005341339523511
       TS =        0.0000072139423400
-------------------------------------
        F =    -1299.1005413478947048

IonicMinimize: Iter:  12  F: -1299.100541347894705  |grad|_K:  1.870e-04  alpha:  1.000e+00  linmin:  8.510e-03  t[s]:  31687.25

#--- Lowdin population analysis ---
# oxidation-state Ti +1.795 +1.795 +1.795 +1.795
# oxidation-state W +0.936 +0.936 +0.936 +0.936 +0.936 +0.936 +0.936 +0.936
# oxidation-state O -0.435 -0.435 -0.435 -0.435 -0.538 -0.538 -0.538 -0.538 -0.411 -0.411 -0.411 -0.411 -0.311 -0.311 -0.311 -0.311 -0.435 -0.435 -0.435 -0.435 -0.538 -0.538 -0.538 -0.538 -0.411 -0.411 -0.411 -0.411 -0.311 -0.311 -0.311 -0.311


-------- Electronic minimization -----------
	FillingsUpdate:  mu: +0.293197859  nElectrons: 352.000000
ElecMinimize: Iter:   0  F: -1299.100530027149716  |grad|_K:  1.018e-06  alpha:  1.000e+00
	FillingsUpdate:  mu: +0.293222700  nElectrons: 352.000000
	SubspaceRotationAdjust: set factor to 0.815
ElecMinimize: Iter:   1  F: -1299.100552352641444  |grad|_K:  5.986e-07  alpha:  4.967e-01  linmin: -3.306e-07  t[s]:  31977.66
	FillingsUpdate:  mu: +0.293203916  nElectrons: 352.000000
	SubspaceRotationAdjust: set factor to 0.686
ElecMinimize: Iter:   2  F: -1299.100556328509811  |grad|_K:  2.478e-07  alpha:  2.556e-01  linmin: -3.478e-06  t[s]:  32130.91
	FillingsUpdate:  mu: +0.293202678  nElectrons: 352.000000
	SubspaceRotationAdjust: set factor to 0.93
ElecMinimize: Iter:   3  F: -1299.100557527527371  |grad|_K:  1.051e-07  alpha:  4.498e-01  linmin: -1.853e-07  t[s]:  32278.88
	FillingsUpdate:  mu: +0.293211662  nElectrons: 352.000000
	SubspaceRotationAdjust: set factor to 0.811
ElecMinimize: Iter:   4  F: -1299.100557712704358  |grad|_K:  5.146e-08  alpha:  3.866e-01  linmin:  1.041e-06  t[s]:  32432.20
	FillingsUpdate:  mu: +0.293203029  nElectrons: 352.000000
	SubspaceRotationAdjust: set factor to 0.647
ElecMinimize: Iter:   5  F: -1299.100557751408132  |grad|_K:  2.593e-08  alpha:  3.370e-01  linmin: -1.740e-06  t[s]:  32590.79
	FillingsUpdate:  mu: +0.293209250  nElectrons: 352.000000
	SubspaceRotationAdjust: set factor to 0.514
ElecMinimize: Iter:   6  F: -1299.100557762815470  |grad|_K:  1.539e-08  alpha:  3.910e-01  linmin:  1.304e-05  t[s]:  32734.86
	FillingsUpdate:  mu: +0.293207273  nElectrons: 352.000000
	SubspaceRotationAdjust: set factor to 0.493
ElecMinimize: Iter:   7  F: -1299.100557766858628  |grad|_K:  8.371e-09  alpha:  3.935e-01  linmin: -8.301e-06  t[s]:  32888.29
	FillingsUpdate:  mu: +0.293206816  nElectrons: 352.000000
	SubspaceRotationAdjust: set factor to 0.507
ElecMinimize: Iter:   8  F: -1299.100557768173076  |grad|_K:  4.854e-09  alpha:  4.341e-01  linmin:  2.917e-06  t[s]:  33038.33
ElecMinimize: Converged (|Delta F|<1.000000e-08 for 2 iters).
Setting wave functions to eigenvectors of Hamiltonian

# Ionic positions in cartesian coordinates:
ion Ti   3.703807261800510  11.662906749999998  13.227953386363634 1
ion Ti   7.304000556381309   7.066849250000000   4.409317886363636 1
ion Ti   3.703807261800510  21.200547250000000  13.227953386363634 1
ion Ti   7.304000556381309  16.604489749999999   4.409317886363636 1
ion W   1.912899304726375   7.096821916371995   8.600471983143532 1
ion W   1.912899304726375   7.036876583628004   0.218163789583741 1
ion W   9.094908513455440  11.632934083628005   9.036799289583742 1
ion W   9.094908513455440  11.692879416371994  17.419107483143531 1
ion W   1.912899304726375  16.634462416371996   8.600471983143532 1
ion W   1.912899304726375  16.574517083628006   0.218163789583741 1
ion W   9.094908513455440  21.170574583628007   9.036799289583742 1
ion W   9.094908513455440  21.230519916371996  17.419107483143531 1
ion O   3.622039209602699  14.717656898763972  15.217494169868392 1
ion O   3.622039209602699   8.608156601236026  11.238412602858880 1
ion O   7.385768608579122   4.012099101236024   2.419777102858881 1
ion O   7.385768608579122  10.121599398763971   6.398858669868392 1
ion O   9.776546180937727   5.403559109663286   6.943497452999030 1
ion O   9.776546180937727   8.730139390336712   1.875138319728244 1
ion O   1.231261637244094  13.326196890336712  10.693773819728245 1
ion O   1.231261637244094   9.999616609663281  15.762132952999027 1
ion O   6.528534931898285  10.527072093717081  15.477059580167548 1
ion O   6.528534931898285  12.798741406282918  10.978847192559725 1
ion O   4.479272886283536   8.202683906282918   2.160211692559725 1
ion O   4.479272886283536   5.931014593717082   6.658424080167547 1
ion O   9.761194822829049  14.531017981496774  15.679158229558787 1
ion O   1.246612995352770   4.198738018503224   1.958113043168484 1
ion O   9.761194822829049   8.794795518503225  10.776748543168484 1
ion O   1.246612995352770   9.934960481496775   6.860522729558790 1
ion O   3.622039209602699  24.255297398763972  15.217494169868392 1
ion O   3.622039209602699  18.145797101236024  11.238412602858880 1
ion O   7.385768608579122  13.549739601236029   2.419777102858881 1
ion O   7.385768608579122  19.659239898763975   6.398858669868392 1
ion O   9.776546180937727  14.941199609663288   6.943497452999030 1
ion O   9.776546180937727  18.267779890336712   1.875138319728244 1
ion O   1.231261637244094  22.863837390336712  10.693773819728245 1
ion O   1.231261637244094  19.537257109663283  15.762132952999027 1
ion O   6.528534931898285  20.064712593717086  15.477059580167548 1
ion O   6.528534931898285  22.336381906282909  10.978847192559725 1
ion O   4.479272886283536  17.740324406282916   2.160211692559725 1
ion O   4.479272886283536  15.468655093717086   6.658424080167547 1
ion O   9.761194822829049  24.068658481496769  15.679158229558787 1
ion O   1.246612995352770  13.736378518503228   1.958113043168484 1
ion O   9.761194822829049  18.332436018503230  10.776748543168484 1
ion O   1.246612995352770  19.472600981496772   6.860522729558790 1

# Forces in Cartesian coordinates:
force Ti   0.000201382938589  -0.000000000000000   0.000000000000000 1
force Ti  -0.000201382938589   0.000000000000000  -0.000000000000000 1
force Ti   0.000201382938589  -0.000000000000000   0.000000000000000 1
force Ti  -0.000201382938589   0.000000000000000  -0.000000000000000 1
force W   0.000017763830951   0.000095023376242  -0.000158930375078 1
force W   0.000017763830951  -0.000095023376241   0.000158930375078 1
force W  -0.000017763830951  -0.000095023376242   0.000158930375079 1
force W  -0.000017763830951   0.000095023376241  -0.000158930375079 1
force W   0.000017763830951   0.000095023376241  -0.000158930375078 1
force W   0.000017763830951  -0.000095023376241   0.000158930375078 1
force W  -0.000017763830951  -0.000095023376242   0.000158930375079 1
force W  -0.000017763830951   0.000095023376242  -0.000158930375078 1
force O  -0.000071913501780   0.000128708416862  -0.000088755223762 1
force O  -0.000071913501781  -0.000128708416862   0.000088755223762 1
force O   0.000071913501779  -0.000128708416862   0.000088755223762 1
force O   0.000071913501780   0.000128708416862  -0.000088755223762 1
force O   0.000024524819293   0.000160879220478   0.000091102975621 1
force O   0.000024524819293  -0.000160879220478  -0.000091102975622 1
force O  -0.000024524819293  -0.000160879220478  -0.000091102975621 1
force O  -0.000024524819293   0.000160879220478   0.000091102975622 1
force O  -0.000114052905422   0.000180624231814   0.000232539378219 1
force O  -0.000114052905422  -0.000180624231813  -0.000232539378219 1
force O   0.000114052905422  -0.000180624231814  -0.000232539378219 1
force O   0.000114052905422   0.000180624231814   0.000232539378219 1
force O  -0.000085698179547  -0.000054051974919   0.000017307074657 1
force O   0.000085698179547   0.000054051974919  -0.000017307074657 1
force O  -0.000085698179547   0.000054051974920  -0.000017307074657 1
force O   0.000085698179547  -0.000054051974919   0.000017307074657 1
force O  -0.000071913501781   0.000128708416862  -0.000088755223762 1
force O  -0.000071913501781  -0.000128708416862   0.000088755223762 1
force O   0.000071913501781  -0.000128708416862   0.000088755223762 1
force O   0.000071913501781   0.000128708416862  -0.000088755223762 1
force O   0.000024524819293   0.000160879220478   0.000091102975622 1
force O   0.000024524819293  -0.000160879220478  -0.000091102975622 1
force O  -0.000024524819293  -0.000160879220478  -0.000091102975622 1
force O  -0.000024524819293   0.000160879220478   0.000091102975622 1
force O  -0.000114052905422   0.000180624231814   0.000232539378219 1
force O  -0.000114052905422  -0.000180624231814  -0.000232539378219 1
force O   0.000114052905422  -0.000180624231814  -0.000232539378218 1
force O   0.000114052905422   0.000180624231814   0.000232539378219 1
force O  -0.000085698179547  -0.000054051974919   0.000017307074657 1
force O   0.000085698179546   0.000054051974920  -0.000017307074658 1
force O  -0.000085698179547   0.000054051974919  -0.000017307074657 1
force O   0.000085698179547  -0.000054051974919   0.000017307074657 1

# Energy components:
   Eewald =     -864.9167521202579110
       EH =      361.7678910810453772
     Eloc =    -1021.4092738360145631
      Enl =      -23.0931688675831523
      Exc =     -316.5700976118984613
 Exc_core =       94.1154534628448829
       KE =      471.0053973364936155
-------------------------------------
     Etot =    -1299.1005505553703188
       TS =        0.0000072128028019
-------------------------------------
        F =    -1299.1005577681730756

IonicMinimize: Iter:  13  F: -1299.100557768173076  |grad|_K:  1.180e-04  alpha:  1.000e+00  linmin: -4.525e-01  t[s]:  33066.90

#--- Lowdin population analysis ---
# oxidation-state Ti +1.795 +1.795 +1.795 +1.795
# oxidation-state W +0.937 +0.937 +0.937 +0.937 +0.937 +0.937 +0.937 +0.937
# oxidation-state O -0.434 -0.434 -0.434 -0.434 -0.538 -0.538 -0.538 -0.538 -0.411 -0.411 -0.411 -0.411 -0.311 -0.311 -0.311 -0.311 -0.434 -0.434 -0.434 -0.434 -0.538 -0.538 -0.538 -0.538 -0.411 -0.411 -0.411 -0.411 -0.311 -0.311 -0.311 -0.311


-------- Electronic minimization -----------
	FillingsUpdate:  mu: +0.293222792  nElectrons: 352.000000
ElecMinimize: Iter:   0  F: -1299.100533215997984  |grad|_K:  9.933e-07  alpha:  1.000e+00
	FillingsUpdate:  mu: +0.293229777  nElectrons: 352.000000
	SubspaceRotationAdjust: set factor to 0.493
ElecMinimize: Iter:   1  F: -1299.100559471490669  |grad|_K:  4.697e-07  alpha:  6.133e-01  linmin: -1.722e-07  t[s]:  33353.14
	FillingsUpdate:  mu: +0.293235101  nElectrons: 352.000000
	SubspaceRotationAdjust: set factor to 0.675
ElecMinimize: Iter:   2  F: -1299.100566867142106  |grad|_K:  3.775e-07  alpha:  7.725e-01  linmin:  7.659e-07  t[s]:  33503.94
	FillingsUpdate:  mu: +0.293221775  nElectrons: 352.000000
	SubspaceRotationAdjust: set factor to 0.789
ElecMinimize: Iter:   3  F: -1299.100569764716056  |grad|_K:  2.003e-07  alpha:  4.687e-01  linmin:  2.834e-07  t[s]:  33661.20
	FillingsUpdate:  mu: +0.293240418  nElectrons: 352.000000
	SubspaceRotationAdjust: set factor to 0.834
ElecMinimize: Iter:   4  F: -1299.100570421908287  |grad|_K:  1.112e-07  alpha:  3.775e-01  linmin:  2.268e-07  t[s]:  33809.33
	FillingsUpdate:  mu: +0.293229049  nElectrons: 352.000000
	SubspaceRotationAdjust: set factor to 0.826
ElecMinimize: Iter:   5  F: -1299.100570579722898  |grad|_K:  5.411e-08  alpha:  2.943e-01  linmin: -1.001e-06  t[s]:  33964.52
	FillingsUpdate:  mu: +0.293229924  nElectrons: 352.000000
	SubspaceRotationAdjust: set factor to 0.902
ElecMinimize: Iter:   6  F: -1299.100570622737223  |grad|_K:  2.656e-08  alpha:  3.386e-01  linmin:  3.567e-06  t[s]:  34111.81
	FillingsUpdate:  mu: +0.293232927  nElectrons: 352.000000
	SubspaceRotationAdjust: set factor to 0.857
ElecMinimize: Iter:   7  F: -1299.100570633603866  |grad|_K:  1.357e-08  alpha:  3.551e-01  linmin:  4.425e-06  t[s]:  34264.57
	FillingsUpdate:  mu: +0.293229817  nElectrons: 352.000000
	SubspaceRotationAdjust: set factor to 0.653
ElecMinimize: Iter:   8  F: -1299.100570636313023  |grad|_K:  8.319e-09  alpha:  3.397e-01  linmin:  6.574e-06  t[s]:  34422.65
	FillingsUpdate:  mu: +0.293231258  nElectrons: 352.000000
	SubspaceRotationAdjust: set factor to 0.63
ElecMinimize: Iter:   9  F: -1299.100570637388955  |grad|_K:  3.793e-09  alpha:  3.596e-01  linmin: -1.156e-05  t[s]:  34576.73
ElecMinimize: Converged (|Delta F|<1.000000e-08 for 2 iters).
Setting wave functions to eigenvectors of Hamiltonian

# Ionic positions in cartesian coordinates:
ion Ti   3.703701604181366  11.662906749999998  13.227953386363634 1
ion Ti   7.304106214000452   7.066849250000000   4.409317886363636 1
ion Ti   3.703701604181366  21.200547250000000  13.227953386363634 1
ion Ti   7.304106214000452  16.604489749999999   4.409317886363636 1
ion W   1.913196663565589   7.097271511183314   8.601300514374017 1
ion W   1.913196663565589   7.036426988816685   0.217335258353257 1
ion W   9.094611154616226  11.632484488816687   9.035970758353258 1
ion W   9.094611154616226  11.693329011183312  17.419936014374017 1
ion W   1.913196663565589  16.634912011183310   8.601300514374017 1
ion W   1.913196663565589  16.574067488816688   0.217335258353257 1
ion W   9.094611154616226  21.170124988816688   9.035970758353258 1
ion W   9.094611154616226  21.230969511183311  17.419936014374017 1
ion O   3.620412733239893  14.719868436607015  15.213667045077935 1
ion O   3.620412733239893   8.605945063392980  11.242239727649336 1
ion O   7.387395084941928   4.009887563392980   2.423604227649338 1
ion O   7.387395084941928  10.123810936607015   6.395031545077935 1
ion O   9.777568403714911   5.404811349268385   6.943859039422547 1
ion O   9.777568403714911   8.728887150731612   1.874776733304726 1
ion O   1.230239414466910  13.324944650731613  10.693412233304727 1
ion O   1.230239414466910  10.000868849268382  15.762494539422544 1
ion O   6.526055929504378  10.529431188238522  15.479711410765907 1
ion O   6.526055929504378  12.796382311761480  10.976195361961366 1
ion O   4.481751888677445   8.200324811761480   2.157559861961366 1
ion O   4.481751888677445   5.933373688238521   6.661075910765906 1
ion O   9.760245113751575  14.531136922995914  15.679213587712580 1
ion O   1.247562704430245   4.198619077004085   1.958057685014690 1
ion O   9.760245113751575   8.794676577004084  10.776693185014690 1
ion O   1.247562704430245   9.935079422995916   6.860578087712583 1
ion O   3.620412733239893  24.257508936607021  15.213667045077935 1
ion O   3.620412733239893  18.143585563392982  11.242239727649336 1
ion O   7.387395084941928  13.547528063392983   2.423604227649338 1
ion O   7.387395084941928  19.661451436607017   6.395031545077935 1
ion O   9.777568403714911  14.942451849268386   6.943859039422547 1
ion O   9.777568403714911  18.266527650731614   1.874776733304726 1
ion O   1.230239414466910  22.862585150731615  10.693412233304727 1
ion O   1.230239414466910  19.538509349268381  15.762494539422544 1
ion O   6.526055929504378  20.067071688238528  15.479711410765907 1
ion O   6.526055929504378  22.334022811761475  10.976195361961366 1
ion O   4.481751888677445  17.737965311761474   2.157559861961366 1
ion O   4.481751888677445  15.471014188238525   6.661075910765906 1
ion O   9.760245113751575  24.068777422995908  15.679213587712580 1
ion O   1.247562704430245  13.736259577004089   1.958057685014690 1
ion O   9.760245113751575  18.332317077004088  10.776693185014690 1
ion O   1.247562704430245  19.472719922995910   6.860578087712583 1

# Forces in Cartesian coordinates:
force Ti   0.000056351647907  -0.000000000000000   0.000000000000000 1
force Ti  -0.000056351647907  -0.000000000000000   0.000000000000000 1
force Ti   0.000056351647907   0.000000000000000  -0.000000000000000 1
force Ti  -0.000056351647907   0.000000000000000  -0.000000000000000 1
force W  -0.000074458805861   0.000003232633864  -0.000085821014508 1
force W  -0.000074458805861  -0.000003232633864   0.000085821014508 1
force W   0.000074458805861  -0.000003232633864   0.000085821014508 1
force W   0.000074458805861   0.000003232633863  -0.000085821014508 1
force W  -0.000074458805861   0.000003232633865  -0.000085821014509 1
force W  -0.000074458805861  -0.000003232633864   0.000085821014508 1
force W   0.000074458805861  -0.000003232633864   0.000085821014508 1
force W   0.000074458805861   0.000003232633864  -0.000085821014508 1
force O  -0.000091079546064   0.000045479931791   0.000097917163293 1
force O  -0.000091079546064  -0.000045479931790  -0.000097917163294 1
force O   0.000091079546064  -0.000045479931790  -0.000097917163294 1
force O   0.000091079546064   0.000045479931790   0.000097917163293 1
force O   0.000019775016541   0.000072222909144   0.000126530300643 1
force O   0.000019775016541  -0.000072222909144  -0.000126530300643 1
force O  -0.000019775016541  -0.000072222909144  -0.000126530300644 1
force O  -0.000019775016541   0.000072222909144   0.000126530300643 1
force O  -0.000046247393301   0.000124261616111   0.000155018321022 1
force O  -0.000046247393301  -0.000124261616111  -0.000155018321022 1
force O   0.000046247393301  -0.000124261616111  -0.000155018321022 1
force O   0.000046247393301   0.000124261616111   0.000155018321022 1
force O  -0.000117395311526  -0.000069513403223   0.000118775620433 1
force O   0.000117395311525   0.000069513403224  -0.000118775620434 1
force O  -0.000117395311526   0.000069513403224  -0.000118775620434 1
force O   0.000117395311525  -0.000069513403223   0.000118775620433 1
force O  -0.000091079546064   0.000045479931790   0.000097917163294 1
force O  -0.000091079546064  -0.000045479931790  -0.000097917163294 1
force O   0.000091079546065  -0.000045479931790  -0.000097917163294 1
force O   0.000091079546064   0.000045479931790   0.000097917163294 1
force O   0.000019775016541   0.000072222909144   0.000126530300643 1
force O   0.000019775016541  -0.000072222909144  -0.000126530300643 1
force O  -0.000019775016541  -0.000072222909144  -0.000126530300643 1
force O  -0.000019775016541   0.000072222909144   0.000126530300644 1
force O  -0.000046247393301   0.000124261616110   0.000155018321022 1
force O  -0.000046247393301  -0.000124261616111  -0.000155018321022 1
force O   0.000046247393302  -0.000124261616111  -0.000155018321022 1
force O   0.000046247393301   0.000124261616111   0.000155018321022 1
force O  -0.000117395311525  -0.000069513403224   0.000118775620433 1
force O   0.000117395311526   0.000069513403223  -0.000118775620433 1
force O  -0.000117395311525   0.000069513403223  -0.000118775620433 1
force O   0.000117395311526  -0.000069513403223   0.000118775620434 1

# Energy components:
   Eewald =     -864.8906470674471620
       EH =      361.7964393811860759
     Eloc =    -1021.4648338750072298
      Enl =      -23.0928856852801729
      Exc =     -316.5704457584856755
 Exc_core =       94.1154516556307641
       KE =      471.0063579100398670
-------------------------------------
     Etot =    -1299.1005634393634409
       TS =        0.0000071980254901
-------------------------------------
        F =    -1299.1005706373889552

IonicMinimize: Iter:  14  F: -1299.100570637388955  |grad|_K:  8.890e-05  alpha:  1.000e+00  linmin: -3.545e-01  t[s]:  34606.65
IonicMinimize: Converged (|grad|_K<1.000000e-04).

#--- Lowdin population analysis ---
# oxidation-state Ti +1.795 +1.795 +1.795 +1.795
# oxidation-state W +0.937 +0.937 +0.937 +0.937 +0.937 +0.937 +0.937 +0.937
# oxidation-state O -0.434 -0.434 -0.434 -0.434 -0.538 -0.538 -0.538 -0.538 -0.411 -0.411 -0.411 -0.411 -0.311 -0.311 -0.311 -0.311 -0.434 -0.434 -0.434 -0.434 -0.538 -0.538 -0.538 -0.538 -0.411 -0.411 -0.411 -0.411 -0.311 -0.311 -0.311 -0.311


Dumping 'Ti4W8O32.Ecomponents' ... done
End date and time: Sat Dec  9 01:31:02 2023  (Duration: 0-9:37:14.52)
Done!
