--------------------------------------------------------------------------
[[18468,1],5]: A high-performance Open MPI point-to-point messaging module
was unable to find any relevant network interfaces:

Module: OpenFabrics (openib)
  Host: node3211

Another transport will be used instead, although this may result in
lower performance.
--------------------------------------------------------------------------

*************** JDFTx 1.7.0 (git hash 3664913) ***************

Start date and time: Mon Jul  8 04:00:09 2024
Executable jdftx with command-line: -i Bi_int2.in
Running on hosts (process indices):  node3211.physics.cornell.edu (0-15)
Divided in process groups (process indices):  0 (0)  1 (1)  2 (2)  3 (3)  4 (4)  5 (5)  6 (6)  7 (7)  8 (8)  9 (9)  10 (10)  11 (11)  12 (12)  13 (13)  14 (14)  15 (15)
Resource initialization completed at t[s]:      0.00
Run totals: 16 processes, 32 threads, 0 GPUs


Input parsed successfully to the following command list (including defaults):

basis kpoint-dependent
coords-type Lattice
core-overlap-check vector
coulomb-interaction Periodic
davidson-band-ratio 1.1
dump End Ecomponents
dump-name /data/rc652/Bi/int2/Bi_int2.$VAR
elec-cutoff 20 100
elec-eigen-algo Davidson
elec-ex-corr gga-PBEsol
elec-smearing Fermi 0.01
electronic-minimize  \
	dirUpdateScheme      FletcherReeves \
	linminMethod         DirUpdateRecommended \
	nIterations          100 \
	history              15 \
	knormThreshold       0 \
	maxThreshold         no \
	energyDiffThreshold  1e-08 \
	nEnergyDiff          2 \
	alphaTstart          1 \
	alphaTmin            1e-10 \
	updateTestStepSize   yes \
	alphaTreduceFactor   0.1 \
	alphaTincreaseFactor 3 \
	nAlphaAdjustMax      3 \
	wolfeEnergy          0.0001 \
	wolfeGradient        0.9 \
	fdTest               no
electronic-scf  \
	nIterations	50 \
	energyDiffThreshold	1e-08 \
	residualThreshold	1e-07 \
	mixFraction	0.5 \
	qMetric	0.8 \
	history	10 \
	nEigSteps	2 \
	eigDiffThreshold	1e-08 \
	mixedVariable	Density \
	qKerker	0.8 \
	qKappa	-1 \
	verbose	no \
	mixFractionMag	1.5
exchange-regularization WignerSeitzTruncated
fluid None
fluid-ex-corr lda-TF lda-PZ
fluid-gummel-loop 10 1.000000e-05
fluid-minimize  \
	dirUpdateScheme      PolakRibiere \
	linminMethod         DirUpdateRecommended \
	nIterations          100 \
	history              15 \
	knormThreshold       0 \
	maxThreshold         no \
	energyDiffThreshold  0 \
	nEnergyDiff          2 \
	alphaTstart          1 \
	alphaTmin            1e-10 \
	updateTestStepSize   yes \
	alphaTreduceFactor   0.1 \
	alphaTincreaseFactor 3 \
	nAlphaAdjustMax      3 \
	wolfeEnergy          0.0001 \
	wolfeGradient        0.9 \
	fdTest               no
fluid-solvent H2O 55.338 ScalarEOS \
	epsBulk 78.4 \
	pMol 0.92466 \
	epsInf 1.77 \
	Pvap 1.06736e-10 \
	sigmaBulk 4.62e-05 \
	Rvdw 2.61727 \
	Res 1.42 \
	tauNuc 343133 \
	poleEl 15 7 1
forces-output-coords Positions
ion Bi   0.253347701477072   0.254942258444244   0.251568286925807 1
ion Bi   0.072746039727904   0.043299081138800   0.071374542028942 1
ion Bi   0.253106480917648   0.254053865417765   0.587091783983452 1
ion Bi   0.088197786386563   0.082063833096451   0.411256843905797 1
ion Bi   0.234813958674773   0.262448232839980   0.939507489328508 1
ion Bi   0.090043917985277   0.079193059700091   0.745342289123760 1
ion Bi   0.252944166226248   0.586684205841448   0.252983046918502 1
ion Bi   0.081503587069272   0.448255581958908   0.082075890235065 1
ion Bi   0.250158091928721   0.582743335728313   0.591667352619683 1
ion Bi   0.082176067004999   0.419465274239496   0.416077670105350 1
ion Bi   0.259818075469320   0.605766568912227   0.912104084388771 1
ion Bi   0.079883420969825   0.413751414739344   0.754932913877582 1
ion Bi   0.245623376341171   0.922404032979034   0.242957359642592 1
ion Bi   0.079440625973716   0.762287783299943   0.085700261547571 1
ion Bi   0.261067838078624   0.915860533984370   0.580411180321609 1
ion Bi   0.081024279022090   0.747707173800894   0.421031716249044 1
ion Bi   0.281727089925249   0.902833620268961   0.898106176644827 1
ion Bi   0.083959335638146   0.754108798472511   0.748317391007636 1
ion Bi   0.587227636971405   0.256116879180619   0.251300075249726 1
ion Bi   0.413416614534229   0.082425250101348   0.085913096392703 1
ion Bi   0.583182033254945   0.261391651735564   0.589475826319876 1
ion Bi   0.416752282820494   0.087953441294713   0.414278007719298 1
ion Bi   0.584770177200954   0.249173066341745   0.923815453195116 1
ion Bi   0.406031406807147   0.100045469102273   0.759361476596307 1
ion Bi   0.593746673529844   0.580736269182639   0.250016473799082 1
ion Bi   0.416174368535838   0.420910915758071   0.080469341193966 1
ion Bi   0.582254382467189   0.568543466532553   0.579629192965409 1
ion Bi   0.415863284654060   0.419945776750046   0.416130712684484 1
ion Bi   0.592910881189191   0.582829676116979   0.914935439715784 1
ion Bi   0.406327705841325   0.421293575224124   0.761077664749173 1
ion Bi   0.582786226115522   0.915536059863295   0.258743693163671 1
ion Bi   0.423226558977492   0.745178543918280   0.080629533290553 1
ion Bi   0.585456840650314   0.945191531637498   0.586205912944487 1
ion Bi   0.407237574558972   0.753396128372434   0.405363339567639 1
ion Bi   0.587020171525818   0.919762231062630   0.920142939257504 1
ion Bi   0.444405187817031   0.750987357826465   0.722312883463918 1
ion Bi   0.940382667796541   0.261027919351112   0.233968498616125 1
ion Bi   0.744893285402354   0.081513761813417   0.088861310763528 1
ion Bi   0.926272300128867   0.247094482317423   0.584065657575102 1
ion Bi   0.754966425462869   0.103744840803502   0.408950207900904 1
ion Bi   0.914958273032536   0.250204862324402   0.912932769321576 1
ion Bi   0.748631542282744   0.086678296088862   0.748788243479884 1
ion Bi   0.909553468448602   0.601379566327960   0.263759761907668 1
ion Bi   0.756860857824818   0.413951655813160   0.077342428551748 1
ion Bi   0.917548444890312   0.583370376116516   0.590489740531657 1
ion Bi   0.759748231885527   0.415545482654670   0.409429363122040 1
ion Bi   0.920772422831439   0.589400953923916   0.918269988439328 1
ion Bi   0.744851309223106   0.416610365450708   0.742099252691445 1
ion Bi   0.894889395074764   0.907634281031601   0.282966660006098 1
ion Bi   0.749813607934298   0.752399844292943   0.083010411818920 1
ion Bi   0.920695359540175   0.921281878662140   0.585781059305645 1
ion Bi   0.723154473812272   0.751881158036429   0.443563572239815 1
ion Bi   0.919237886485672   0.921497834336737   0.920304611156909 1
ion Bi   0.749190357680478   0.755230467391127   0.747345380704662 1
ion O   0.094807843994237   0.177976028399319   0.092053740743749 1
ion-species GBRV/$ID_pbesol.uspp
ion-width 0
ionic-minimize  \
	dirUpdateScheme      L-BFGS \
	linminMethod         DirUpdateRecommended \
	nIterations          30 \
	history              15 \
	knormThreshold       0.0001 \
	maxThreshold         no \
	energyDiffThreshold  1e-06 \
	nEnergyDiff          2 \
	alphaTstart          1 \
	alphaTmin            1e-10 \
	updateTestStepSize   yes \
	alphaTreduceFactor   0.1 \
	alphaTincreaseFactor 3 \
	nAlphaAdjustMax      3 \
	wolfeEnergy          0.0001 \
	wolfeGradient        0.9 \
	fdTest               no
kpoint   0.500000000000   0.500000000000   0.500000000000  1.00000000000000
kpoint-folding 3 3 3 
latt-move-scale 1 1 1
latt-scale 1 1 1 
lattice  \
	  22.481092393079685   22.481092393079685   15.481952819880670  \
	 -12.778055096862824   12.778055096862824    0.000000000000000  \
	  -0.282453082909267   -0.282453082909267   20.713932684412821 
lattice-minimize  \
	dirUpdateScheme      L-BFGS \
	linminMethod         DirUpdateRecommended \
	nIterations          0 \
	history              15 \
	knormThreshold       0 \
	maxThreshold         no \
	energyDiffThreshold  1e-06 \
	nEnergyDiff          2 \
	alphaTstart          1 \
	alphaTmin            1e-10 \
	updateTestStepSize   yes \
	alphaTreduceFactor   0.1 \
	alphaTincreaseFactor 3 \
	nAlphaAdjustMax      3 \
	wolfeEnergy          0.0001 \
	wolfeGradient        0.9 \
	fdTest               no
lcao-params -1 1e-06 0.01
pcm-variant GLSSA13
perturb-minimize  \
	nIterations            0 \
	algorithm              MINRES \
	residualTol            0.0001 \
	residualDiffThreshold  0.0001 \
	CGBypass               no \
	recomputeResidual      no
spintype no-spin
subspace-rotation-factor 1 yes
symmetries automatic
symmetry-threshold 0.0001



---------- Setting up symmetries ----------

Non-trivial transmission matrix:
[   1   0   0  ]
[  -1   1   0  ]
[   0  -1   1  ]
with reduced lattice vectors:
[      0.000000      6.999140     15.481953  ]
[    -25.556110     12.778055      0.000000  ]
[      0.000000    -20.996386     20.713933  ]

Found 12 point-group symmetries of the bravais lattice
Found 1 space-group symmetries with basis
Applied RMS atom displacement 0 bohrs to make symmetries exact.

---------- Initializing the Grid ----------
R = 
[      22.4811      22.4811       15.482  ]
[     -12.7781      12.7781            0  ]
[    -0.282453    -0.282453      20.7139  ]
unit cell volume = 12012.5
G =
[   0.138444  -0.245858  -0.103475  ]
[   0.138444   0.245858  -0.103475  ]
[ 0.00377561          0   0.300509  ]
Minimum fftbox size, Smin = [  120  120  120  ]
Chosen fftbox size, S = [  120  120  120  ]

---------- Initializing tighter grid for wavefunction operations ----------
R = 
[      22.4811      22.4811       15.482  ]
[     -12.7781      12.7781            0  ]
[    -0.282453    -0.282453      20.7139  ]
unit cell volume = 12012.5
G =
[   0.138444  -0.245858  -0.103475  ]
[   0.138444   0.245858  -0.103475  ]
[ 0.00377561          0   0.300509  ]
Minimum fftbox size, Smin = [  108  108  108  ]
Chosen fftbox size, S = [  108  108  108  ]

---------- Exchange Correlation functional ----------
Initalized PBEsol GGA exchange.
Initalized PBEsol GGA correlation.

---------- Setting up pseudopotentials ----------
Width of ionic core gaussian charges (only for fluid interactions / plotting) set to 0

Reading pseudopotential file '/home/rc652/build/pseudopotentials/GBRV/bi_pbesol.uspp':
  Title: Bi.  Created by USPP 7.3.6 on 16-12-2017
  Reference state energy: -92.043361.  15 valence electrons in orbitals:
    |520>  occupation: 10  eigenvalue: -1.293232
    |600>  occupation: 2  eigenvalue: -0.815623
    |610>  occupation: 2  eigenvalue: -0.421990
  lMax: 2  lLocal: 3  QijEcut: 5
  6 projectors sampled on a log grid with 747 points:
    l: 0  eig: -0.815622  rCut: 2.5
    l: 0  eig: 0.500000  rCut: 2.5
    l: 1  eig: -0.421989  rCut: 2.5
    l: 1  eig: 1.000000  rCut: 2.5
    l: 2  eig: -1.293232  rCut: 2.3
    l: 2  eig: -0.500000  rCut: 2.3
  Partial core density with radius 1
  Transforming core density to a uniform radial grid of dG=0.02 with 1734 points.
  Transforming local potential to a uniform radial grid of dG=0.02 with 1734 points.
  Transforming nonlocal projectors to a uniform radial grid of dG=0.02 with 432 points.
  Transforming density augmentations to a uniform radial grid of dG=0.02 with 1734 points.
  Transforming atomic orbitals to a uniform radial grid of dG=0.02 with 432 points.
  Core radius for overlap checks: 2.50 bohrs.

Reading pseudopotential file '/home/rc652/build/pseudopotentials/GBRV/o_pbesol.uspp':
  Title: O.  Created by USPP 7.3.6 on 3-2-2014
  Reference state energy: -15.849885.  6 valence electrons in orbitals:
    |200>  occupation: 2  eigenvalue: -0.873214
    |210>  occupation: 4  eigenvalue: -0.330058
  lMax: 2  lLocal: 2  QijEcut: 6
  5 projectors sampled on a log grid with 511 points:
    l: 0  eig: -0.873214  rCut: 1.25
    l: 0  eig: 0.000000  rCut: 1.25
    l: 1  eig: -0.330058  rCut: 1.25
    l: 1  eig: 0.000000  rCut: 1.25
    l: 2  eig: 1.000000  rCut: 1.25
  Partial core density with radius 0.7
  Transforming core density to a uniform radial grid of dG=0.02 with 1734 points.
  Transforming local potential to a uniform radial grid of dG=0.02 with 1734 points.
  Transforming nonlocal projectors to a uniform radial grid of dG=0.02 with 432 points.
  Transforming density augmentations to a uniform radial grid of dG=0.02 with 1734 points.
  Transforming atomic orbitals to a uniform radial grid of dG=0.02 with 432 points.
  Core radius for overlap checks: 1.25 bohrs.

Initialized 2 species with 55 total atoms.

Folded 1 k-points by 3x3x3 to 27 k-points.

---------- Setting up k-points, bands, fillings ----------
Adding inversion symmetry to k-mesh for non-inversion-symmetric unit cell.
Reduced to 14 k-points under symmetry. 
Computing the number of bands and number of electrons
Calculating initial fillings.
nElectrons: 816.000000   nBands: 490   nStates: 14

----- Setting up reduced wavefunction bases (one per k-point) -----
average nbasis = 51319.852 , ideal nbasis = 51318.382

---------- Setting up ewald sum ----------
Optimum gaussian width for ewald sums = 4.756753 bohr.
Real space sum over 729 unit cells with max indices [  4  4  4  ]
Reciprocal space sum over 9261 terms with max indices [  10  10  10  ]

---------- Allocating electronic variables ----------
Initializing wave functions:  linear combination of atomic orbitals
Bi pseudo-atom occupations:   s ( 2 )  p ( 3 )  d ( 10 )
O pseudo-atom occupations:   s ( 2 )  p ( 4 )
	FillingsUpdate:  mu: +0.422632626  nElectrons: 816.000000
LCAOMinimize: Iter:   0  F: -3896.7510866121547224  |grad|_K:  8.618e-04  alpha:  1.000e+00
	FillingsUpdate:  mu: +0.421986772  nElectrons: 816.000000
LCAOMinimize: Iter:   1  F: -3896.9415909543727139  |grad|_K:  6.393e-04  alpha:  8.239e-02  linmin: -3.587e-01  cgtest:  7.809e-01  t[s]:    286.41
LCAOMinimize: Encountered beta<0, resetting CG.
LCAOMinimize: 	Predicted alpha/alphaT>3.000000, increasing alphaT to 2.471575e-01.
	FillingsUpdate:  mu: +0.416254107  nElectrons: 816.000000
LCAOMinimize: Iter:   2  F: -3897.1127218432748123  |grad|_K:  4.507e-04  alpha:  2.452e-01  linmin:  2.868e-01  cgtest: -4.610e-01  t[s]:    412.35
LCAOMinimize: 	Bad step direction: g.d > 0.
LCAOMinimize: 	Undoing step.
LCAOMinimize: 	Step failed: resetting search direction.
	FillingsUpdate:  mu: +0.416254107  nElectrons: 816.000000
LCAOMinimize: Iter:   3  F: -3897.1127218432748123  |grad|_K:  4.507e-04  alpha:  0.000e+00
	FillingsUpdate:  mu: +0.416896309  nElectrons: 816.000000
LCAOMinimize: Iter:   4  F: -3897.1487614484176447  |grad|_K:  7.643e-05  alpha:  1.123e-01  linmin:  6.315e-02  cgtest: -2.371e-01  t[s]:    585.82
	FillingsUpdate:  mu: +0.416896916  nElectrons: 816.000000
LCAOMinimize: Iter:   5  F: -3897.1508474145148284  |grad|_K:  4.276e-05  alpha:  2.283e-01  linmin: -1.940e-04  cgtest:  1.992e-01  t[s]:    685.99
	FillingsUpdate:  mu: +0.416728129  nElectrons: 816.000000
LCAOMinimize: Iter:   6  F: -3897.1514094132439823  |grad|_K:  2.062e-05  alpha:  1.806e-01  linmin:  3.826e-03  cgtest: -2.585e-02  t[s]:    783.54
	FillingsUpdate:  mu: +0.416756519  nElectrons: 816.000000
LCAOMinimize: Iter:   7  F: -3897.1515640343895939  |grad|_K:  1.522e-05  alpha:  2.171e-01  linmin: -9.091e-05  cgtest:  2.005e-02  t[s]:    886.26
	FillingsUpdate:  mu: +0.416781667  nElectrons: 816.000000
LCAOMinimize: Iter:   8  F: -3897.1516728256674469  |grad|_K:  5.862e-06  alpha:  2.783e-01  linmin:  3.246e-04  cgtest: -2.749e-02  t[s]:    984.70
	FillingsUpdate:  mu: +0.416771785  nElectrons: 816.000000
LCAOMinimize: Iter:   9  F: -3897.1516827370178362  |grad|_K:  2.900e-06  alpha:  1.707e-01  linmin: -1.241e-04  cgtest:  9.327e-03  t[s]:   1082.81
	FillingsUpdate:  mu: +0.416778161  nElectrons: 816.000000
LCAOMinimize: Iter:  10  F: -3897.1516853722409905  |grad|_K:  1.513e-06  alpha:  1.856e-01  linmin: -1.036e-05  cgtest: -9.981e-04  t[s]:   1182.19
	FillingsUpdate:  mu: +0.416779727  nElectrons: 816.000000
LCAOMinimize: Iter:  11  F: -3897.1516863472629666  |grad|_K:  8.751e-07  alpha:  2.523e-01  linmin:  8.123e-06  cgtest: -8.221e-04  t[s]:   1284.11
	FillingsUpdate:  mu: +0.416778095  nElectrons: 816.000000
LCAOMinimize: Iter:  12  F: -3897.1516866493843736  |grad|_K:  6.025e-07  alpha:  2.339e-01  linmin:  1.302e-05  cgtest:  8.102e-04  t[s]:   1386.56
LCAOMinimize: Converged (|Delta F|<1.000000e-06 for 2 iters).


---- Citations for features of the code used in this run ----

   Software package:
      R. Sundararaman, K. Letchworth-Weaver, K.A. Schwarz, D. Gunceler, Y. Ozhabes and T.A. Arias, 'JDFTx: software for joint density-functional theory', SoftwareX 6, 278 (2017)

   gga-PBEsol exchange-correlation functional:
      J.P. Perdew et al., Phys. Rev. Lett. 100, 136406 (2008)

   Pseudopotentials:
      KF Garrity, JW Bennett, KM Rabe and D Vanderbilt, Comput. Mater. Sci. 81, 446 (2014)

This list may not be complete. Please suggest additional citations or
report any other bugs at https://github.com/shankar1729/jdftx/issues

Initialization completed successfully at t[s]:   1425.97


-------- Electronic minimization -----------
Will mix electronic density at each iteration.
	FillingsUpdate:  mu: +0.416778095  nElectrons: 816.000000
	FillingsUpdate:  mu: +0.402692402  nElectrons: 816.000000
SCF: Cycle:  0   F: -3898.363302428397674   dF: -1.212e+00   |Residual|: 4.399e-01   |deigs|: 1.379e-02  t[s]:   1818.45
	FillingsUpdate:  mu: +0.397157773  nElectrons: 816.000000
SCF: Cycle:  1   F: -3898.519526176323780   dF: -1.562e-01   |Residual|: 1.970e-01   |deigs|: 1.947e-02  t[s]:   2147.06
	FillingsUpdate:  mu: +0.394410553  nElectrons: 816.000000
SCF: Cycle:  2   F: -3898.552159113401103   dF: -3.263e-02   |Residual|: 1.449e-01   |deigs|: 1.054e-02  t[s]:   2469.76
	FillingsUpdate:  mu: +0.392864647  nElectrons: 816.000000
SCF: Cycle:  3   F: -3898.581475283082455   dF: -2.932e-02   |Residual|: 4.987e-02   |deigs|: 4.032e-03  t[s]:   2794.71
	FillingsUpdate:  mu: +0.392133803  nElectrons: 816.000000
SCF: Cycle:  4   F: -3898.581913784334120   dF: -4.385e-04   |Residual|: 1.259e-02   |deigs|: 8.306e-04  t[s]:   3074.30
	FillingsUpdate:  mu: +0.391853597  nElectrons: 816.000000
SCF: Cycle:  5   F: -3898.582122166407771   dF: -2.084e-04   |Residual|: 5.134e-03   |deigs|: 8.713e-04  t[s]:   3302.22
	FillingsUpdate:  mu: +0.391879112  nElectrons: 816.000000
SCF: Cycle:  6   F: -3898.582146159856620   dF: -2.399e-05   |Residual|: 1.709e-03   |deigs|: 2.041e-04  t[s]:   3497.33
	FillingsUpdate:  mu: +0.391852745  nElectrons: 816.000000
SCF: Cycle:  7   F: -3898.582150909290249   dF: -4.749e-06   |Residual|: 8.655e-04   |deigs|: 1.057e-04  t[s]:   3697.48
	FillingsUpdate:  mu: +0.391858434  nElectrons: 816.000000
SCF: Cycle:  8   F: -3898.582153125491459   dF: -2.216e-06   |Residual|: 4.020e-04   |deigs|: 3.405e-05  t[s]:   3890.17
	FillingsUpdate:  mu: +0.391855412  nElectrons: 816.000000
SCF: Cycle:  9   F: -3898.582153781599118   dF: -6.561e-07   |Residual|: 4.495e-04   |deigs|: 1.835e-05  t[s]:   4085.05
	FillingsUpdate:  mu: +0.391859079  nElectrons: 816.000000
SCF: Cycle: 10   F: -3898.582154316399283   dF: -5.348e-07   |Residual|: 1.692e-04   |deigs|: 2.025e-05  t[s]:   4279.65
	FillingsUpdate:  mu: +0.391858511  nElectrons: 816.000000
SCF: Cycle: 11   F: -3898.582154539438761   dF: -2.230e-07   |Residual|: 1.033e-04   |deigs|: 4.582e-06  t[s]:   4471.95
	FillingsUpdate:  mu: +0.391858574  nElectrons: 816.000000
SCF: Cycle: 12   F: -3898.582154656445709   dF: -1.170e-07   |Residual|: 8.039e-05   |deigs|: 5.261e-07  t[s]:   4669.69
	FillingsUpdate:  mu: +0.391858712  nElectrons: 816.000000
SCF: Cycle: 13   F: -3898.582154715656998   dF: -5.921e-08   |Residual|: 1.024e-04   |deigs|: 1.290e-06  t[s]:   4864.84
	FillingsUpdate:  mu: +0.391858011  nElectrons: 816.000000
SCF: Cycle: 14   F: -3898.582154745826756   dF: -3.017e-08   |Residual|: 8.465e-05   |deigs|: 4.516e-06  t[s]:   5059.79
	FillingsUpdate:  mu: +0.391857833  nElectrons: 816.000000
SCF: Cycle: 15   F: -3898.582154750214613   dF: -4.388e-09   |Residual|: 1.190e-04   |deigs|: 1.429e-06  t[s]:   5253.08
	FillingsUpdate:  mu: +0.391857721  nElectrons: 816.000000
SCF: Cycle: 16   F: -3898.582154757887565   dF: -7.673e-09   |Residual|: 1.286e-04   |deigs|: 1.271e-06  t[s]:   5500.77
SCF: Converged (|Delta E|<1.000000e-08 for 2 iters).

Setting wave functions to eigenvectors of Hamiltonian

# Ionic positions in lattice coordinates:
ion Bi   0.253347701477072   0.254942258444244   0.251568286925807 1
ion Bi   0.072746039727904   0.043299081138800   0.071374542028942 1
ion Bi   0.253106480917648   0.254053865417765   0.587091783983452 1
ion Bi   0.088197786386563   0.082063833096451   0.411256843905797 1
ion Bi   0.234813958674773   0.262448232839980   0.939507489328508 1
ion Bi   0.090043917985277   0.079193059700091   0.745342289123760 1
ion Bi   0.252944166226248   0.586684205841448   0.252983046918502 1
ion Bi   0.081503587069272   0.448255581958908   0.082075890235065 1
ion Bi   0.250158091928721   0.582743335728313   0.591667352619683 1
ion Bi   0.082176067004999   0.419465274239496   0.416077670105350 1
ion Bi   0.259818075469320   0.605766568912227   0.912104084388771 1
ion Bi   0.079883420969825   0.413751414739344   0.754932913877582 1
ion Bi   0.245623376341171   0.922404032979034   0.242957359642592 1
ion Bi   0.079440625973716   0.762287783299943   0.085700261547571 1
ion Bi   0.261067838078624   0.915860533984370   0.580411180321609 1
ion Bi   0.081024279022090   0.747707173800894   0.421031716249044 1
ion Bi   0.281727089925249   0.902833620268961   0.898106176644827 1
ion Bi   0.083959335638146   0.754108798472511   0.748317391007636 1
ion Bi   0.587227636971405   0.256116879180619   0.251300075249726 1
ion Bi   0.413416614534229   0.082425250101348   0.085913096392703 1
ion Bi   0.583182033254945   0.261391651735564   0.589475826319876 1
ion Bi   0.416752282820494   0.087953441294713   0.414278007719298 1
ion Bi   0.584770177200954   0.249173066341745   0.923815453195116 1
ion Bi   0.406031406807147   0.100045469102273   0.759361476596307 1
ion Bi   0.593746673529844   0.580736269182639   0.250016473799082 1
ion Bi   0.416174368535838   0.420910915758071   0.080469341193966 1
ion Bi   0.582254382467189   0.568543466532553   0.579629192965409 1
ion Bi   0.415863284654060   0.419945776750046   0.416130712684484 1
ion Bi   0.592910881189191   0.582829676116979   0.914935439715784 1
ion Bi   0.406327705841325   0.421293575224124   0.761077664749173 1
ion Bi   0.582786226115522   0.915536059863295   0.258743693163671 1
ion Bi   0.423226558977492   0.745178543918280   0.080629533290553 1
ion Bi   0.585456840650314   0.945191531637498   0.586205912944487 1
ion Bi   0.407237574558972   0.753396128372434   0.405363339567639 1
ion Bi   0.587020171525818   0.919762231062630   0.920142939257504 1
ion Bi   0.444405187817031   0.750987357826465   0.722312883463918 1
ion Bi   0.940382667796541   0.261027919351112   0.233968498616125 1
ion Bi   0.744893285402354   0.081513761813417   0.088861310763528 1
ion Bi   0.926272300128867   0.247094482317423   0.584065657575102 1
ion Bi   0.754966425462869   0.103744840803502   0.408950207900904 1
ion Bi   0.914958273032536   0.250204862324402   0.912932769321576 1
ion Bi   0.748631542282744   0.086678296088862   0.748788243479884 1
ion Bi   0.909553468448602   0.601379566327960   0.263759761907668 1
ion Bi   0.756860857824818   0.413951655813160   0.077342428551748 1
ion Bi   0.917548444890312   0.583370376116516   0.590489740531657 1
ion Bi   0.759748231885527   0.415545482654670   0.409429363122040 1
ion Bi   0.920772422831439   0.589400953923916   0.918269988439328 1
ion Bi   0.744851309223106   0.416610365450708   0.742099252691445 1
ion Bi   0.894889395074764   0.907634281031601   0.282966660006098 1
ion Bi   0.749813607934298   0.752399844292943   0.083010411818920 1
ion Bi   0.920695359540175   0.921281878662140   0.585781059305645 1
ion Bi   0.723154473812272   0.751881158036429   0.443563572239815 1
ion Bi   0.919237886485672   0.921497834336737   0.920304611156909 1
ion Bi   0.749190357680478   0.755230467391127   0.747345380704662 1
ion O   0.094807843994237   0.177976028399319   0.092053740743749 1

# Forces in Lattice coordinates:
force Bi   0.002383910346917   0.004812964114020   0.002207232093061 1
force Bi  -0.025000569233503  -0.010821365262917  -0.008616107348891 1
force Bi   0.001656879773015   0.000632880034150  -0.002913380180322 1
force Bi  -0.001496000002568  -0.003148165366351   0.002680987694717 1
force Bi   0.015652441541492   0.013456938358432   0.000687118769797 1
force Bi  -0.000642515122528  -0.000665223159372   0.001027522366788 1
force Bi   0.008363704620310   0.002949931459714   0.007097731666557 1
force Bi  -0.001850573225203   0.001281489625121  -0.003097872668191 1
force Bi  -0.000246346192717  -0.001386114272950   0.001881554742285 1
force Bi  -0.002060878229470   0.002805808556509   0.004669641033062 1
force Bi   0.002657054134036  -0.004945524438261  -0.002337487386892 1
force Bi  -0.014194574539351  -0.008514565127351  -0.002494873819695 1
force Bi   0.001764591351973   0.001156114969708  -0.001192279881217 1
force Bi  -0.002866843338883   0.001242140802544  -0.002029153771395 1
force Bi  -0.000427485834544  -0.004069623084806  -0.005900744956921 1
force Bi  -0.008074534544809  -0.001836510721880  -0.002258027809720 1
force Bi   0.001595355703200  -0.012304244787574  -0.013749132516011 1
force Bi  -0.004161475079256   0.005746130974321   0.001038831639270 1
force Bi   0.003200878278500   0.008804792848997   0.011554216205695 1
force Bi   0.007133155898511   0.000693591923401   0.002809701069300 1
force Bi  -0.001723604041485   0.002127929285194   0.001860384242654 1
force Bi   0.003604770557459   0.003185028140827   0.004675255039923 1
force Bi  -0.003548979415945  -0.000436283275343   0.003581197665190 1
force Bi  -0.001188172282221  -0.000779016504769   0.002401354009397 1
force Bi  -0.007117114787154  -0.006129687754653  -0.004795604596858 1
force Bi   0.008340473814238   0.008799103701376   0.004462913279997 1
force Bi  -0.015609665360189  -0.000811772397346  -0.000720086571171 1
force Bi   0.000055384003670   0.000396049095588  -0.002253001533796 1
force Bi  -0.001894086893318  -0.001055364699303  -0.001870019072299 1
force Bi   0.008120366814488   0.007767576112144  -0.001801136558433 1
force Bi  -0.008009883169078  -0.003228624746540  -0.000417690211735 1
force Bi   0.002775652668821   0.000942696321903   0.000196884114986 1
force Bi  -0.004880463681624  -0.002126585406941  -0.002843300238965 1
force Bi  -0.007514457697075  -0.008756825044709  -0.009939114728452 1
force Bi  -0.000977555288681   0.002449484981115   0.003383865717638 1
force Bi  -0.001187533313665   0.003244404041587   0.000748422006548 1
force Bi   0.010567582843052   0.012449933596204   0.001616023265765 1
force Bi   0.005622678903298  -0.002822469932585  -0.002698873472593 1
force Bi   0.002946824142496  -0.001299883776761  -0.001282336641489 1
force Bi   0.006542158487089   0.000838168688670   0.000645668035302 1
force Bi   0.005819614133680   0.001882995898481   0.003711961686228 1
force Bi   0.005287778527896  -0.000864399647204   0.005422573280437 1
force Bi   0.003766282289773   0.003137603364590   0.000510473616248 1
force Bi   0.006731123032009  -0.000668443661805  -0.002438138529080 1
force Bi  -0.005427428638409  -0.004394621520031  -0.001656070506896 1
force Bi   0.002287707177566  -0.001513923634039  -0.002073424151546 1
force Bi   0.004247313602853   0.002940490203387   0.005664727960389 1
force Bi  -0.006854519592912  -0.004617096441086  -0.008486621619307 1
force Bi   0.002830612213529   0.000670440720909   0.002189132562734 1
force Bi   0.003747757054070   0.007482240766489   0.003484792127499 1
force Bi  -0.000729966274597  -0.000926268078435  -0.006027634463310 1
force Bi   0.002666509185885   0.004968175651938   0.002708799278081 1
force Bi  -0.000961887222816  -0.006900971363912  -0.006054524721353 1
force Bi   0.003984330737245   0.002626712812120   0.004009394842727 1
force O  -0.004095123106953  -0.017356418968672   0.013302623811739 1

# Energy components:
   Eewald =    -2859.2763372967074247
       EH =      933.5240142447576090
     Eloc =    -2969.2384262994969504
      Enl =     1280.2963781471623861
      Exc =    -1739.0657759706527941
 Exc_core =     1112.0876037304958572
       KE =      343.3463936671847705
-------------------------------------
     Etot =    -3898.3261497772559778
       TS =        0.2560049806314415
-------------------------------------
        F =    -3898.5821547578875652

IonicMinimize: Iter:   0  F: -3898.582154757887565  |grad|_K:  2.258e-04  t[s]:   5552.33

#--- Lowdin population analysis ---
# oxidation-state Bi +0.041 +0.403 +0.041 +0.032 +0.340 +0.033 +0.040 +0.036 +0.041 +0.037 +0.042 +0.030 +0.073 +0.015 +0.043 +0.037 +0.055 +0.039 +0.041 +0.031 +0.040 +0.037 +0.043 +0.029 +0.041 +0.037 +0.094 +0.038 +0.042 -0.007 +0.043 +0.037 +0.048 +0.034 +0.041 +0.031 +0.332 +0.034 +0.043 +0.031 +0.038 +0.039 +0.041 +0.030 +0.042 -0.007 +0.040 +0.035 +0.053 +0.039 +0.041 +0.031 +0.038 +0.035
# oxidation-state O -0.748


-------- Electronic minimization -----------
Will mix electronic density at each iteration.
	FillingsUpdate:  mu: +0.391857721  nElectrons: 816.000000
	FillingsUpdate:  mu: +0.391860007  nElectrons: 816.000000
SCF: Cycle:  0   F: -3898.582161768773403   dF: +5.502e-07   |Residual|: 3.433e-04   |deigs|: 6.196e-07  t[s]:   5884.02
	FillingsUpdate:  mu: +0.391858708  nElectrons: 816.000000
SCF: Cycle:  1   F: -3898.582162747687562   dF: -9.789e-07   |Residual|: 2.796e-04   |deigs|: 7.754e-06  t[s]:   6081.29
	FillingsUpdate:  mu: +0.391859089  nElectrons: 816.000000
SCF: Cycle:  2   F: -3898.582162888892071   dF: -1.412e-07   |Residual|: 8.376e-05   |deigs|: 3.344e-06  t[s]:   6278.73
	FillingsUpdate:  mu: +0.391858805  nElectrons: 816.000000
SCF: Cycle:  3   F: -3898.582162938690544   dF: -4.980e-08   |Residual|: 2.577e-05   |deigs|: 1.488e-06  t[s]:   6474.05
	FillingsUpdate:  mu: +0.391858767  nElectrons: 816.000000
SCF: Cycle:  4   F: -3898.582162940439503   dF: -1.749e-09   |Residual|: 9.068e-06   |deigs|: 3.429e-07  t[s]:   6668.29
	FillingsUpdate:  mu: +0.391858750  nElectrons: 816.000000
SCF: Cycle:  5   F: -3898.582162940888793   dF: -4.493e-10   |Residual|: 3.987e-06   |deigs|: 2.174e-07  t[s]:   6859.19
SCF: Converged (|Delta E|<1.000000e-08 for 2 iters).

Setting wave functions to eigenvectors of Hamiltonian
IonicMinimize: 	Wolfe criterion not satisfied: alpha: 1  (E-E0)/|gdotd0|: -0.972724  gdotd/gdotd0: 0.942131 (taking cubic step)

-------- Electronic minimization -----------
Will mix electronic density at each iteration.
	FillingsUpdate:  mu: +0.391858750  nElectrons: 816.000000
	FillingsUpdate:  mu: +0.391858844  nElectrons: 816.000000
SCF: Cycle:  0   F: -3898.582173284461987   dF: +2.089e-06   |Residual|: 6.430e-04   |deigs|: 2.622e-07  t[s]:   7245.69
	FillingsUpdate:  mu: +0.391857561  nElectrons: 816.000000
SCF: Cycle:  1   F: -3898.582177063121890   dF: -3.779e-06   |Residual|: 5.264e-04   |deigs|: 1.381e-05  t[s]:   7446.28
	FillingsUpdate:  mu: +0.391858537  nElectrons: 816.000000
SCF: Cycle:  2   F: -3898.582177592105381   dF: -5.290e-07   |Residual|: 1.604e-04   |deigs|: 6.206e-06  t[s]:   7641.64
	FillingsUpdate:  mu: +0.391858407  nElectrons: 816.000000
SCF: Cycle:  3   F: -3898.582177781679547   dF: -1.896e-07   |Residual|: 5.090e-05   |deigs|: 2.327e-06  t[s]:   7836.67
	FillingsUpdate:  mu: +0.391858417  nElectrons: 816.000000
SCF: Cycle:  4   F: -3898.582177787305682   dF: -5.626e-09   |Residual|: 1.701e-05   |deigs|: 4.831e-07  t[s]:   8030.40
	FillingsUpdate:  mu: +0.391858435  nElectrons: 816.000000
SCF: Cycle:  5   F: -3898.582177788519402   dF: -1.214e-09   |Residual|: 7.374e-06   |deigs|: 1.765e-07  t[s]:   8227.76
SCF: Converged (|Delta E|<1.000000e-08 for 2 iters).

Setting wave functions to eigenvectors of Hamiltonian

# Ionic positions in lattice coordinates:
ion Bi   0.253347442899055   0.254965066415908   0.251566626792489 1
ion Bi   0.072619294986225   0.043303348601455   0.071398538687104 1
ion Bi   0.253122840084129   0.254061568805718   0.587066378871722 1
ion Bi   0.088188292963197   0.082039913096019   0.411285944936862 1
ion Bi   0.234888218348458   0.262503074429633   0.939444487946558 1
ion Bi   0.090038355388208   0.079188039937822   0.745352290271041 1
ion Bi   0.252977916498351   0.586668972598136   0.253005388560253 1
ion Bi   0.081494794546866   0.448276314352620   0.082055860627527 1
ion Bi   0.250154939122866   0.582730463609492   0.591683969832194 1
ion Bi   0.082144243923413   0.419478911624900   0.416107900131049 1
ion Bi   0.259852921367788   0.605732323294192   0.912093268234646 1
ion Bi   0.079811262945950   0.413732188971482   0.754968459549382 1
ion Bi   0.245635260664236   0.922411078831433   0.242942301479797 1
ion Bi   0.079422466802256   0.762308123773136   0.085690019554272 1
ion Bi   0.261087756573706   0.915847744534548   0.580381038908141 1
ion Bi   0.080978060985972   0.747719014357887   0.421039154512548 1
ion Bi   0.281798256859991   0.902777846541310   0.898036599190100 1
ion Bi   0.083914699252491   0.754155932202742   0.748320750059822 1
ion Bi   0.587201996434430   0.256143471835616   0.251351396251096 1
ion Bi   0.413457123048683   0.082407351419915   0.085914107965579 1
ion Bi   0.583160626501189   0.261406379491015   0.589487566293108 1
ion Bi   0.416758451908464   0.087956505763170   0.414294232616561 1
ion Bi   0.584738201386875   0.249170437526726   0.923849202038335 1
ion Bi   0.406019171720333   0.100037744273769   0.759382439108794 1
ion Bi   0.593722896216636   0.580722314559337   0.250014245135793 1
ion Bi   0.416200491650080   0.420942003636741   0.080460063695407 1
ion Bi   0.582150493282629   0.568576273291441   0.579662312085094 1
ion Bi   0.415867667939167   0.419954041086877   0.416114110955535 1
ion Bi   0.592904366484801   0.582831617988797   0.914929367650557 1
ion Bi   0.406369267604129   0.421332647435861   0.761028301732862 1
ion Bi   0.582739410487139   0.915533919893158   0.258766846610459 1
ion Bi   0.423242651194197   0.745178548676936   0.080622156554328 1
ion Bi   0.585434578786250   0.945195320403617   0.586202587514940 1
ion Bi   0.407229123136383   0.753377015083388   0.405332834960777 1
ion Bi   0.586999598825585   0.919773893161377   0.920162655361381 1
ion Bi   0.444387449904171   0.751011086447658   0.722313152220190 1
ion Bi   0.940422208945224   0.261085504627317   0.233926025619298 1
ion Bi   0.744944393116449   0.081488037531345   0.088836192026230 1
ion Bi   0.926298213810012   0.247082134016011   0.584052940566793 1
ion Bi   0.755007569336237   0.103734335014689   0.408937403754846 1
ion Bi   0.914984906608039   0.250196082632758   0.912940261969610 1
ion Bi   0.748656934298306   0.086647921049113   0.748815095355905 1
ion Bi   0.909570532025968   0.601391605839013   0.263747136739966 1
ion Bi   0.756913963289887   0.413937534780448   0.077311519879970 1
ion Bi   0.917524939899738   0.583357110711205   0.590501103577703 1
ion Bi   0.759771956860776   0.415535034458052   0.409413245027642 1
ion Bi   0.920781271359202   0.589398548443795   0.918292079932605 1
ion Bi   0.744834395230820   0.416614757546163   0.742067566521840 1
ion Bi   0.894901868556603   0.907627661012701   0.282973461914808 1
ion Bi   0.749813540690347   0.752434836253031   0.083008150329821 1
ion Bi   0.920706193990345   0.921291661185129   0.585743446960798 1
ion Bi   0.723154629001172   0.751903209500131   0.443564337480138 1
ion Bi   0.919261072275214   0.921467210711900   0.920281233707922 1
ion Bi   0.749201975933352   0.755230364999672   0.747357450755129 1
ion O   0.094788844048006   0.177835951733696   0.092194790982672 1

# Forces in Lattice coordinates:
force Bi   0.002530320952826   0.004841233088253   0.002402085794240 1
force Bi  -0.020748253594411  -0.009198200985590  -0.008762678810395 1
force Bi   0.001382069934585   0.000618083715973  -0.002155993163604 1
force Bi  -0.000734161474170  -0.002427785394202   0.002383139460116 1
force Bi   0.011053099878248   0.009906959478663   0.001914360100621 1
force Bi  -0.000069497470697  -0.000826068008598   0.000554977966511 1
force Bi   0.007128241936240   0.002877409376952   0.006150068669188 1
force Bi  -0.000804025882691   0.001580282126611  -0.002500822230307 1
force Bi  -0.000989558824833  -0.001227385933692   0.001975050599013 1
force Bi  -0.001601137225720   0.002588847595334   0.004101579973875 1
force Bi   0.002363130557360  -0.004100943048038  -0.001868195416035 1
force Bi  -0.012046164542296  -0.007292876678235  -0.001971358489152 1
force Bi   0.001331746558665   0.001099011628310  -0.001217214706803 1
force Bi  -0.002078962855424   0.000577396750266  -0.002161797492341 1
force Bi  -0.000707736893996  -0.003622936766549  -0.005497914623249 1
force Bi  -0.006836240254526  -0.001866213375821  -0.001823654594451 1
force Bi   0.000895912826094  -0.010020140938391  -0.010929294623907 1
force Bi  -0.003489536423487   0.004743639262791   0.000330890719230 1
force Bi   0.003641245390600   0.007587824612501   0.010095972497414 1
force Bi   0.006102417035049   0.001111476297421   0.002807558355255 1
force Bi  -0.000645308271694   0.001530935794598   0.001881721996337 1
force Bi   0.002975023570320   0.003052256284131   0.003969347252089 1
force Bi  -0.002243784470764  -0.000156372232855   0.003884080592820 1
force Bi  -0.001413809254826  -0.000621481939035   0.002130899258333 1
force Bi  -0.005538601609733  -0.005607734674955  -0.004571472759649 1
force Bi   0.007537823538536   0.007969015434846   0.004389605971403 1
force Bi  -0.012006322548231   0.000145301246002  -0.001546615516290 1
force Bi   0.000482635705879   0.001009193920297  -0.001079528825749 1
force Bi  -0.000909908313702  -0.000770526202684  -0.001825854428837 1
force Bi   0.005928314215249   0.005790013091025  -0.001692531196487 1
force Bi  -0.006418282174865  -0.002301512671257   0.000089370373376 1
force Bi   0.002148694485446   0.000647713477147  -0.000138993917573 1
force Bi  -0.003335819791712  -0.001380934160421  -0.002114799982887 1
force Bi  -0.007937679688831  -0.008700185513730  -0.009845292311708 1
force Bi  -0.000495807560310   0.002208784243166   0.002909924788667 1
force Bi  -0.001147961569135   0.002374358703582   0.000231647662133 1
force Bi   0.009750722817034   0.010687211163972   0.000911463541730 1
force Bi   0.003972401833408  -0.002992161825643  -0.002713827154759 1
force Bi   0.002519469062234  -0.001358751786887  -0.001179332736219 1
force Bi   0.005803366387067   0.001158179918390   0.000708920875792 1
force Bi   0.003727693612797   0.001023727804689   0.002266291995179 1
force Bi   0.004160970055135  -0.000669764749350   0.004477396759402 1
force Bi   0.003373396056769   0.003190911064840   0.000670344899224 1
force Bi   0.005795875332118  -0.000674660392908  -0.002230679981409 1
force Bi  -0.005433077366028  -0.003811263603694  -0.001246576254147 1
force Bi   0.001526467402252   0.000111536428019  -0.000437802264329 1
force Bi   0.003581765723013   0.002919351180752   0.004940559898809 1
force Bi  -0.007496214606910  -0.004844576065483  -0.008510725056356 1
force Bi   0.001642043022960   0.000120298019093   0.002204487191902 1
force Bi   0.002836321139816   0.006462585321788   0.003403433357454 1
force Bi  -0.000969648699555  -0.000957723409962  -0.005251932561460 1
force Bi   0.001319705002144   0.003502065469004   0.001943342337944 1
force Bi  -0.000717050461543  -0.006029537349397  -0.005153279263151 1
force Bi   0.003361606903177   0.002415201691324   0.003589859840159 1
force O  -0.000721462234711  -0.015501575560545   0.011224254524539 1

# Energy components:
   Eewald =    -2859.2866291658187947
       EH =      933.5102117779584887
     Eloc =    -2969.2107771467212842
      Enl =     1280.2914971232407879
      Exc =    -1739.0644939677065395
 Exc_core =     1112.0876035710089127
       KE =      343.3464097796235137
-------------------------------------
     Etot =    -3898.3261780284151428
       TS =        0.2559997601040643
-------------------------------------
        F =    -3898.5821777885194024

IonicMinimize: Iter:   1  F: -3898.582177788519402  |grad|_K:  1.881e-04  alpha:  3.000e+00  linmin: -9.901e-01  t[s]:   8279.04

#--- Lowdin population analysis ---
# oxidation-state Bi +0.041 +0.403 +0.040 +0.032 +0.339 +0.033 +0.040 +0.036 +0.041 +0.037 +0.042 +0.030 +0.073 +0.015 +0.043 +0.037 +0.055 +0.039 +0.041 +0.032 +0.040 +0.037 +0.043 +0.029 +0.041 +0.037 +0.094 +0.038 +0.042 -0.007 +0.043 +0.037 +0.048 +0.034 +0.041 +0.031 +0.332 +0.034 +0.043 +0.031 +0.038 +0.039 +0.041 +0.030 +0.042 -0.007 +0.040 +0.035 +0.053 +0.039 +0.041 +0.031 +0.039 +0.035
# oxidation-state O -0.748


-------- Electronic minimization -----------
Will mix electronic density at each iteration.
	FillingsUpdate:  mu: +0.391858435  nElectrons: 816.000000
	FillingsUpdate:  mu: +0.391876474  nElectrons: 816.000000
SCF: Cycle:  0   F: -3898.565437522121101   dF: -1.557e-02   |Residual|: 6.319e-02   |deigs|: 5.763e-05  t[s]:   8738.55
	FillingsUpdate:  mu: +0.391841626  nElectrons: 816.000000
SCF: Cycle:  1   F: -3898.579928511741400   dF: -1.449e-02   |Residual|: 3.279e-02   |deigs|: 3.754e-04  t[s]:   9062.24
	FillingsUpdate:  mu: +0.391889101  nElectrons: 816.000000
SCF: Cycle:  2   F: -3898.581423532125882   dF: -1.495e-03   |Residual|: 2.004e-02   |deigs|: 2.814e-04  t[s]:   9341.20
	FillingsUpdate:  mu: +0.391859281  nElectrons: 816.000000
SCF: Cycle:  3   F: -3898.582246184616452   dF: -8.227e-04   |Residual|: 5.311e-03   |deigs|: 2.245e-04  t[s]:   9615.56
	FillingsUpdate:  mu: +0.391862541  nElectrons: 816.000000
SCF: Cycle:  4   F: -3898.582259828792303   dF: -1.364e-05   |Residual|: 1.311e-03   |deigs|: 3.721e-05  t[s]:   9812.09
	FillingsUpdate:  mu: +0.391863555  nElectrons: 816.000000
SCF: Cycle:  5   F: -3898.582264610788116   dF: -4.782e-06   |Residual|: 5.554e-04   |deigs|: 8.105e-06  t[s]:  10013.53
	FillingsUpdate:  mu: +0.391863236  nElectrons: 816.000000
SCF: Cycle:  6   F: -3898.582264922348259   dF: -3.116e-07   |Residual|: 2.329e-04   |deigs|: 2.553e-06  t[s]:  10213.01
	FillingsUpdate:  mu: +0.391863268  nElectrons: 816.000000
SCF: Cycle:  7   F: -3898.582265020355862   dF: -9.801e-08   |Residual|: 1.110e-04   |deigs|: 9.648e-07  t[s]:  10408.63
	FillingsUpdate:  mu: +0.391863341  nElectrons: 816.000000
SCF: Cycle:  8   F: -3898.582265061287671   dF: -4.093e-08   |Residual|: 2.941e-05   |deigs|: 8.315e-07  t[s]:  10606.71
	FillingsUpdate:  mu: +0.391863382  nElectrons: 816.000000
SCF: Cycle:  9   F: -3898.582265075392570   dF: -1.410e-08   |Residual|: 2.976e-05   |deigs|: 2.069e-07  t[s]:  10803.10
	FillingsUpdate:  mu: +0.391863376  nElectrons: 816.000000
SCF: Cycle: 10   F: -3898.582265082953199   dF: -7.561e-09   |Residual|: 1.272e-05   |deigs|: 1.110e-07  t[s]:  10997.96
	FillingsUpdate:  mu: +0.391863380  nElectrons: 816.000000
SCF: Cycle: 11   F: -3898.582265086500229   dF: -3.547e-09   |Residual|: 1.398e-05   |deigs|: 1.369e-07  t[s]:  11229.78
SCF: Converged (|Delta E|<1.000000e-08 for 2 iters).

Setting wave functions to eigenvectors of Hamiltonian

# Ionic positions in lattice coordinates:
ion Bi   0.253356140696596   0.255189599130182   0.251570372021692 1
ion Bi   0.071879960420114   0.043384262202495   0.071317569614638 1
ion Bi   0.253212229354744   0.254114476738724   0.586934125873315 1
ion Bi   0.088185674766502   0.081878037426839   0.411465416013634 1
ion Bi   0.235071584773429   0.262701607848355   0.939405710764432 1
ion Bi   0.090102884294151   0.079105666873429   0.745361655119022 1
ion Bi   0.253192218516403   0.586613686923807   0.253160070948133 1
ion Bi   0.081518797754920   0.448452783642241   0.081868952872047 1
ion Bi   0.249993928719051   0.582655159822314   0.591902466694744 1
ion Bi   0.081925294172596   0.419593371161855   0.416322308570035 1
ion Bi   0.260102146998734   0.605497182641237   0.912024355016452 1
ion Bi   0.079300753037085   0.413581101156342   0.755243424511929 1
ion Bi   0.245696765990289   0.922499941187351   0.242807123270030 1
ion Bi   0.079397566759013   0.762382938923292   0.085556170689924 1
ion Bi   0.261207807573197   0.915777420118501   0.580120448298227 1
ion Bi   0.080667288591245   0.747750269392107   0.421120653540399 1
ion Bi   0.282164367716498   0.902439360548841   0.897665188083999 1
ion Bi   0.083643625601676   0.754494076183746   0.748263328258139 1
ion Bi   0.587143765225421   0.256285679322043   0.251701201655951 1
ion Bi   0.413698267890133   0.082339944103921   0.085956508878248 1
ion Bi   0.583135263942636   0.261409835743736   0.589588045489357 1
ion Bi   0.416769538568215   0.088038202696623   0.414393984141594 1
ion Bi   0.584576985220165   0.249102210283680   0.924164926802419 1
ion Bi   0.405862900249295   0.100007869844924   0.759562684450314 1
ion Bi   0.593681004512719   0.580563300212655   0.249915487366875 1
ion Bi   0.416396255293250   0.421183651980446   0.080437671635258 1
ion Bi   0.581619526357215   0.568921275850412   0.579640055823610 1
ion Bi   0.415886246017052   0.420051494530475   0.416068377100365 1
ion Bi   0.592972212916935   0.582842262077408   0.914806267227061 1
ion Bi   0.406561216745179   0.421542970606229   0.760749279373734 1
ion Bi   0.582423154931875   0.915545424621568   0.258954724214674 1
ion Bi   0.423346746446118   0.745183599034124   0.080541536873516 1
ion Bi   0.585365009995432   0.945231346375879   0.586160661030487 1
ion Bi   0.407067833167455   0.753203968106722   0.405048510617535 1
ion Bi   0.586897696889711   0.919857972725894   0.920282105433311 1
ion Bi   0.444281815817041   0.751148850405484   0.722279404092729 1
ion Bi   0.940837817789707   0.261492715210424   0.233509236121701 1
ion Bi   0.745231498909737   0.081281076063881   0.088667475026648 1
ion Bi   0.926500257147143   0.246961456345744   0.583961828116616 1
ion Bi   0.755302331729973   0.103710083238700   0.408835675327102 1
ion Bi   0.915059594376103   0.250157179877772   0.912949113426079 1
ion Bi   0.748786764843209   0.086470327726173   0.748997468060501 1
ion Bi   0.909676749098241   0.601537871995240   0.263658103514492 1
ion Bi   0.757312555925824   0.413827719491540   0.077070793326273 1
ion Bi   0.917227199648716   0.583288254609873   0.590652799888465 1
ion Bi   0.759730473742774   0.415632501543764   0.409453492878418 1
ion Bi   0.920809845756967   0.589443354387815   0.918446199716727 1
ion Bi   0.744572070339681   0.416660437867785   0.741779016437578 1
ion Bi   0.894876063939704   0.907535088245998   0.283138078344071 1
ion Bi   0.749729668195039   0.752693929432114   0.083073344216212 1
ion Bi   0.920743328263849   0.921360862141911   0.585485756704704 1
ion Bi   0.723064903695661   0.752016872632420   0.443601282116814 1
ion Bi   0.919448176581527   0.921223040599700   0.920118625098129 1
ion Bi   0.749260079024848   0.755251416015988   0.747462058689494 1
ion O   0.095126145069203   0.176595012129274   0.093068880622139 1

# Forces in Lattice coordinates:
force Bi   0.002296314786782   0.003544297007552   0.002422302357105 1
force Bi  -0.001217088956531  -0.004459209173159  -0.006916881454842 1
force Bi  -0.000176609830292   0.000808190722334   0.002002608825756 1
force Bi   0.002102399821176   0.001562159004703  -0.001328222996986 1
force Bi  -0.005438573566023  -0.005776809261983   0.002456233873225 1
force Bi   0.002355646002806  -0.001556978010282  -0.002009472465369 1
force Bi  -0.000551122034348   0.001621471060425   0.000105064535331 1
force Bi   0.005028024246247   0.004435293100272   0.002840511555451 1
force Bi  -0.004590645579436  -0.001632112231455   0.001608883051427 1
force Bi   0.001116723044101   0.001938337950089   0.001092758859469 1
force Bi   0.001892319876989   0.001314628105004  -0.000362822289646 1
force Bi   0.000743664914081   0.000743183294279   0.001458589774600 1
force Bi  -0.003899697157550   0.000220080159782  -0.003925745048075 1
force Bi   0.002588466838772  -0.001348981151415  -0.000485178554096 1
force Bi  -0.001251567682410  -0.001515027246418  -0.003457283056807 1
force Bi  -0.000226456740192  -0.001121707938312   0.000358051836842 1
force Bi  -0.001288719131723   0.002316303774892   0.003692625355871 1
force Bi   0.000980508775544  -0.000150000382705  -0.002285078557001 1
force Bi   0.004183726707981  -0.000259553650204   0.000448065645628 1
force Bi  -0.000378162751940   0.002559631790908   0.002731111093586 1
force Bi   0.003014854896486  -0.002028969028359   0.001263423963475 1
force Bi   0.000365566526277   0.002654914374905   0.000604586654975 1
force Bi   0.001953674393874   0.000574080895967   0.003002509569529 1
force Bi  -0.001507033382246   0.000676803220681   0.001312115126709 1
force Bi   0.002233426541922  -0.002631069859650  -0.003372373614132 1
force Bi   0.003202424148225   0.003116786681546   0.004259882033596 1
force Bi   0.001376323388898   0.002898058933199  -0.004319116248222 1
force Bi   0.003053414510820   0.003740703333182   0.005450437598961 1
force Bi   0.003331231337218   0.000256431623452  -0.002144112546283 1
force Bi  -0.004491952879380  -0.004794770993564  -0.001035747652645 1
force Bi   0.000186313522889   0.001294877926450   0.002101499240114 1
force Bi  -0.000849807570390  -0.000300329831279  -0.001380189068163 1
force Bi   0.004580333263345   0.003895058681524   0.002750817008543 1
force Bi  -0.007654029262257  -0.006243591818582  -0.007308902128859 1
force Bi   0.000750923429765   0.000829017526272  -0.000031796167087 1
force Bi   0.000100367754740  -0.001407503252176  -0.001943244994609 1
force Bi   0.003566018537688  -0.000097404586380  -0.000186566196710 1
force Bi  -0.003277229811234  -0.002865573868016   0.000020689344607 1
force Bi  -0.000354195078553  -0.001928773121834  -0.001255892038650 1
force Bi   0.003853995067851   0.004182539157224   0.001324715665950 1
force Bi  -0.009725513080783  -0.004818361855438  -0.008207603456938 1
force Bi  -0.000739660000096   0.000797340324779  -0.000121684897957 1
force Bi   0.000465421470881   0.002490055851511   0.001425155906215 1
force Bi   0.001185044396230  -0.000471771047780   0.000022941763460 1
force Bi  -0.004168856366511  -0.000536470966769   0.001275814077147 1
force Bi  -0.000732444861959   0.001692984832057   0.001244938249727 1
force Bi  -0.000502197675943   0.002683067898401   0.000208830884109 1
force Bi  -0.008266074301766  -0.004441288609246  -0.006742605965815 1
force Bi  -0.002192422049900  -0.001309363337735   0.000695515611161 1
force Bi  -0.001319219840479   0.000730619742353   0.002879829024638 1
force Bi  -0.001497277380638  -0.000224505456403  -0.000506282902241 1
force Bi  -0.003320384037915  -0.001901729079670  -0.001156388269506 1
force Bi   0.000863070138234  -0.000232635675120   0.000524837093243 1
force Bi   0.000610035211594   0.002135181645521   0.001577548324276 1
force O   0.012565645504691  -0.005714742818439   0.006628333817624 1

# Energy components:
   Eewald =    -2859.3177480289273262
       EH =      933.4818055078874295
     Eloc =    -2969.1493728428204122
      Enl =     1280.2907562396890171
      Exc =    -1739.0636494283858156
 Exc_core =     1112.0876029173427924
       KE =      343.3442411177884424
-------------------------------------
     Etot =    -3898.3263645174256453
       TS =        0.2559005690748031
-------------------------------------
        F =    -3898.5822650865002288

IonicMinimize: Iter:   2  F: -3898.582265086500229  |grad|_K:  1.208e-04  alpha:  1.000e+00  linmin: -3.439e-01  t[s]:  11280.87

#--- Lowdin population analysis ---
# oxidation-state Bi +0.040 +0.404 +0.040 +0.032 +0.335 +0.033 +0.040 +0.036 +0.040 +0.037 +0.041 +0.030 +0.075 +0.014 +0.043 +0.037 +0.056 +0.039 +0.041 +0.032 +0.040 +0.037 +0.043 +0.029 +0.040 +0.037 +0.095 +0.039 +0.042 -0.006 +0.043 +0.037 +0.048 +0.033 +0.041 +0.031 +0.333 +0.033 +0.043 +0.031 +0.038 +0.038 +0.041 +0.030 +0.042 -0.007 +0.041 +0.035 +0.054 +0.039 +0.041 +0.031 +0.039 +0.035
# oxidation-state O -0.748


-------- Electronic minimization -----------
Will mix electronic density at each iteration.
	FillingsUpdate:  mu: +0.391863380  nElectrons: 816.000000
	FillingsUpdate:  mu: +0.391876067  nElectrons: 816.000000
SCF: Cycle:  0   F: -3898.575254537834553   dF: -1.139e-02   |Residual|: 4.922e-02   |deigs|: 3.895e-05  t[s]:  11733.66
	FillingsUpdate:  mu: +0.391864370  nElectrons: 816.000000
SCF: Cycle:  1   F: -3898.581315744570475   dF: -6.061e-03   |Residual|: 2.369e-02   |deigs|: 1.672e-04  t[s]:  12059.50
	FillingsUpdate:  mu: +0.391876919  nElectrons: 816.000000
SCF: Cycle:  2   F: -3898.582217144597507   dF: -9.014e-04   |Residual|: 8.208e-03   |deigs|: 9.461e-05  t[s]:  12338.08
	FillingsUpdate:  mu: +0.391863142  nElectrons: 816.000000
SCF: Cycle:  3   F: -3898.582289135223164   dF: -7.199e-05   |Residual|: 4.363e-03   |deigs|: 9.847e-05  t[s]:  12532.35
	FillingsUpdate:  mu: +0.391867411  nElectrons: 816.000000
SCF: Cycle:  4   F: -3898.582306916373454   dF: -1.778e-05   |Residual|: 8.808e-04   |deigs|: 3.429e-05  t[s]:  12731.08
	FillingsUpdate:  mu: +0.391867957  nElectrons: 816.000000
SCF: Cycle:  5   F: -3898.582309442157566   dF: -2.526e-06   |Residual|: 4.393e-04   |deigs|: 5.049e-06  t[s]:  12929.91
	FillingsUpdate:  mu: +0.391867621  nElectrons: 816.000000
SCF: Cycle:  6   F: -3898.582309632263787   dF: -1.901e-07   |Residual|: 1.521e-04   |deigs|: 1.941e-06  t[s]:  13129.14
	FillingsUpdate:  mu: +0.391867563  nElectrons: 816.000000
SCF: Cycle:  7   F: -3898.582309692795661   dF: -6.053e-08   |Residual|: 6.892e-05   |deigs|: 8.862e-07  t[s]:  13323.86
	FillingsUpdate:  mu: +0.391867614  nElectrons: 816.000000
SCF: Cycle:  8   F: -3898.582309715704923   dF: -2.291e-08   |Residual|: 2.429e-05   |deigs|: 5.157e-07  t[s]:  13522.30
	FillingsUpdate:  mu: +0.391867647  nElectrons: 816.000000
SCF: Cycle:  9   F: -3898.582309724552942   dF: -8.848e-09   |Residual|: 1.607e-05   |deigs|: 1.916e-07  t[s]:  13717.81
	FillingsUpdate:  mu: +0.391867644  nElectrons: 816.000000
SCF: Cycle: 10   F: -3898.582309729055396   dF: -4.502e-09   |Residual|: 7.074e-06   |deigs|: 9.836e-08  t[s]:  13950.95
SCF: Converged (|Delta E|<1.000000e-08 for 2 iters).

Setting wave functions to eigenvectors of Hamiltonian

# Ionic positions in lattice coordinates:
ion Bi   0.253367431070994   0.255376079787950   0.251586730873567 1
ion Bi   0.071556172071437   0.043335651235393   0.071136561145208 1
ion Bi   0.253215138696995   0.254154590031529   0.586928916932776 1
ion Bi   0.088251046226922   0.081852877825688   0.411452326527289 1
ion Bi   0.235088898611506   0.262659378718057   0.939526356304599 1
ion Bi   0.090259050925774   0.079006845017393   0.745284796433916 1
ion Bi   0.253259364660462   0.586649889781554   0.253230122194416 1
ion Bi   0.081614998206276   0.448617782287664   0.081770311157705 1
ion Bi   0.249749332880063   0.582585769129065   0.592148671998854 1
ion Bi   0.081810849650950   0.419703897932165   0.416436410285007 1
ion Bi   0.260299928266798   0.605411198153598   0.911920274067348 1
ion Bi   0.079032057961486   0.413510689297058   0.755421589930871 1
ion Bi   0.245615533686593   0.922665391114629   0.242625495364164 1
ion Bi   0.079491237287652   0.762356441177398   0.085466417299002 1
ion Bi   0.261295021415299   0.915740692814002   0.579886955777765 1
ion Bi   0.080498808927919   0.747735580218270   0.421189608404795 1
ion Bi   0.282251244834347   0.902314308445368   0.897579862513120 1
ion Bi   0.083565829059109   0.754685523252027   0.748145529905273 1
ion Bi   0.587254260596965   0.256296900991509   0.251848505681905 1
ion Bi   0.413740143936648   0.082367080094485   0.086055881822106 1
ion Bi   0.583223847883621   0.261293250729975   0.589676045353276 1
ion Bi   0.416751267480872   0.088168267627425   0.414432143577063 1
ion Bi   0.584501779543724   0.249037407023567   0.924399577365141 1
ion Bi   0.405705129607250   0.100020548351096   0.759717186414074 1
ion Bi   0.593805496690379   0.580403374396098   0.249746505704558 1
ion Bi   0.416524369667436   0.421332319510119   0.080506227209249 1
ion Bi   0.581353520912730   0.569241147992541   0.579457038045138 1
ion Bi   0.415895556657410   0.420131134770898   0.416161279278835 1
ion Bi   0.593144979419091   0.582845727564302   0.914618161319054 1
ion Bi   0.406581199406549   0.421547370391080   0.760673960565332 1
ion Bi   0.582207451440775   0.915569060568754   0.259116236080195 1
ion Bi   0.423389737614178   0.745208346642704   0.080464345616526 1
ion Bi   0.585401210091703   0.945313976684717   0.586139496884502 1
ion Bi   0.406878504147198   0.753076984184381   0.404806142693096 1
ion Bi   0.586849030151301   0.919931069294204   0.920325577627725 1
ion Bi   0.444273303623656   0.751199269879203   0.722206225180307 1
ion Bi   0.941170742885785   0.261652919510754   0.233270151512991 1
ion Bi   0.745300835655393   0.081105652314917   0.088670488780502 1
ion Bi   0.926629800164366   0.246851037123246   0.583892607723434 1
ion Bi   0.755542438398407   0.103792892760732   0.408723294560464 1
ion Bi   0.914896450468177   0.250188592395194   0.912820831271241 1
ion Bi   0.748826058304258   0.086417139428175   0.749088651899184 1
ion Bi   0.909696433930096   0.601679840969384   0.263630332736059 1
ion Bi   0.757570878904792   0.413737550421542   0.076942568581890 1
ion Bi   0.916916079046831   0.583267005378832   0.590836230020999 1
ion Bi   0.759701135800717   0.415696118533598   0.409462453553908 1
ion Bi   0.920767759880951   0.589574048799473   0.918503294753586 1
ion Bi   0.744280545204637   0.416711399093602   0.741540371737795 1
ion Bi   0.894810491310899   0.907469772855464   0.283268239711597 1
ion Bi   0.749598164914700   0.752837727667373   0.083217677728376 1
ion Bi   0.920718005970427   0.921420798334683   0.585351457253764 1
ion Bi   0.722944427210826   0.752076803719611   0.443636917346263 1
ion Bi   0.919570234578053   0.921076806247004   0.920046480178423 1
ion Bi   0.749267538047333   0.755321055731369   0.747538933169983 1
ion O   0.095689246011277   0.175487015799182   0.093761543945780 1

# Forces in Lattice coordinates:
force Bi   0.001701310225149   0.002698533360488   0.001745257203569 1
force Bi   0.005034579390033   0.002853781657411  -0.003078036684277 1
force Bi  -0.000343385142972   0.001670287710021   0.003234175688427 1
force Bi   0.002786962219493   0.002713044516072  -0.001345328622493 1
force Bi  -0.011203651109737  -0.010047960250985   0.002302789322449 1
force Bi   0.001590584395418  -0.002095240187830  -0.003094800430367 1
force Bi  -0.002173499158869   0.000622526403188  -0.001048574565520 1
force Bi   0.004567052295261   0.003320437854754   0.002724806285950 1
force Bi  -0.004391305879448  -0.002136164729047   0.000364615867403 1
force Bi   0.001669560942668   0.001810126754392   0.000407698122439 1
force Bi   0.002195128797216   0.002717915372372   0.000239448067897 1
force Bi   0.003728434000047   0.003042115240912   0.002793829456009 1
force Bi  -0.005934872611000  -0.001208702587777  -0.005033621258323 1
force Bi   0.002987251353245  -0.001931063015784   0.000318306973676 1
force Bi  -0.000086935943138  -0.000797245257084  -0.002645849902064 1
force Bi   0.001490320208353  -0.000782685092642   0.001494367302010 1
force Bi  -0.000589145109032   0.005280687433995   0.006738545906661 1
force Bi   0.002907830493992  -0.000821426346121  -0.001219306026106 1
force Bi   0.002553634182694  -0.002570984884892  -0.003153649250670 1
force Bi  -0.002532348566448   0.002183871900650   0.001888873538685 1
force Bi   0.002830756908169  -0.002342850651548   0.000266872451403 1
force Bi   0.000282614913131   0.002559943101867   0.000457265722079 1
force Bi   0.001500013164751   0.000548477862939   0.001313859897894 1
force Bi  -0.000583726597057   0.001007871759242   0.000610438506795 1
force Bi   0.003790170967924  -0.001225350841638  -0.002016798569132 1
force Bi   0.001064403309922   0.000917570819420   0.002604537428494 1
force Bi   0.001549555845780  -0.000206822265792  -0.006529729471216 1
force Bi   0.002777217842229   0.002706770301856   0.005380634085923 1
force Bi   0.003838824593200   0.000351836133085  -0.001234390227236 1
force Bi  -0.005889124824415  -0.007164572360105  -0.000481178458107 1
force Bi   0.000237562029865   0.000923715343886   0.002017350138305 1
force Bi  -0.001037569356134  -0.001067856317237  -0.001813056449258 1
force Bi   0.006252655538744   0.005510718316263   0.003747355720122 1
force Bi  -0.006568316514717  -0.004264803254798  -0.005766284191008 1
force Bi   0.000961253046438   0.001004217082743   0.000168139544251 1
force Bi   0.001742336971113  -0.000510412564420  -0.001637810922886 1
force Bi   0.000449353741752  -0.004771576343700  -0.002303231552858 1
force Bi  -0.004665156804053  -0.002022055999564   0.001685439279196 1
force Bi  -0.000852909341810  -0.001356757079918  -0.001101313635580 1
force Bi   0.002780717492558   0.003941169381118   0.001116439802981 1
force Bi  -0.011732791431687  -0.006470716678169  -0.010255642717265 1
force Bi  -0.000902619169017   0.001638092598574  -0.000289198483507 1
force Bi  -0.001039297566814   0.000602523860691   0.001171909441595 1
force Bi  -0.000663903500240  -0.000988088544807  -0.000624592565587 1
force Bi  -0.001495631715162   0.001111112195223   0.002432705771579 1
force Bi  -0.000900354084528   0.001022442676899   0.001033433606165 1
force Bi  -0.000446551215936   0.002664573727074  -0.000250790801602 1
force Bi  -0.006754526508582  -0.003286827260059  -0.005018822321759 1
force Bi  -0.002131397726147  -0.001013992585631   0.000038485689026 1
force Bi  -0.001998706806861  -0.000998667492014   0.001631805184869 1
force Bi   0.000315756746426   0.001390913604415   0.002142023862844 1
force Bi  -0.003368813238041  -0.001992223874265  -0.000691044792251 1
force Bi   0.001736905180298   0.002358472726907   0.003021310947576 1
force Bi   0.000029392569294   0.002497438431467   0.000862242247973 1
force O   0.013169319813310  -0.004743161345160   0.003153929112030 1

# Energy components:
   Eewald =    -2859.3466377985600957
       EH =      933.4552767865650367
     Eloc =    -2969.0924227770374273
      Enl =     1280.2903922628161126
      Exc =    -1739.0626966060069662
 Exc_core =     1112.0876029716655466
       KE =      343.3420592608686661
-------------------------------------
     Etot =    -3898.3264258996891840
       TS =        0.2558838293662098
-------------------------------------
        F =    -3898.5823097290553960

IonicMinimize: Iter:   3  F: -3898.582309729055396  |grad|_K:  1.348e-04  alpha:  1.000e+00  linmin: -4.380e-01  t[s]:  14002.31

#--- Lowdin population analysis ---
# oxidation-state Bi +0.040 +0.404 +0.040 +0.033 +0.333 +0.033 +0.039 +0.036 +0.040 +0.037 +0.041 +0.030 +0.077 +0.014 +0.043 +0.037 +0.056 +0.039 +0.040 +0.033 +0.040 +0.037 +0.043 +0.029 +0.041 +0.037 +0.096 +0.039 +0.042 -0.007 +0.043 +0.037 +0.048 +0.032 +0.041 +0.031 +0.333 +0.033 +0.043 +0.031 +0.038 +0.038 +0.041 +0.030 +0.042 -0.008 +0.040 +0.035 +0.054 +0.039 +0.041 +0.031 +0.039 +0.035
# oxidation-state O -0.748


-------- Electronic minimization -----------
Will mix electronic density at each iteration.
	FillingsUpdate:  mu: +0.391867644  nElectrons: 816.000000
	FillingsUpdate:  mu: +0.391838039  nElectrons: 816.000000
SCF: Cycle:  0   F: -3898.491990950691161   dF: -1.546e-01   |Residual|: 1.971e-01   |deigs|: 6.127e-04  t[s]:  14457.76
	FillingsUpdate:  mu: +0.392000611  nElectrons: 816.000000
SCF: Cycle:  1   F: -3898.564836274122626   dF: -7.285e-02   |Residual|: 1.050e-01   |deigs|: 1.948e-03  t[s]:  14788.70
	FillingsUpdate:  mu: +0.391823421  nElectrons: 816.000000
SCF: Cycle:  2   F: -3898.573728588685299   dF: -8.892e-03   |Residual|: 6.826e-02   |deigs|: 1.201e-03  t[s]:  15109.84
	FillingsUpdate:  mu: +0.391906185  nElectrons: 816.000000
SCF: Cycle:  3   F: -3898.582343150056204   dF: -8.615e-03   |Residual|: 1.491e-02   |deigs|: 6.926e-04  t[s]:  15429.48
	FillingsUpdate:  mu: +0.391900947  nElectrons: 816.000000
SCF: Cycle:  4   F: -3898.582380855745214   dF: -3.771e-05   |Residual|: 3.183e-03   |deigs|: 5.729e-05  t[s]:  15626.50
	FillingsUpdate:  mu: +0.391898370  nElectrons: 816.000000
SCF: Cycle:  5   F: -3898.582414107858312   dF: -3.325e-05   |Residual|: 1.340e-03   |deigs|: 1.917e-05  t[s]:  15825.54
	FillingsUpdate:  mu: +0.391898301  nElectrons: 816.000000
SCF: Cycle:  6   F: -3898.582415305943869   dF: -1.198e-06   |Residual|: 5.363e-04   |deigs|: 3.371e-06  t[s]:  16020.86
	FillingsUpdate:  mu: +0.391897931  nElectrons: 816.000000
SCF: Cycle:  7   F: -3898.582415888768537   dF: -5.828e-07   |Residual|: 1.860e-04   |deigs|: 2.676e-06  t[s]:  16212.93
	FillingsUpdate:  mu: +0.391898072  nElectrons: 816.000000
SCF: Cycle:  8   F: -3898.582416033001209   dF: -1.442e-07   |Residual|: 8.118e-05   |deigs|: 1.892e-06  t[s]:  16416.24
	FillingsUpdate:  mu: +0.391898051  nElectrons: 816.000000
SCF: Cycle:  9   F: -3898.582416094331620   dF: -6.133e-08   |Residual|: 5.428e-05   |deigs|: 5.895e-07  t[s]:  16613.31
	FillingsUpdate:  mu: +0.391898079  nElectrons: 816.000000
SCF: Cycle: 10   F: -3898.582416123456369   dF: -2.912e-08   |Residual|: 2.674e-05   |deigs|: 2.546e-07  t[s]:  16806.86
	FillingsUpdate:  mu: +0.391898081  nElectrons: 816.000000
SCF: Cycle: 11   F: -3898.582416137649943   dF: -1.419e-08   |Residual|: 2.354e-05   |deigs|: 1.290e-07  t[s]:  17035.17
	FillingsUpdate:  mu: +0.391898091  nElectrons: 816.000000
SCF: Cycle: 12   F: -3898.582416145874504   dF: -8.225e-09   |Residual|: 1.119e-05   |deigs|: 1.061e-07  t[s]:  17272.39
	FillingsUpdate:  mu: +0.391898092  nElectrons: 816.000000
SCF: Cycle: 13   F: -3898.582416150251447   dF: -4.377e-09   |Residual|: 9.055e-06   |deigs|: 4.210e-08  t[s]:  17495.93
SCF: Converged (|Delta E|<1.000000e-08 for 2 iters).

Setting wave functions to eigenvectors of Hamiltonian

# Ionic positions in lattice coordinates:
ion Bi   0.253391681762941   0.256079757706194   0.251604227081922 1
ion Bi   0.070435877291099   0.043961955937037   0.070384403394879 1
ion Bi   0.253075255338427   0.254450807402417   0.587060609527524 1
ion Bi   0.088544004069848   0.081911342052091   0.411315551980072 1
ion Bi   0.234540341374778   0.262177342945879   0.940418316890016 1
ion Bi   0.090808834415192   0.078626868069303   0.744867229819974 1
ion Bi   0.253414419431568   0.586740025716162   0.253506750934238 1
ion Bi   0.081951903721109   0.449135867101053   0.081439162324616 1
ion Bi   0.248956501991790   0.582230037393534   0.592915042018241 1
ion Bi   0.081453346788860   0.420169516546920   0.416787001823307 1
ion Bi   0.261112433820018   0.605232412905947   0.911461246585905 1
ion Bi   0.078163313425979   0.413376666560374   0.756122523031347 1
ion Bi   0.245040969296522   0.923281679419178   0.241859318437021 1
ion Bi   0.079874057653886   0.762099568780519   0.085295715350216 1
ion Bi   0.261851899287717   0.915565847527262   0.578912306157690 1
ion Bi   0.079968698093277   0.747586356237224   0.421575567897489 1
ion Bi   0.282516515955725   0.902039224991384   0.897438027232625 1
ion Bi   0.083535180667207   0.755202424890626   0.747837366464796 1
ion Bi   0.587696716709842   0.256295019485523   0.252064195028920 1
ion Bi   0.413623374180704   0.082563775829726   0.086464993725964 1
ion Bi   0.583552471878745   0.260898175251456   0.589877988891540 1
ion Bi   0.416701758312161   0.088691216664904   0.414609868099650 1
ion Bi   0.584122291227805   0.248942352812153   0.925071427315907 1
ion Bi   0.405285243636427   0.100107058071778   0.760142675407217 1
ion Bi   0.594363669424701   0.579830068000200   0.249149198638172 1
ion Bi   0.416920861513746   0.421801592406128   0.080719479048663 1
ion Bi   0.580374818576423   0.570060448545350   0.578610875939122 1
ion Bi   0.415970835048641   0.420261132643964   0.416573957478493 1
ion Bi   0.593842383408286   0.582783111656872   0.914009251890978 1
ion Bi   0.406617179882807   0.421207561112844   0.760640242652342 1
ion Bi   0.581253025383336   0.915574136533281   0.259832343759854 1
ion Bi   0.423651147084108   0.745190971088087   0.080117515563445 1
ion Bi   0.585643731898946   0.945825981883175   0.586030567455096 1
ion Bi   0.406094664979242   0.752770431584317   0.403878483365104 1
ion Bi   0.586603055693300   0.920269965704915   0.920568522149422 1
ion Bi   0.444470431831819   0.751522240583741   0.721794445495252 1
ion Bi   0.942390616422912   0.261786898288533   0.232371114396153 1
ion Bi   0.745225714736585   0.080500057151475   0.089048265814984 1
ion Bi   0.927046887618138   0.246534488297356   0.583608166137070 1
ion Bi   0.756424800354088   0.104145946192006   0.408283721913103 1
ion Bi   0.914140842003751   0.250236914339584   0.912133098742803 1
ion Bi   0.748975529505168   0.086334366939257   0.749436081939111 1
ion Bi   0.909643119357028   0.601986002876057   0.263690464935593 1
ion Bi   0.758419782485665   0.413411855249398   0.076396956383861 1
ion Bi   0.916009583086606   0.583221110659619   0.591527895089765 1
ion Bi   0.759765364322304   0.415732804636036   0.409401062242258 1
ion Bi   0.920669224517845   0.590120307987575   0.918678221593796 1
ion Bi   0.743213560003875   0.416942224204763   0.740693836721544 1
ion Bi   0.894657561175278   0.907319874985146   0.283594600528455 1
ion Bi   0.749158373137854   0.753262517681143   0.083688398222627 1
ion Bi   0.920730809638868   0.921716781587818   0.585044908676197 1
ion Bi   0.722445947077712   0.752342211728598   0.443884860155387 1
ion Bi   0.919925944531974   0.920744232065235   0.919993815171792 1
ion Bi   0.749229819904105   0.755783741391679   0.747733707512875 1
ion O   0.098103625063261   0.171124721697201   0.096124424965604 1

# Forces in Lattice coordinates:
force Bi   0.001428444663076   0.000982714897680   0.002273842916287 1
force Bi  -0.019369842667979  -0.038584545656413  -0.033691373204164 1
force Bi  -0.001324163805647   0.002284756192339   0.005433526477467 1
force Bi   0.003856240438481   0.003611441926514  -0.002780902510755 1
force Bi  -0.003250025158722  -0.004685349127918  -0.004038074646584 1
force Bi   0.001449490406033  -0.003231742075949  -0.004352280004392 1
force Bi  -0.003920454234945  -0.000237839016522  -0.002171336364877 1
force Bi   0.002844485991755   0.000078572229615   0.002281887409493 1
force Bi  -0.001656051472323  -0.001811874395425  -0.000897092038514 1
force Bi   0.002548332974306   0.000594744963541  -0.001108199874832 1
force Bi   0.002281106569163   0.005893866321292   0.001141481836027 1
force Bi   0.007842052771980   0.006035057392194   0.005798782791943 1
force Bi  -0.005819368723237  -0.004250319927970  -0.002963172885460 1
force Bi   0.004061365005728  -0.002931181374504   0.002762204898840 1
force Bi   0.003265187537885   0.000857624544102   0.001202711662316 1
force Bi   0.006662476089854   0.001876446041116   0.004423886973085 1
force Bi  -0.002811185106907   0.011508381800802   0.013084344078147 1
force Bi   0.007851370978759  -0.001047845999134   0.002668282681869 1
force Bi   0.000017733530838  -0.004761608341956  -0.007770208803350 1
force Bi  -0.007179082579549   0.000449905578621   0.000287734619254 1
force Bi   0.002941525270231  -0.002662162852371  -0.001023236815859 1
force Bi  -0.001176666999816   0.001806349064152  -0.000980084062627 1
force Bi   0.001594082021047   0.000074398002825  -0.001508719840350 1
force Bi   0.001749258980132   0.002863686983147   0.000052743248869 1
force Bi   0.005947059930635   0.001338484779859   0.000523552337819 1
force Bi  -0.004085318835088  -0.004142206042296  -0.002254522232513 1
force Bi   0.003098996206750  -0.002717491602273  -0.005064464337293 1
force Bi   0.000908515598022  -0.001478591167122   0.001346112644735 1
force Bi   0.003250643874418   0.000247688141247  -0.001668078139204 1
force Bi  -0.011107903390084  -0.012637234547872   0.001322277372244 1
force Bi   0.001188005256576  -0.000062329796076   0.002379007648864 1
force Bi  -0.000728100968093  -0.001815981860660  -0.000328051367312 1
force Bi   0.007681329491370   0.007123527017894   0.003811928034286 1
force Bi  -0.003345989098729   0.000443315192866  -0.000895871846430 1
force Bi   0.001694983485089   0.001155884501483   0.000371313596411 1
force Bi   0.005396328224927  -0.000745753872718  -0.002532782088411 1
force Bi  -0.007886883811997  -0.004551301888148   0.004937167292830 1
force Bi  -0.008070137158916  -0.000818377766343   0.003557131937776 1
force Bi  -0.001714517532713   0.001179685078618   0.000150806016715 1
force Bi  -0.001408950920732   0.001064292108193  -0.001555829211108 1
force Bi  -0.013739578092956  -0.006836542015671  -0.013677864006214 1
force Bi  -0.001526288224317   0.002848329572005  -0.000552935580662 1
force Bi  -0.003890663624927  -0.000939514255111   0.001739146270489 1
force Bi  -0.002801827058610  -0.001244039260029  -0.001172919373040 1
force Bi   0.001416224789998   0.003745485642741   0.003689953129661 1
force Bi  -0.001533257322320  -0.006435399397860  -0.005442375475526 1
force Bi  -0.001948276008245   0.001943816094248  -0.002692010396397 1
force Bi  -0.003141162502269   0.002584137735547  -0.001825599208564 1
force Bi  -0.001156214281276  -0.000607623379168  -0.003081748687247 1
force Bi  -0.001962032204452  -0.002779786642843   0.000044750016052 1
force Bi   0.004988145365553   0.004717848909825   0.008139479224502 1
force Bi  -0.002867095403089  -0.003771354205433  -0.000199904241571 1
force Bi   0.002536495991205   0.006263607600665   0.006928421049286 1
force Bi  -0.000167162894760   0.002674527069477   0.000123820565193 1
force O   0.030899871880060   0.032071082624975   0.023308299905355 1

# Energy components:
   Eewald =    -2859.3847512317238397
       EH =      933.4229399113822865
     Eloc =    -2969.0206319206440639
      Enl =     1280.2897025894390026
      Exc =    -1739.0606087009844032
 Exc_core =     1112.0876051884395110
       KE =      343.3392401463111128
-------------------------------------
     Etot =    -3898.3265040177807350
       TS =        0.2559121324708118
-------------------------------------
        F =    -3898.5824161502514471

IonicMinimize: Iter:   4  F: -3898.582416150251447  |grad|_K:  2.339e-04  alpha:  9.834e-01  linmin: -7.401e-02  t[s]:  17547.20

#--- Lowdin population analysis ---
# oxidation-state Bi +0.040 +0.407 +0.040 +0.033 +0.330 +0.032 +0.039 +0.035 +0.041 +0.037 +0.041 +0.029 +0.085 +0.014 +0.043 +0.036 +0.056 +0.039 +0.040 +0.034 +0.040 +0.037 +0.043 +0.029 +0.041 +0.037 +0.098 +0.039 +0.042 -0.008 +0.043 +0.037 +0.048 +0.030 +0.041 +0.031 +0.330 +0.032 +0.043 +0.031 +0.038 +0.038 +0.041 +0.030 +0.042 -0.009 +0.040 +0.034 +0.054 +0.039 +0.041 +0.030 +0.039 +0.035
# oxidation-state O -0.746


-------- Electronic minimization -----------
Will mix electronic density at each iteration.
	FillingsUpdate:  mu: +0.391898092  nElectrons: 816.000000
	FillingsUpdate:  mu: +0.391867999  nElectrons: 816.000000
SCF: Cycle:  0   F: -3898.503689041271628   dF: -1.921e-01   |Residual|: 1.942e-01   |deigs|: 5.754e-04  t[s]:  17995.90
	FillingsUpdate:  mu: +0.391958345  nElectrons: 816.000000
SCF: Cycle:  1   F: -3898.567766743723496   dF: -6.408e-02   |Residual|: 9.467e-02   |deigs|: 1.106e-03  t[s]:  18321.32
	FillingsUpdate:  mu: +0.391835533  nElectrons: 816.000000
SCF: Cycle:  2   F: -3898.576339647011082   dF: -8.573e-03   |Residual|: 6.019e-02   |deigs|: 9.627e-04  t[s]:  18642.11
	FillingsUpdate:  mu: +0.391920283  nElectrons: 816.000000
SCF: Cycle:  3   F: -3898.582378706053078   dF: -6.039e-03   |Residual|: 1.540e-02   |deigs|: 6.148e-04  t[s]:  18922.08
	FillingsUpdate:  mu: +0.391912890  nElectrons: 816.000000
SCF: Cycle:  4   F: -3898.582436103414693   dF: -5.740e-05   |Residual|: 3.246e-03   |deigs|: 6.172e-05  t[s]:  19177.93
	FillingsUpdate:  mu: +0.391912071  nElectrons: 816.000000
SCF: Cycle:  5   F: -3898.582472818177848   dF: -3.671e-05   |Residual|: 1.426e-03   |deigs|: 1.436e-05  t[s]:  19375.82
	FillingsUpdate:  mu: +0.391911862  nElectrons: 816.000000
SCF: Cycle:  6   F: -3898.582474014599484   dF: -1.196e-06   |Residual|: 4.777e-04   |deigs|: 2.672e-06  t[s]:  19571.12
	FillingsUpdate:  mu: +0.391911758  nElectrons: 816.000000
SCF: Cycle:  7   F: -3898.582474590534275   dF: -5.759e-07   |Residual|: 1.651e-04   |deigs|: 1.287e-06  t[s]:  19769.67
	FillingsUpdate:  mu: +0.391911901  nElectrons: 816.000000
SCF: Cycle:  8   F: -3898.582474730617378   dF: -1.401e-07   |Residual|: 8.496e-05   |deigs|: 1.317e-06  t[s]:  19967.22
	FillingsUpdate:  mu: +0.391911927  nElectrons: 816.000000
SCF: Cycle:  9   F: -3898.582474796533006   dF: -6.592e-08   |Residual|: 4.656e-05   |deigs|: 4.406e-07  t[s]:  20162.73
	FillingsUpdate:  mu: +0.391911952  nElectrons: 816.000000
SCF: Cycle: 10   F: -3898.582474827308943   dF: -3.078e-08   |Residual|: 2.742e-05   |deigs|: 1.842e-07  t[s]:  20359.16
	FillingsUpdate:  mu: +0.391911951  nElectrons: 816.000000
SCF: Cycle: 11   F: -3898.582474843165983   dF: -1.586e-08   |Residual|: 2.019e-05   |deigs|: 1.103e-07  t[s]:  20555.79
	FillingsUpdate:  mu: +0.391911960  nElectrons: 816.000000
SCF: Cycle: 12   F: -3898.582474852195901   dF: -9.030e-09   |Residual|: 1.250e-05   |deigs|: 7.000e-08  t[s]:  20777.22
	FillingsUpdate:  mu: +0.391911959  nElectrons: 816.000000
SCF: Cycle: 13   F: -3898.582474857561465   dF: -5.366e-09   |Residual|: 8.003e-06   |deigs|: 6.087e-08  t[s]:  21007.47
SCF: Converged (|Delta E|<1.000000e-08 for 2 iters).

Setting wave functions to eigenvectors of Hamiltonian

# Ionic positions in lattice coordinates:
ion Bi   0.253422568228823   0.256775880711687   0.251671633502729 1
ion Bi   0.069292078721761   0.043766129055633   0.069189925224848 1
ion Bi   0.252816404902805   0.254793273172136   0.587333653006899 1
ion Bi   0.088933045793857   0.082052876363830   0.411040328842769 1
ion Bi   0.234185383894103   0.261772208995786   0.941034442489372 1
ion Bi   0.091455419104043   0.078179522723274   0.744349482915445 1
ion Bi   0.253507078425541   0.586859256560630   0.253786558385455 1
ion Bi   0.082315743600568   0.449595437786873   0.081142212256743 1
ion Bi   0.248199414942041   0.581829362465577   0.593659586262873 1
ion Bi   0.081157401225010   0.420644464770993   0.417091711162190 1
ion Bi   0.261946302357842   0.605189022637888   0.910939499519518 1
ion Bi   0.077346586343480   0.413277342050052   0.756901669394298 1
ion Bi   0.244383922418402   0.923819829861735   0.241128262773841 1
ion Bi   0.080343819458017   0.761699047168069   0.085223349556311 1
ion Bi   0.262531982039203   0.915347938160301   0.577926821941045 1
ion Bi   0.079552457374853   0.747403809117593   0.422018152412845 1
ion Bi   0.282486517483755   0.901987637688992   0.897551585341548 1
ion Bi   0.083704889972782   0.755600632030121   0.747588184554898 1
ion Bi   0.588207943243208   0.256276062849603   0.252118849284060 1
ion Bi   0.413296721484775   0.082821750508907   0.086949753683789 1
ion Bi   0.583963358266045   0.260448022360929   0.590039229240028 1
ion Bi   0.416612917578022   0.089288218770703   0.414768102559845 1
ion Bi   0.583765426007722   0.248866903549864   0.925673036041104 1
ion Bi   0.404910432553701   0.100265164973104   0.760514767886700 1
ion Bi   0.595032759281538   0.579241762473329   0.248519848897621 1
ion Bi   0.417265130331703   0.422228195279908   0.080910603433805 1
ion Bi   0.579434731053039   0.570789711080715   0.577705607707493 1
ion Bi   0.416090568341304   0.420302899052586   0.416977332825216 1
ion Bi   0.594616159766253   0.582718777233205   0.913326423482872 1
ion Bi   0.406458553020842   0.420598025841826   0.760878583001446 1
ion Bi   0.580261021695411   0.915520404102150   0.260636671841613 1
ion Bi   0.423935946741645   0.745114028030329   0.079798694696362 1
ion Bi   0.585973528129331   0.946456190675303   0.585872744109997 1
ion Bi   0.405219846959849   0.752534080788926   0.402953220768020 1
ion Bi   0.586364288099117   0.920638868988624   0.920822773620870 1
ion Bi   0.444883297225155   0.751823715974037   0.721241959409239 1
[...]
ion Bi   0.233598719679446   0.261310862726427   0.941440382972657 1
ion Bi   0.091816809014838   0.077899447007390   0.743874070120157 1
ion Bi   0.253394579577258   0.586918914018200   0.253925385747393 1
ion Bi   0.082417508504059   0.449542844097874   0.081162418635766 1
ion Bi   0.248271346978484   0.581520486542273   0.593671061482347 1
ion Bi   0.081194015976991   0.420838396764761   0.417094081810430 1
ion Bi   0.262293774034544   0.605531765729367   0.910581091737564 1
ion Bi   0.077151599347835   0.413403582685950   0.757407726711387 1
ion Bi   0.243610700970470   0.924117908465788   0.240751339258669 1
ion Bi   0.080607526874877   0.761083911138697   0.085593306950899 1
ion Bi   0.263201753673459   0.915097855486924   0.577602057773747 1
ion Bi   0.079688010758740   0.747306893642408   0.422389165172806 1
ion Bi   0.282313115132970   0.902287492286025   0.897817635147680 1
ion Bi   0.084374982466515   0.755315241704565   0.747823121912197 1
ion Bi   0.588442874673109   0.256326848100114   0.251557329583330 1
ion Bi   0.412670077681284   0.083010774960363   0.087317861964467 1
ion Bi   0.584200484762424   0.260307710487294   0.589904562111623 1
ion Bi   0.416535810824933   0.089621062583754   0.414844624659450 1
ion Bi   0.583633656786693   0.248976755002404   0.925561193128281 1
ion Bi   0.405132576849589   0.100450721021579   0.760343828273104 1
ion Bi   0.595399514009970   0.579107877953830   0.248353701294931 1
ion Bi   0.417218571423442   0.422232850329073   0.080805010638470 1
ion Bi   0.579098650756428   0.570501626255527   0.577276636230307 1
ion Bi   0.416307828063666   0.419968341471552   0.417052566270737 1
ion Bi   0.594931759039210   0.582719511709111   0.913059360716978 1
ion Bi   0.406182197159283   0.419854221311398   0.761496537168745 1
ion Bi   0.579728666215027   0.915302895535096   0.261142574641418 1
ion Bi   0.424171650375161   0.744862351185510   0.079785223688184 1
ion Bi   0.586251842649904   0.947009651288356   0.585667102912094 1
ion Bi   0.404820564896071   0.752667291561216   0.402763565517579 1
ion Bi   0.586192915978068   0.920890978091851   0.921046958177525 1
ion Bi   0.445755635889921   0.751901026973125   0.720645252923456 1
ion Bi   0.943408889623586   0.261189759038180   0.231809458754466 1
ion Bi   0.744004666207386   0.079841810948426   0.090437113295069 1
ion Bi   0.927294273301437   0.246521017964606   0.583235490058449 1
ion Bi   0.757520858565330   0.104624089643862   0.407497230391092 1
ion Bi   0.912483433682537   0.250625522997561   0.910268022814391 1
ion Bi   0.749082396748561   0.086566112403513   0.749916421522386 1
ion Bi   0.909020851812141   0.602110398480923   0.264270072286009 1
ion Bi   0.759440859589893   0.413016934226267   0.075442704009152 1
ion Bi   0.915006662035215   0.583414401143070   0.592569147972819 1
ion Bi   0.760467500708464   0.415028241305752   0.408857220870815 1
ion Bi   0.920470543860479   0.591186682150948   0.918664736983196 1
ion Bi   0.741622164141843   0.418002206339633   0.739313066707479 1
ion Bi   0.894699119139168   0.907150015298597   0.283625680182304 1
ion Bi   0.748682066557846   0.753672733856584   0.084269481815167 1
ion Bi   0.921150043024575   0.922230213472036   0.585277014355208 1
ion Bi   0.721678834783781   0.752320988106965   0.444638930191971 1
ion Bi   0.920116327131707   0.920757864669211   0.920516264667351 1
ion Bi   0.749110007754980   0.756877784559871   0.747821891609975 1
ion O   0.101615955223815   0.165549923849114   0.099397270248185 1

# Forces in Lattice coordinates:
force Bi  -0.000234025790299   0.000845419851036   0.000783006374335 1
force Bi  -0.019249806111599  -0.014503634594259  -0.014435263010995 1
force Bi  -0.000832185762802   0.000533058757976   0.000674427002820 1
force Bi   0.001975544337123   0.000121190355236   0.002365944368081 1
force Bi   0.003354173699180   0.003509123765852  -0.001339873839388 1
force Bi  -0.000276594741104  -0.001231726133114  -0.000128431495763 1
force Bi   0.002656005340095   0.001186276498583   0.002680662126352 1
force Bi  -0.003581026707456  -0.004828935588346  -0.002832412487580 1
force Bi   0.003898226096922   0.000310860748815   0.000214774954452 1
force Bi  -0.000062445950807   0.000591970834646   0.001461174987004 1
force Bi   0.000932591028243   0.000373394195435  -0.000062348552092 1
force Bi  -0.003680360789403  -0.001156635674491   0.001302271997009 1
force Bi   0.000856925461146  -0.000985506035441   0.001470777902235 1
force Bi  -0.001774267489751  -0.002061337520495   0.000536049930429 1
force Bi   0.002992486713039   0.000061288196679   0.002033620480740 1
force Bi   0.001400988230929   0.003516387613562   0.002607280703565 1
force Bi   0.001270245941645  -0.003913417693568  -0.004487504666866 1
force Bi   0.002904868062814   0.001403930998180   0.004186905174417 1
force Bi  -0.000370834020216   0.003117939928909   0.000450587864169 1
force Bi   0.001376774873190  -0.000832627298730   0.001068465389515 1
force Bi  -0.000191211856508   0.001824393290716  -0.000024347913579 1
force Bi   0.001739501482493   0.001330833834882   0.002123123290794 1
force Bi  -0.000896917890551   0.000173745176025  -0.001399039657013 1
force Bi   0.002147819210912  -0.000698370879640  -0.000310119914278 1
force Bi  -0.001900083555807   0.000776627622930   0.001240604963115 1
force Bi  -0.000612096866567  -0.000206480581190  -0.002539765586697 1
force Bi  -0.006738981699868  -0.005387893167997  -0.003023657149713 1
force Bi  -0.000925923687017  -0.003617225353848  -0.003665650660293 1
force Bi  -0.001314842149101   0.002332659046239   0.001522954494237 1
force Bi   0.001482850889884   0.000881990977748   0.001419962375138 1
force Bi  -0.001528312549985  -0.001203410272123   0.000742609304396 1
force Bi   0.001792639402917   0.000928849718214   0.002029715880157 1
force Bi  -0.002898722746138  -0.001610480405802  -0.003014327253294 1
force Bi  -0.000828895431223  -0.000218436048321  -0.001165685037097 1
force Bi  -0.000248301697619   0.001851515268357   0.002479115014394 1
force Bi   0.004319867135987   0.000446046690678   0.000584654569511 1
force Bi  -0.001747554305575   0.000316394192118   0.000111102465524 1
force Bi  -0.000141106819594  -0.000425726784718   0.000203788808959 1
force Bi   0.000408545653973   0.002897169241163   0.001353420396612 1
force Bi  -0.000777063627418  -0.005186641236351  -0.002434633317047 1
force Bi  -0.001359755633219   0.000735691820425  -0.002371071894350 1
force Bi   0.002308324788622   0.000191196909651   0.002153053287846 1
force Bi  -0.001311930367230  -0.001879583231219  -0.000399914935008 1
force Bi   0.001780858200657   0.000028942997627  -0.002377182901888 1
force Bi   0.002666884388185   0.002995502650423   0.000677448643439 1
force Bi   0.000745292741223  -0.003273625388076  -0.001410299472240 1
force Bi   0.000932866896443   0.000935609296553   0.001067841996419 1
force Bi   0.000918641825041   0.004440594610855  -0.000875446633502 1
force Bi   0.001855960859953  -0.002798080672287  -0.001937222598803 1
force Bi   0.002774441013452   0.002402677914606   0.000730572830364 1
force Bi   0.005923347905767   0.004226541731675   0.004279212758202 1
force Bi   0.000522395136350  -0.002318877471046   0.001328767388658 1
force Bi   0.001218417384295   0.001162677052978   0.002161625221898 1
force Bi   0.002094691091758   0.002376496818841   0.000905593010591 1
force O  -0.003624009971080   0.004131013749038   0.000172525649996 1

# Energy components:
   Eewald =    -2859.5892738396269124
       EH =      933.2311742715668288
     Eloc =    -2968.6131466839701716
      Enl =     1280.2847954233059227
      Exc =    -1739.0521674030851500
 Exc_core =     1112.0876121374176364
       KE =      343.3246661981212355
-------------------------------------
     Etot =    -3898.3263398962708379
       TS =        0.2562530782963435
-------------------------------------
        F =    -3898.5825929745669782

IonicMinimize: Iter:   7  F: -3898.582592974566978  |grad|_K:  1.046e-04  alpha:  1.000e+00  linmin: -2.084e-01  t[s]:  26166.60

#--- Lowdin population analysis ---
# oxidation-state Bi +0.040 +0.405 +0.040 +0.035 +0.328 +0.031 +0.039 +0.034 +0.041 +0.037 +0.041 +0.029 +0.099 +0.015 +0.043 +0.036 +0.055 +0.039 +0.040 +0.035 +0.041 +0.038 +0.043 +0.029 +0.041 +0.037 +0.101 +0.038 +0.042 -0.008 +0.043 +0.036 +0.048 +0.026 +0.041 +0.030 +0.325 +0.032 +0.043 +0.032 +0.039 +0.039 +0.040 +0.029 +0.042 -0.009 +0.040 +0.033 +0.053 +0.039 +0.041 +0.030 +0.038 +0.036
# oxidation-state O -0.743


-------- Electronic minimization -----------
Will mix electronic density at each iteration.
	FillingsUpdate:  mu: +0.391929202  nElectrons: 816.000000
	FillingsUpdate:  mu: +0.391958622  nElectrons: 816.000000
SCF: Cycle:  0   F: -3898.577169977439553   dF: -3.218e-02   |Residual|: 5.777e-02   |deigs|: 6.242e-05  t[s]:  26615.99
	FillingsUpdate:  mu: +0.391952869  nElectrons: 816.000000
SCF: Cycle:  1   F: -3898.581752561878147   dF: -4.583e-03   |Residual|: 2.970e-02   |deigs|: 1.124e-04  t[s]:  26938.91
	FillingsUpdate:  mu: +0.391933109  nElectrons: 816.000000
SCF: Cycle:  2   F: -3898.582542257297519   dF: -7.897e-04   |Residual|: 7.455e-03   |deigs|: 9.898e-05  t[s]:  27209.09
	FillingsUpdate:  mu: +0.391945783  nElectrons: 816.000000
SCF: Cycle:  3   F: -3898.582593207494028   dF: -5.095e-05   |Residual|: 4.655e-03   |deigs|: 9.925e-05  t[s]:  27406.25
	FillingsUpdate:  mu: +0.391939312  nElectrons: 816.000000
SCF: Cycle:  4   F: -3898.582621572995777   dF: -2.837e-05   |Residual|: 9.342e-04   |deigs|: 4.101e-05  t[s]:  27605.56
	FillingsUpdate:  mu: +0.391938632  nElectrons: 816.000000
SCF: Cycle:  5   F: -3898.582623372212765   dF: -1.799e-06   |Residual|: 3.864e-04   |deigs|: 2.882e-06  t[s]:  27798.48
	FillingsUpdate:  mu: +0.391938645  nElectrons: 816.000000
SCF: Cycle:  6   F: -3898.582623625171436   dF: -2.530e-07   |Residual|: 1.349e-04   |deigs|: 1.373e-06  t[s]:  27991.08
	FillingsUpdate:  mu: +0.391938718  nElectrons: 816.000000
SCF: Cycle:  7   F: -3898.582623717234128   dF: -9.206e-08   |Residual|: 4.478e-05   |deigs|: 5.752e-07  t[s]:  28188.64
	FillingsUpdate:  mu: +0.391938663  nElectrons: 816.000000
SCF: Cycle:  8   F: -3898.582623755594796   dF: -3.836e-08   |Residual|: 2.682e-05   |deigs|: 3.859e-07  t[s]:  28380.46
	FillingsUpdate:  mu: +0.391938683  nElectrons: 816.000000
SCF: Cycle:  9   F: -3898.582623773892010   dF: -1.830e-08   |Residual|: 1.411e-05   |deigs|: 1.966e-07  t[s]:  28575.76
	FillingsUpdate:  mu: +0.391938677  nElectrons: 816.000000
SCF: Cycle: 10   F: -3898.582623783110648   dF: -9.219e-09   |Residual|: 8.070e-06   |deigs|: 9.620e-08  t[s]:  28767.96
	FillingsUpdate:  mu: +0.391938682  nElectrons: 816.000000
SCF: Cycle: 11   F: -3898.582623788015098   dF: -4.904e-09   |Residual|: 7.764e-06   |deigs|: 5.541e-08  t[s]:  28964.34
SCF: Converged (|Delta E|<1.000000e-08 for 2 iters).

Setting wave functions to eigenvectors of Hamiltonian

# Ionic positions in lattice coordinates:
ion Bi   0.253332763774209   0.257196616036707   0.251867340840911 1
ion Bi   0.068503227688007   0.045133548218591   0.067786789183401 1
ion Bi   0.252061023894728   0.255279027443116   0.588108554259333 1
ion Bi   0.089576925310481   0.082350010183049   0.410610242534537 1
ion Bi   0.233335852726740   0.261143369855317   0.941650253375151 1
ion Bi   0.092062997158179   0.077684013078834   0.743641802327233 1
ion Bi   0.253416026617729   0.586953172270394   0.254072319014559 1
ion Bi   0.082477178275014   0.449476916382146   0.081126081540505 1
ion Bi   0.248328287613776   0.581318020047146   0.593750301234992 1
ion Bi   0.081132240674205   0.420983831289214   0.417195285919324 1
ion Bi   0.262558074614530   0.605652382007340   0.910366374468280 1
ion Bi   0.076802238847190   0.413428460002924   0.757819547855307 1
ion Bi   0.243256959533202   0.924263379678547   0.240566251077832 1
ion Bi   0.080727120561087   0.760722551704361   0.085782079935139 1
ion Bi   0.263610095687232   0.914919326822005   0.577403191777047 1
ion Bi   0.079652685034599   0.747348753634331   0.422626002829947 1
ion Bi   0.282427760133767   0.902256446364689   0.897770685688580 1
ion Bi   0.084690732842176   0.755219815020847   0.747972602192549 1
ion Bi   0.588557124218603   0.256480751665185   0.251336124659509 1
ion Bi   0.412464787170842   0.083049862802251   0.087565882204742 1
ion Bi   0.584332362064503   0.260262641553604   0.589859520966262 1
ion Bi   0.416515271430102   0.089839690971781   0.414938321531142 1
ion Bi   0.583539450844890   0.249043712043053   0.925562329415291 1
ion Bi   0.405260137361664   0.100472652615812   0.760304550490987 1
ion Bi   0.595520978315540   0.579024621881906   0.248265879634222 1
ion Bi   0.417260711457069   0.422342640149021   0.080705206000199 1
ion Bi   0.578725363755111   0.570433883893359   0.576980961942320 1
ion Bi   0.416463801115465   0.419776402553127   0.417064256141113 1
ion Bi   0.595040001725418   0.582835658362737   0.912916201225844 1
ion Bi   0.406083909382470   0.419516925034800   0.761773450659082 1
ion Bi   0.579359245202659   0.915194563593125   0.261503814149908 1
ion Bi   0.424313747612612   0.744764535606374   0.079787101461908 1
ion Bi   0.586345012675492   0.947305740653890   0.585499718048451 1
ion Bi   0.404527877729196   0.752691539065171   0.402521754528874 1
ion Bi   0.586025893791408   0.921086549610032   0.921242102128970 1
ion Bi   0.446311608020817   0.751882362809387   0.720310749549791 1
ion Bi   0.943568405117767   0.260964926512879   0.231691726735306 1
ion Bi   0.743628828657825   0.079713639579308   0.090811649290635 1
ion Bi   0.927252011543049   0.246672422557905   0.583184199357283 1
ion Bi   0.757802820156114   0.104517663744156   0.407315397551294 1
ion Bi   0.912001480601220   0.250862203810369   0.909695282762716 1
ion Bi   0.749151575340665   0.086596591467391   0.750064038776470 1
ion Bi   0.908814782666233   0.602044803914322   0.264461556718525 1
ion Bi   0.759738423833179   0.412970846445874   0.075091026269329 1
ion Bi   0.914886549645271   0.583590161564317   0.592724636031851 1
ion Bi   0.760696377323667   0.414740684068226   0.408750895618346 1
ion Bi   0.920423372851531   0.591455222659462   0.918656215453103 1
ion Bi   0.741262550091811   0.418506034820941   0.738884869645303 1
ion Bi   0.894848655719455   0.906948271921731   0.283574267730954 1
ion Bi   0.748666621821007   0.753792789753440   0.084348326112950 1
ion Bi   0.921406712226633   0.922385181820627   0.585437137466488 1
ion Bi   0.721540235380742   0.752110529706738   0.444930382084118 1
ion Bi   0.920123900259989   0.920813158190567   0.920749894108955 1
ion Bi   0.749118327697379   0.757216363872257   0.747789397288783 1
ion O   0.102068894205752   0.164474128685317   0.099875470204347 1

# Forces in Lattice coordinates:
force Bi   0.000344199322510   0.001880756653266   0.000830091537998 1
force Bi  -0.016475617957656  -0.014868715933822  -0.012848069983828 1
force Bi  -0.000302977470452   0.000042244337834  -0.000173280989801 1
force Bi   0.001470419591479   0.000126919297081   0.002268837235619 1
force Bi   0.004820281941922   0.003381329451159  -0.000937124560849 1
force Bi   0.000427473603228  -0.000290357385749   0.001256879056455 1
force Bi   0.002640565853424   0.001758918763422   0.002815453741155 1
force Bi  -0.002043125948366  -0.003177267901677  -0.001994451300574 1
force Bi   0.002082411072281   0.000349825176048   0.000929479052239 1
force Bi   0.000228620845337   0.000631024077410   0.001648384898245 1
force Bi   0.000272677577962  -0.000851030497262  -0.000100625628851 1
force Bi  -0.003292031564714  -0.001870189983900  -0.000231558541730 1
force Bi   0.001707618414740   0.001395477447106   0.001373732957886 1
force Bi  -0.001211108798283  -0.001493596493476  -0.000463414116503 1
force Bi   0.001542089345569   0.000340956484107   0.001534826970399 1
force Bi   0.001079947799498   0.002626991056120   0.001342705137125 1
force Bi   0.000128275137162  -0.004418618776214  -0.004556258099374 1
force Bi   0.000480046390595   0.000474848971610   0.001442308706030 1
force Bi   0.001585956642292   0.003758709442987   0.002743231657021 1
force Bi   0.002862885057798   0.000384902022920   0.001688841800598 1
force Bi  -0.000290917681648   0.000584543085941   0.000261958533460 1
force Bi   0.001613232375823   0.001222120922386   0.001631114388203 1
force Bi   0.000394443586908   0.001186241916877   0.000040712469755 1
force Bi   0.000322775593431  -0.002065904909930  -0.000387509674130 1
force Bi  -0.001849541673402   0.000217840936477   0.000388688571094 1
force Bi   0.001338509786422   0.001258521978304   0.000024489459120 1
force Bi  -0.005997837569776  -0.002797274698601  -0.002539562318617 1
force Bi  -0.000309589848905  -0.001862694951326  -0.001546230169174 1
force Bi  -0.000418175958101   0.003224540889679   0.002196449694559 1
force Bi   0.001750326783186   0.001493218132333   0.000853173409356 1
force Bi   0.000020645898636   0.000431202601702   0.001368763851589 1
force Bi   0.001182792330833   0.001897500636472   0.001996893236706 1
force Bi  -0.003517717095724  -0.003057159631242  -0.003079075071773 1
force Bi  -0.000807273317712  -0.001012436468464  -0.001720315771149 1
force Bi  -0.000079354779234   0.001387938066538   0.001545186471661 1
force Bi   0.001160094478865  -0.001718494373656   0.000159149233729 1
force Bi   0.000048207980416   0.001352982881127   0.000513750704698 1
force Bi   0.001692990808072  -0.000552567639564  -0.000560092576102 1
force Bi   0.000887823319607   0.002082960990540   0.001779762976490 1
force Bi  -0.000268799161275  -0.004651529757073  -0.001704853309998 1
force Bi   0.000387077524724   0.002541662412298   0.000523166066513 1
force Bi   0.001534811949120  -0.000633555720787   0.001580457084706 1
force Bi   0.000088182547548  -0.000971260349192  -0.000859616157934 1
force Bi   0.002831954773379   0.001058814130849  -0.000304065721404 1
force Bi   0.001408800260937   0.002461895589351   0.000070573458413 1
force Bi   0.000606455411886  -0.002426321959292  -0.001449886549246 1
force Bi   0.000611853249839   0.001281182573208   0.001331230187516 1
force Bi  -0.000327370316873   0.002541837956965  -0.001309908418325 1
force Bi   0.000625881980966  -0.003271731282274  -0.001250449340029 1
force Bi   0.002020103953101   0.002110036572877   0.001317997758730 1
force Bi   0.002540443058320   0.001920875072511   0.001073637997113 1
force Bi   0.000459476413406  -0.002186224621105   0.000089644708797 1
force Bi   0.000399418092464  -0.000653674523099  -0.000152402138806 1
force Bi   0.001783065154947   0.001652239622709   0.001044654557239 1
force O  -0.006862301330933   0.001949943319395  -0.002045830143392 1

# Energy components:
   Eewald =    -2859.6411507468110358
       EH =      933.1821023484957323
     Eloc =    -2968.5096812558208512
      Enl =     1280.2834726218825381
      Exc =    -1739.0502330771182642
 Exc_core =     1112.0876161819355730
       KE =      343.3215864006812126
-------------------------------------
     Etot =    -3898.3262875267541858
       TS =        0.2563362612610773
-------------------------------------
        F =    -3898.5826237880150984

IonicMinimize: Iter:   8  F: -3898.582623788015098  |grad|_K:  9.009e-05  alpha:  1.000e+00  linmin: -2.537e-01  t[s]:  29015.94
IonicMinimize: Converged (|grad|_K<1.000000e-04).

#--- Lowdin population analysis ---
# oxidation-state Bi +0.040 +0.405 +0.040 +0.035 +0.327 +0.031 +0.039 +0.034 +0.041 +0.037 +0.041 +0.029 +0.102 +0.015 +0.043 +0.036 +0.055 +0.039 +0.040 +0.035 +0.041 +0.038 +0.043 +0.029 +0.041 +0.037 +0.102 +0.038 +0.042 -0.008 +0.043 +0.036 +0.048 +0.025 +0.041 +0.030 +0.324 +0.031 +0.043 +0.032 +0.039 +0.039 +0.040 +0.029 +0.042 -0.008 +0.040 +0.032 +0.053 +0.039 +0.040 +0.030 +0.038 +0.036
# oxidation-state O -0.743


Dumping '/data/rc652/Bi/int2/Bi_int2.Ecomponents' ... done
End date and time: Mon Jul  8 12:04:15 2024  (Duration: 0-8:04:05.31)
Done!
