--------------------------------------------------------------------------
Initialization of PSM library failed.

  Error: PSM is in the finalized state
--------------------------------------------------------------------------

*************** JDFTx 1.7.0 (git hash 3664913) ***************

Start date and time: Fri Jun  7 11:41:58 2024
Executable jdftx with command-line: -i CrO2_vac.in
Running on hosts (process indices):  node3101.physics.cornell.edu (0-15)
Divided in process groups (process indices):  0 (0)  1 (1)  2 (2)  3 (3)  4 (4)  5 (5)  6 (6)  7 (7)  8 (8)  9 (9)  10 (10)  11 (11)  12 (12)  13 (13)  14 (14)  15 (15)
Resource initialization completed at t[s]:      0.00
Run totals: 16 processes, 32 threads, 0 GPUs


Input parsed successfully to the following command list (including defaults):

basis kpoint-dependent
coords-type Lattice
core-overlap-check vector
coulomb-interaction Periodic
davidson-band-ratio 1.1
dump End Ecomponents
dump-name $INPUT.$VAR
elec-cutoff 20 100
elec-eigen-algo Davidson
elec-ex-corr gga-PBEsol
elec-smearing Fermi 0.01
electronic-minimize  \
	dirUpdateScheme      FletcherReeves \
	linminMethod         DirUpdateRecommended \
	nIterations          100 \
	history              15 \
	knormThreshold       0 \
	maxThreshold         no \
	energyDiffThreshold  1e-08 \
	nEnergyDiff          2 \
	alphaTstart          1 \
	alphaTmin            1e-10 \
	updateTestStepSize   yes \
	alphaTreduceFactor   0.1 \
	alphaTincreaseFactor 3 \
	nAlphaAdjustMax      3 \
	wolfeEnergy          0.0001 \
	wolfeGradient        0.9 \
	fdTest               no
electronic-scf  \
	nIterations	50 \
	energyDiffThreshold	1e-08 \
	residualThreshold	1e-07 \
	mixFraction	0.5 \
	qMetric	0.8 \
	history	10 \
	nEigSteps	2 \
	eigDiffThreshold	1e-08 \
	mixedVariable	Density \
	qKerker	0.8 \
	qKappa	-1 \
	verbose	no \
	mixFractionMag	1.5
exchange-regularization WignerSeitzTruncated
fluid None
fluid-ex-corr lda-TF lda-PZ
fluid-gummel-loop 10 1.000000e-05
fluid-minimize  \
	dirUpdateScheme      PolakRibiere \
	linminMethod         DirUpdateRecommended \
	nIterations          100 \
	history              15 \
	knormThreshold       0 \
	maxThreshold         no \
	energyDiffThreshold  0 \
	nEnergyDiff          2 \
	alphaTstart          1 \
	alphaTmin            1e-10 \
	updateTestStepSize   yes \
	alphaTreduceFactor   0.1 \
	alphaTincreaseFactor 3 \
	nAlphaAdjustMax      3 \
	wolfeEnergy          0.0001 \
	wolfeGradient        0.9 \
	fdTest               no
fluid-solvent H2O 55.338 ScalarEOS \
	epsBulk 78.4 \
	pMol 0.92466 \
	epsInf 1.77 \
	Pvap 1.06736e-10 \
	sigmaBulk 4.62e-05 \
	Rvdw 2.61727 \
	Res 1.42 \
	tauNuc 343133 \
	poleEl 15 7 1
forces-output-coords Positions
ion Cr   0.253480000000000   0.259630000000000   0.239120000000000 1
ion Cr   0.001010000000000   0.015440000000000  -0.010950000000000 1
ion Cr   0.262210000000000   0.241330000000000   0.755140000000000 1
ion Cr  -0.007940000000000   0.006900000000000   0.507830000000000 1
ion Cr   0.246950000000000   0.749880000000000   0.249520000000000 1
ion Cr  -0.013540000000000   0.503840000000000  -0.008110000000000 1
ion Cr   0.242990000000000   0.761120000000000   0.752660000000000 1
ion Cr   0.004350000000000   0.513300000000000   0.515270000000000 1
ion Cr   0.761190000000000   0.255090000000000   0.245160000000000 1
ion Cr   0.489640000000000  -0.007840000000000  -0.001720000000000 1
ion Cr   0.754400000000000   0.247900000000000   0.765730000000000 1
ion Cr   0.518990000000000   0.002690000000000   0.510740000000000 1
ion Cr   0.741060000000000   0.756340000000000   0.271270000000000 1
ion Cr   0.512390000000000   0.492270000000000  -0.015080000000000 1
ion Cr   0.756210000000000   0.753600000000000   0.756060000000000 1
ion Cr   0.500900000000000   0.498820000000000   0.495840000000000 1
ion O  -0.005360000000000   0.350650000000000   0.365630000000000 1
ion O   0.239950000000000   0.381240000000000   0.106980000000000 1
ion O   0.004880000000000   0.124970000000000   0.159880000000000 1
ion O   0.245610000000000   0.091290000000000   0.415010000000000 1
ion O   0.005850000000000   0.340400000000000   0.833060000000000 1
ion O   0.241220000000000   0.395890000000000   0.583350000000000 1
ion O  -0.005110000000000   0.150800000000000   0.643290000000000 1
ion O   0.246100000000000   0.096710000000000   0.892540000000000 1
ion O   0.005580000000000   0.851670000000000   0.349120000000000 1
ion O   0.263140000000000   0.907630000000000   0.087110000000000 1
ion O   0.016860000000000   0.652950000000000   0.145940000000000 1
ion O   0.236010000000000   0.582130000000000   0.394360000000000 1
ion O  -0.019980000000000   0.847740000000000   0.844940000000000 1
ion O   0.249470000000000   0.884140000000000   0.610600000000000 1
ion O   0.000330000000000   0.669210000000000   0.649850000000000 1
ion O   0.261850000000000   0.577270000000000   0.910370000000000 1
ion O   0.504980000000000   0.338330000000000   0.334440000000000 1
ion O   0.756290000000000   0.398760000000000   0.095650000000000 1
ion O   0.497180000000000   0.160430000000000   0.131920000000000 1
ion O   0.745050000000000   0.094160000000000   0.403210000000000 1
ion O   0.499060000000000   0.354400000000000   0.864100000000000 1
ion O   0.751460000000000   0.392300000000000   0.592300000000000 1
ion O   0.505600000000000   0.156580000000000   0.640710000000000 1
ion O   0.746020000000000   0.103530000000000   0.902770000000000 1
ion O   0.503550000000000   0.845870000000000   0.336740000000000 1
ion O   0.753680000000000   0.898990000000000   0.105870000000000 1
ion O   0.490530000000000   0.656310000000000   0.152900000000000 1
ion O   0.746610000000000   0.595880000000000   0.412720000000000 1
ion O   0.501650000000000   0.833530000000000   0.853820000000000 1
ion O   0.729660000000000   0.892890000000000   0.607830000000000 1
ion O   0.487770000000000   0.661340000000000   0.647930000000000 1
ion-species GBRV/$ID_pbesol.uspp
ion-width 0
ionic-minimize  \
	dirUpdateScheme      L-BFGS \
	linminMethod         DirUpdateRecommended \
	nIterations          30 \
	history              15 \
	knormThreshold       0.0001 \
	maxThreshold         no \
	energyDiffThreshold  1e-06 \
	nEnergyDiff          2 \
	alphaTstart          1 \
	alphaTmin            1e-10 \
	updateTestStepSize   yes \
	alphaTreduceFactor   0.1 \
	alphaTincreaseFactor 3 \
	nAlphaAdjustMax      3 \
	wolfeEnergy          0.0001 \
	wolfeGradient        0.9 \
	fdTest               no
kpoint   0.000000000000   0.000000000000   0.000000000000  1.00000000000000
kpoint-folding 4 4 4 
latt-move-scale 1 1 1
latt-scale 1 1 1 
lattice  \
	  10.206358269330357    0.000000000000000    0.000000000000000  \
	   0.000000000000000   16.965025200205606    0.000350087465724  \
	   0.000000000000000    0.000350087465724   16.965025200205606 
lattice-minimize  \
	dirUpdateScheme      L-BFGS \
	linminMethod         DirUpdateRecommended \
	nIterations          0 \
	history              15 \
	knormThreshold       0 \
	maxThreshold         no \
	energyDiffThreshold  1e-06 \
	nEnergyDiff          2 \
	alphaTstart          1 \
	alphaTmin            1e-10 \
	updateTestStepSize   yes \
	alphaTreduceFactor   0.1 \
	alphaTincreaseFactor 3 \
	nAlphaAdjustMax      3 \
	wolfeEnergy          0.0001 \
	wolfeGradient        0.9 \
	fdTest               no
lcao-params -1 1e-06 0.01
pcm-variant GLSSA13
perturb-minimize  \
	nIterations            0 \
	algorithm              MINRES \
	residualTol            0.0001 \
	residualDiffThreshold  0.0001 \
	CGBypass               no \
	recomputeResidual      no
spintype no-spin
subspace-rotation-factor 1 yes
symmetries automatic
symmetry-threshold 0.0001



---------- Setting up symmetries ----------

Found 16 point-group symmetries of the bravais lattice
Found 1 space-group symmetries with basis
Applied RMS atom displacement 0 bohrs to make symmetries exact.

---------- Initializing the Grid ----------
R = 
[      10.2064            0            0  ]
[            0       16.965  0.000350087  ]
[            0  0.000350087       16.965  ]
unit cell volume = 2937.51
G =
[   0.615615          0          0  ]
[          0   0.370361 -7.64271e-06  ]
[          0 -7.64271e-06   0.370361  ]
Minimum fftbox size, Smin = [  48  80  80  ]
Chosen fftbox size, S = [  48  80  80  ]

---------- Initializing tighter grid for wavefunction operations ----------
R = 
[      10.2064            0            0  ]
[            0       16.965  0.000350087  ]
[            0  0.000350087       16.965  ]
unit cell volume = 2937.51
G =
[   0.615615          0          0  ]
[          0   0.370361 -7.64271e-06  ]
[          0 -7.64271e-06   0.370361  ]
Minimum fftbox size, Smin = [  44  72  72  ]
Chosen fftbox size, S = [  48  72  72  ]

---------- Exchange Correlation functional ----------
Initalized PBEsol GGA exchange.
Initalized PBEsol GGA correlation.

---------- Setting up pseudopotentials ----------
Width of ionic core gaussian charges (only for fluid interactions / plotting) set to 0

Reading pseudopotential file '/home/rc652/build/pseudopotentials/GBRV/cr_pbesol.uspp':
  Title: Cr.  Created by USPP 7.3.6 on 22-9-15
  Reference state energy: -86.950313.  14 valence electrons in orbitals:
    |300>  occupation: 2  eigenvalue: -3.277767
    |310>  occupation: 6  eigenvalue: -2.223139
    |400>  occupation: 1.6  eigenvalue: -0.455775
    |320>  occupation: 3.4  eigenvalue: -0.615164
  lMax: 2  lLocal: 3  QijEcut: 6
  6 projectors sampled on a log grid with 595 points:
    l: 0  eig: -3.277767  rCut: 1.55
    l: 0  eig: -0.455775  rCut: 1.55
    l: 1  eig: -2.223139  rCut: 1.55
    l: 1  eig: 0.500000  rCut: 1.55
    l: 2  eig: -0.615164  rCut: 1.7
    l: 2  eig: 0.500000  rCut: 1.7
  Partial core density with radius 0.75
  Transforming core density to a uniform radial grid of dG=0.02 with 1287 points.
  Transforming local potential to a uniform radial grid of dG=0.02 with 1287 points.
  Transforming nonlocal projectors to a uniform radial grid of dG=0.02 with 432 points.
  Transforming density augmentations to a uniform radial grid of dG=0.02 with 1287 points.
  Transforming atomic orbitals to a uniform radial grid of dG=0.02 with 432 points.
  Core radius for overlap checks: 1.70 bohrs.

Reading pseudopotential file '/home/rc652/build/pseudopotentials/GBRV/o_pbesol.uspp':
  Title: O.  Created by USPP 7.3.6 on 3-2-2014
  Reference state energy: -15.849885.  6 valence electrons in orbitals:
    |200>  occupation: 2  eigenvalue: -0.873214
    |210>  occupation: 4  eigenvalue: -0.330058
  lMax: 2  lLocal: 2  QijEcut: 6
  5 projectors sampled on a log grid with 511 points:
    l: 0  eig: -0.873214  rCut: 1.25
    l: 0  eig: 0.000000  rCut: 1.25
    l: 1  eig: -0.330058  rCut: 1.25
    l: 1  eig: 0.000000  rCut: 1.25
    l: 2  eig: 1.000000  rCut: 1.25
  Partial core density with radius 0.7
  Transforming core density to a uniform radial grid of dG=0.02 with 1287 points.
  Transforming local potential to a uniform radial grid of dG=0.02 with 1287 points.
  Transforming nonlocal projectors to a uniform radial grid of dG=0.02 with 432 points.
  Transforming density augmentations to a uniform radial grid of dG=0.02 with 1287 points.
  Transforming atomic orbitals to a uniform radial grid of dG=0.02 with 432 points.
  Core radius for overlap checks: 1.25 bohrs.

Initialized 2 species with 47 total atoms.

Folded 1 k-points by 4x4x4 to 64 k-points.

---------- Setting up k-points, bands, fillings ----------
Adding inversion symmetry to k-mesh for non-inversion-symmetric unit cell.
Reduced to 36 k-points under symmetry. 
Computing the number of bands and number of electrons
Calculating initial fillings.
nElectrons: 410.000000   nBands: 284   nStates: 36

----- Setting up reduced wavefunction bases (one per k-point) -----
average nbasis = 12549.172 , ideal nbasis = 12549.280

---------- Setting up ewald sum ----------
Optimum gaussian width for ewald sums = 3.007602 bohr.
Real space sum over 441 unit cells with max indices [  4  3  3  ]
Reciprocal space sum over 6615 terms with max indices [  7  10  10  ]

---------- Allocating electronic variables ----------
Initializing wave functions:  linear combination of atomic orbitals
Cr pseudo-atom occupations:   s ( 2 0 )  p ( 6 )  d ( 6 )
O pseudo-atom occupations:   s ( 2 )  p ( 4 )
	FillingsUpdate:  mu: +0.709026396  nElectrons: 410.000000
LCAOMinimize: Iter:   0  F: -1826.9040361085712902  |grad|_K:  6.837e-03  alpha:  1.000e+00
	FillingsUpdate:  mu: +0.696724300  nElectrons: 410.000000
LCAOMinimize: Iter:   1  F: -1859.2376168833623069  |grad|_K:  1.970e-02  alpha:  2.110e-01  linmin: -1.700e-03  cgtest:  1.169e-01  t[s]:     93.32
LCAOMinimize: 	Step increased F by 1.662541e+02, reducing alpha to 5.533473e-03.
	FillingsUpdate:  mu: +0.682262119  nElectrons: 410.000000
LCAOMinimize: Iter:   2  F: -1865.5434579415762073  |grad|_K:  1.917e-02  alpha:  5.533e-03  linmin: -3.048e-02  cgtest:  9.642e-01  t[s]:    147.70
LCAOMinimize: 	Predicted alpha/alphaT>3.000000, increasing alphaT to 1.660042e-02.
	FillingsUpdate:  mu: +0.540560425  nElectrons: 410.000000
LCAOMinimize: Iter:   3  F: -1877.1130367047924210  |grad|_K:  8.352e-03  alpha:  2.585e-02  linmin:  2.413e-01  cgtest: -6.661e-01  t[s]:    185.67
	FillingsUpdate:  mu: +0.556214608  nElectrons: 410.000000
LCAOMinimize: Iter:   4  F: -1877.5293450760141241  |grad|_K:  9.420e-03  alpha:  2.066e-02  linmin:  5.849e-04  cgtest:  9.396e-01  t[s]:    216.37
	FillingsUpdate:  mu: +0.510215562  nElectrons: 410.000000
LCAOMinimize: Iter:   5  F: -1880.8678651648201594  |grad|_K:  5.018e-03  alpha:  2.664e-02  linmin:  4.787e-02  cgtest: -3.014e-01  t[s]:    247.24
	FillingsUpdate:  mu: +0.443460014  nElectrons: 410.000000
LCAOMinimize: Iter:   6  F: -1882.8866937254690583  |grad|_K:  8.420e-03  alpha:  6.671e-02  linmin:  1.642e-03  cgtest:  2.747e-01  t[s]:    279.02
	FillingsUpdate:  mu: +0.442834051  nElectrons: 410.000000
LCAOMinimize: Iter:   7  F: -1885.0996235676391279  |grad|_K:  6.565e-03  alpha:  1.244e-02  linmin: -6.902e-02  cgtest:  9.769e-01  t[s]:    310.65
LCAOMinimize: Encountered beta<0, resetting CG.
	FillingsUpdate:  mu: +0.463302283  nElectrons: 410.000000
LCAOMinimize: Iter:   8  F: -1886.5538743060587876  |grad|_K:  1.686e-03  alpha:  2.295e-02  linmin: -4.576e-02  cgtest:  7.391e-02  t[s]:    341.73
LCAOMinimize: 	Predicted alpha/alphaT>3.000000, increasing alphaT to 6.885868e-02.
	FillingsUpdate:  mu: +0.470422181  nElectrons: 410.000000
LCAOMinimize: Iter:   9  F: -1886.9982829491007124  |grad|_K:  2.322e-03  alpha:  1.075e-01  linmin:  6.370e-03  cgtest: -1.163e-01  t[s]:    379.77
	FillingsUpdate:  mu: +0.500556920  nElectrons: 410.000000
LCAOMinimize: Iter:  10  F: -1887.2323152741469130  |grad|_K:  1.208e-03  alpha:  2.516e-02  linmin: -4.327e-02  cgtest:  9.131e-01  t[s]:    410.91
LCAOMinimize: Encountered beta<0, resetting CG.
	FillingsUpdate:  mu: +0.510334668  nElectrons: 410.000000
LCAOMinimize: Iter:  11  F: -1887.2920012642125585  |grad|_K:  3.365e-04  alpha:  2.793e-02  linmin: -1.181e-02  cgtest:  2.196e-02  t[s]:    441.81
	FillingsUpdate:  mu: +0.510393163  nElectrons: 410.000000
LCAOMinimize: Iter:  12  F: -1887.3003905354978542  |grad|_K:  3.023e-04  alpha:  5.053e-02  linmin:  2.390e-03  cgtest: -1.446e-02  t[s]:    473.26
	FillingsUpdate:  mu: +0.510761052  nElectrons: 410.000000
LCAOMinimize: Iter:  13  F: -1887.3111394424674927  |grad|_K:  2.013e-04  alpha:  8.117e-02  linmin:  7.695e-04  cgtest:  2.446e-02  t[s]:    504.36
	FillingsUpdate:  mu: +0.512116965  nElectrons: 410.000000
LCAOMinimize: Iter:  14  F: -1887.3132534976209627  |grad|_K:  1.031e-04  alpha:  3.572e-02  linmin: -4.606e-04  cgtest:  1.112e-02  t[s]:    534.74
LCAOMinimize: 	Predicted alpha/alphaT>3.000000, increasing alphaT to 1.071743e-01.
	FillingsUpdate:  mu: +0.514065757  nElectrons: 410.000000
LCAOMinimize: Iter:  15  F: -1887.3151779413897202  |grad|_K:  1.425e-04  alpha:  1.240e-01  linmin:  1.068e-03  cgtest: -5.236e-03  t[s]:    572.15
	FillingsUpdate:  mu: +0.516930705  nElectrons: 410.000000
LCAOMinimize: Iter:  16  F: -1887.3170662022716897  |grad|_K:  8.901e-05  alpha:  6.327e-02  linmin: -1.262e-03  cgtest:  6.959e-02  t[s]:    603.27
	FillingsUpdate:  mu: +0.517135698  nElectrons: 410.000000
LCAOMinimize: Iter:  17  F: -1887.3177144842609323  |grad|_K:  7.632e-05  alpha:  5.558e-02  linmin:  2.147e-04  cgtest: -1.219e-02  t[s]:    633.72
	FillingsUpdate:  mu: +0.515792161  nElectrons: 410.000000
LCAOMinimize: Iter:  18  F: -1887.3187379784337736  |grad|_K:  7.350e-05  alpha:  1.206e-01  linmin:  6.170e-04  cgtest:  1.493e-02  t[s]:    664.76
	FillingsUpdate:  mu: +0.515605091  nElectrons: 410.000000
LCAOMinimize: Iter:  19  F: -1887.3189572878291074  |grad|_K:  2.098e-05  alpha:  2.770e-02  linmin: -2.722e-03  cgtest:  3.751e-02  t[s]:    695.63
	FillingsUpdate:  mu: +0.515629575  nElectrons: 410.000000
LCAOMinimize: Iter:  20  F: -1887.3189854416041271  |grad|_K:  1.491e-05  alpha:  4.353e-02  linmin:  7.584e-05  cgtest: -8.970e-03  t[s]:    726.43
LCAOMinimize: 	Predicted alpha/alphaT>3.000000, increasing alphaT to 1.305949e-01.
	FillingsUpdate:  mu: +0.516154695  nElectrons: 410.000000
LCAOMinimize: Iter:  21  F: -1887.3190364248941933  |grad|_K:  1.773e-05  alpha:  1.570e-01  linmin:  1.099e-04  cgtest:  9.382e-03  t[s]:    764.84
	FillingsUpdate:  mu: +0.516328720  nElectrons: 410.000000
LCAOMinimize: Iter:  22  F: -1887.3190542072777589  |grad|_K:  8.872e-06  alpha:  3.870e-02  linmin: -1.539e-04  cgtest:  5.662e-03  t[s]:    794.95
	FillingsUpdate:  mu: +0.516279646  nElectrons: 410.000000
LCAOMinimize: Iter:  23  F: -1887.3190638030230275  |grad|_K:  1.107e-05  alpha:  8.334e-02  linmin:  2.242e-05  cgtest: -1.156e-03  t[s]:    825.92
	FillingsUpdate:  mu: +0.516119159  nElectrons: 410.000000
LCAOMinimize: Iter:  24  F: -1887.3190760717484409  |grad|_K:  6.393e-06  alpha:  6.853e-02  linmin:  5.771e-07  cgtest:  1.138e-03  t[s]:    856.50
	FillingsUpdate:  mu: +0.516088314  nElectrons: 410.000000
LCAOMinimize: Iter:  25  F: -1887.3190779900080543  |grad|_K:  2.601e-06  alpha:  3.211e-02  linmin:  2.690e-07  cgtest: -1.801e-05  t[s]:    887.20
	FillingsUpdate:  mu: +0.516105265  nElectrons: 410.000000
LCAOMinimize: Iter:  26  F: -1887.3190787704204467  |grad|_K:  2.839e-06  alpha:  7.885e-02  linmin: -4.336e-05  cgtest:  1.837e-04  t[s]:    917.87
	FillingsUpdate:  mu: +0.516135275  nElectrons: 410.000000
LCAOMinimize: Iter:  27  F: -1887.3190794426768662  |grad|_K:  1.158e-06  alpha:  5.701e-02  linmin: -6.515e-05  cgtest:  1.573e-04  t[s]:    948.78
LCAOMinimize: Converged (|Delta F|<1.000000e-06 for 2 iters).


---- Citations for features of the code used in this run ----

   Software package:
      R. Sundararaman, K. Letchworth-Weaver, K.A. Schwarz, D. Gunceler, Y. Ozhabes and T.A. Arias, 'JDFTx: software for joint density-functional theory', SoftwareX 6, 278 (2017)

   gga-PBEsol exchange-correlation functional:
      J.P. Perdew et al., Phys. Rev. Lett. 100, 136406 (2008)

   Pseudopotentials:
      KF Garrity, JW Bennett, KM Rabe and D Vanderbilt, Comput. Mater. Sci. 81, 446 (2014)

This list may not be complete. Please suggest additional citations or
report any other bugs at https://github.com/shankar1729/jdftx/issues

Initialization completed successfully at t[s]:    964.50


-------- Electronic minimization -----------
Will mix electronic density at each iteration.
	FillingsUpdate:  mu: +0.516135275  nElectrons: 410.000000
	FillingsUpdate:  mu: +0.502881007  nElectrons: 410.000000
SCF: Cycle:  0   F: -1888.271982892546703   dF: -9.529e-01   |Residual|: 1.466e+00   |deigs|: 3.416e-02  t[s]:   1108.24
	FillingsUpdate:  mu: +0.449121475  nElectrons: 410.000000
SCF: Cycle:  1   F: -1888.049976469139210   dF: +2.220e-01   |Residual|: 6.501e-01   |deigs|: 5.539e-02  t[s]:   1226.08
	FillingsUpdate:  mu: +0.420075802  nElectrons: 410.000000
SCF: Cycle:  2   F: -1857.056415155018385   dF: +3.099e+01   |Residual|: 2.711e+00   |deigs|: 3.370e-02  t[s]:   1341.97
	FillingsUpdate:  mu: +0.427739591  nElectrons: 410.000000
SCF: Cycle:  3   F: -1883.651090456284464   dF: -2.659e+01   |Residual|: 1.275e+00   |deigs|: 2.362e-02  t[s]:   1457.92
	FillingsUpdate:  mu: +0.432300907  nElectrons: 410.000000
SCF: Cycle:  4   F: -1888.835718867541118   dF: -5.185e+00   |Residual|: 4.529e-01   |deigs|: 1.008e-02  t[s]:   1575.34
	FillingsUpdate:  mu: +0.433309482  nElectrons: 410.000000
SCF: Cycle:  5   F: -1889.083928852491681   dF: -2.482e-01   |Residual|: 3.531e-01   |deigs|: 1.973e-03  t[s]:   1694.96
	FillingsUpdate:  mu: +0.435670499  nElectrons: 410.000000
SCF: Cycle:  6   F: -1889.465092133947792   dF: -3.812e-01   |Residual|: 1.728e-01   |deigs|: 2.501e-03  t[s]:   1815.90
	FillingsUpdate:  mu: +0.435010025  nElectrons: 410.000000
SCF: Cycle:  7   F: -1889.434209451491370   dF: +3.088e-02   |Residual|: 2.067e-01   |deigs|: 1.428e-03  t[s]:   1930.76
	FillingsUpdate:  mu: +0.434094375  nElectrons: 410.000000
SCF: Cycle:  8   F: -1889.471010516273964   dF: -3.680e-02   |Residual|: 1.793e-01   |deigs|: 1.449e-03  t[s]:   2049.88
	FillingsUpdate:  mu: +0.434664380  nElectrons: 410.000000
SCF: Cycle:  9   F: -1889.499950228615035   dF: -2.894e-02   |Residual|: 1.551e-01   |deigs|: 9.962e-04  t[s]:   2164.79
	FillingsUpdate:  mu: +0.435141125  nElectrons: 410.000000
SCF: Cycle: 10   F: -1889.580776586508364   dF: -8.083e-02   |Residual|: 2.635e-02   |deigs|: 7.527e-04  t[s]:   2262.44
	FillingsUpdate:  mu: +0.434970335  nElectrons: 410.000000
SCF: Cycle: 11   F: -1889.558039195072752   dF: +2.274e-02   |Residual|: 8.395e-02   |deigs|: 4.978e-04  t[s]:   2333.33
	FillingsUpdate:  mu: +0.434899492  nElectrons: 410.000000
SCF: Cycle: 12   F: -1889.581324369291906   dF: -2.329e-02   |Residual|: 2.131e-02   |deigs|: 4.181e-04  t[s]:   2403.89
	FillingsUpdate:  mu: +0.434904659  nElectrons: 410.000000
SCF: Cycle: 13   F: -1889.582593764240755   dF: -1.269e-03   |Residual|: 9.935e-03   |deigs|: 1.384e-04  t[s]:   2474.83
	FillingsUpdate:  mu: +0.434877950  nElectrons: 410.000000
SCF: Cycle: 14   F: -1889.582509868244415   dF: +8.390e-05   |Residual|: 1.085e-02   |deigs|: 1.034e-04  t[s]:   2543.20
	FillingsUpdate:  mu: +0.434918308  nElectrons: 410.000000
SCF: Cycle: 15   F: -1889.582765009498416   dF: -2.551e-04   |Residual|: 6.281e-03   |deigs|: 9.452e-05  t[s]:   2613.93
	FillingsUpdate:  mu: +0.434881452  nElectrons: 410.000000
SCF: Cycle: 16   F: -1889.582774856847664   dF: -9.847e-06   |Residual|: 5.789e-03   |deigs|: 6.591e-05  t[s]:   2681.84
	FillingsUpdate:  mu: +0.434874418  nElectrons: 410.000000
SCF: Cycle: 17   F: -1889.582902211198189   dF: -1.274e-04   |Residual|: 2.241e-03   |deigs|: 5.129e-05  t[s]:   2748.44
	FillingsUpdate:  mu: +0.434883719  nElectrons: 410.000000
SCF: Cycle: 18   F: -1889.582882134185638   dF: +2.008e-05   |Residual|: 3.463e-03   |deigs|: 3.238e-05  t[s]:   2820.15
	FillingsUpdate:  mu: +0.434889933  nElectrons: 410.000000
SCF: Cycle: 19   F: -1889.582920290172297   dF: -3.816e-05   |Residual|: 1.077e-03   |deigs|: 2.671e-05  t[s]:   2890.92
	FillingsUpdate:  mu: +0.434885551  nElectrons: 410.000000
SCF: Cycle: 20   F: -1889.582909903609561   dF: +1.039e-05   |Residual|: 1.885e-03   |deigs|: 1.969e-05  t[s]:   2962.39
	FillingsUpdate:  mu: +0.434880431  nElectrons: 410.000000
SCF: Cycle: 21   F: -1889.582923282923730   dF: -1.338e-05   |Residual|: 4.775e-04   |deigs|: 1.533e-05  t[s]:   3033.84
	FillingsUpdate:  mu: +0.434884139  nElectrons: 410.000000
SCF: Cycle: 22   F: -1889.582920016035132   dF: +3.267e-06   |Residual|: 1.093e-03   |deigs|: 9.102e-06  t[s]:   3101.67
	FillingsUpdate:  mu: +0.434885529  nElectrons: 410.000000
SCF: Cycle: 23   F: -1889.582921669760481   dF: -1.654e-06   |Residual|: 8.158e-04   |deigs|: 9.369e-06  t[s]:   3172.77
	FillingsUpdate:  mu: +0.434885358  nElectrons: 410.000000
SCF: Cycle: 24   F: -1889.582923686744152   dF: -2.017e-06   |Residual|: 3.090e-04   |deigs|: 6.311e-06  t[s]:   3240.42
	FillingsUpdate:  mu: +0.434883859  nElectrons: 410.000000
SCF: Cycle: 25   F: -1889.582923632565553   dF: +5.418e-08   |Residual|: 3.361e-04   |deigs|: 3.489e-06  t[s]:   3309.22
	FillingsUpdate:  mu: +0.434883778  nElectrons: 410.000000
SCF: Cycle: 26   F: -1889.582923923618864   dF: -2.911e-07   |Residual|: 1.650e-04   |deigs|: 2.990e-06  t[s]:   3378.78
	FillingsUpdate:  mu: +0.434883770  nElectrons: 410.000000
SCF: Cycle: 27   F: -1889.582923844230891   dF: +7.939e-08   |Residual|: 2.175e-04   |deigs|: 1.933e-06  t[s]:   3448.37
	FillingsUpdate:  mu: +0.434883815  nElectrons: 410.000000
SCF: Cycle: 28   F: -1889.582923994903922   dF: -1.507e-07   |Residual|: 8.543e-05   |deigs|: 1.785e-06  t[s]:   3515.40
	FillingsUpdate:  mu: +0.434884145  nElectrons: 410.000000
SCF: Cycle: 29   F: -1889.582923979041425   dF: +1.586e-08   |Residual|: 1.031e-04   |deigs|: 1.269e-06  t[s]:   3582.29
	FillingsUpdate:  mu: +0.434884536  nElectrons: 410.000000
SCF: Cycle: 30   F: -1889.582924006693929   dF: -2.765e-08   |Residual|: 7.136e-05   |deigs|: 1.101e-06  t[s]:   3650.82
	FillingsUpdate:  mu: +0.434884419  nElectrons: 410.000000
SCF: Cycle: 31   F: -1889.582924006752137   dF: -5.821e-11   |Residual|: 6.685e-05   |deigs|: 9.075e-07  t[s]:   3719.20
	FillingsUpdate:  mu: +0.434884214  nElectrons: 410.000000
SCF: Cycle: 32   F: -1889.582924017336381   dF: -1.058e-08   |Residual|: 4.137e-05   |deigs|: 7.748e-07  t[s]:   3789.29
	FillingsUpdate:  mu: +0.434884137  nElectrons: 410.000000
SCF: Cycle: 33   F: -1889.582924018797712   dF: -1.461e-09   |Residual|: 3.508e-05   |deigs|: 6.087e-07  t[s]:   3858.06
	FillingsUpdate:  mu: +0.434884172  nElectrons: 410.000000
SCF: Cycle: 34   F: -1889.582924021389545   dF: -2.592e-09   |Residual|: 2.716e-05   |deigs|: 4.888e-07  t[s]:   3921.82
SCF: Converged (|Delta E|<1.000000e-08 for 2 iters).

Setting wave functions to eigenvectors of Hamiltonian

# Ionic positions in lattice coordinates:
ion Cr   0.253480000000000   0.259630000000000   0.239120000000000 1
ion Cr   0.001010000000000   0.015440000000000  -0.010950000000000 1
ion Cr   0.262210000000000   0.241330000000000   0.755140000000000 1
ion Cr  -0.007940000000000   0.006900000000000   0.507830000000000 1
ion Cr   0.246950000000000   0.749880000000000   0.249520000000000 1
ion Cr  -0.013540000000000   0.503840000000000  -0.008110000000000 1
ion Cr   0.242990000000000   0.761120000000000   0.752660000000000 1
ion Cr   0.004350000000000   0.513300000000000   0.515270000000000 1
ion Cr   0.761190000000000   0.255090000000000   0.245160000000000 1
ion Cr   0.489640000000000  -0.007840000000000  -0.001720000000000 1
ion Cr   0.754400000000000   0.247900000000000   0.765730000000000 1
ion Cr   0.518990000000000   0.002690000000000   0.510740000000000 1
ion Cr   0.741060000000000   0.756340000000000   0.271270000000000 1
ion Cr   0.512390000000000   0.492270000000000  -0.015080000000000 1
ion Cr   0.756210000000000   0.753600000000000   0.756060000000000 1
ion Cr   0.500900000000000   0.498820000000000   0.495840000000000 1
ion O  -0.005360000000000   0.350650000000000   0.365630000000000 1
ion O   0.239950000000000   0.381240000000000   0.106980000000000 1
ion O   0.004880000000000   0.124970000000000   0.159880000000000 1
ion O   0.245610000000000   0.091290000000000   0.415010000000000 1
ion O   0.005850000000000   0.340400000000000   0.833060000000000 1
ion O   0.241220000000000   0.395890000000000   0.583350000000000 1
ion O  -0.005110000000000   0.150800000000000   0.643290000000000 1
ion O   0.246100000000000   0.096710000000000   0.892540000000000 1
ion O   0.005580000000000   0.851670000000000   0.349120000000000 1
ion O   0.263140000000000   0.907630000000000   0.087110000000000 1
ion O   0.016860000000000   0.652950000000000   0.145940000000000 1
ion O   0.236010000000000   0.582130000000000   0.394360000000000 1
ion O  -0.019980000000000   0.847740000000000   0.844940000000000 1
ion O   0.249470000000000   0.884140000000000   0.610600000000000 1
ion O   0.000330000000000   0.669210000000000   0.649850000000000 1
ion O   0.261850000000000   0.577270000000000   0.910370000000000 1
ion O   0.504980000000000   0.338330000000000   0.334440000000000 1
ion O   0.756290000000000   0.398760000000000   0.095650000000000 1
ion O   0.497180000000000   0.160430000000000   0.131920000000000 1
ion O   0.745050000000000   0.094160000000000   0.403210000000000 1
ion O   0.499060000000000   0.354400000000000   0.864100000000000 1
ion O   0.751460000000000   0.392300000000000   0.592300000000000 1
ion O   0.505600000000000   0.156580000000000   0.640710000000000 1
ion O   0.746020000000000   0.103530000000000   0.902770000000000 1
ion O   0.503550000000000   0.845870000000000   0.336740000000000 1
ion O   0.753680000000000   0.898990000000000   0.105870000000000 1
ion O   0.490530000000000   0.656310000000000   0.152900000000000 1
ion O   0.746610000000000   0.595880000000000   0.412720000000000 1
ion O   0.501650000000000   0.833530000000000   0.853820000000000 1
ion O   0.729660000000000   0.892890000000000   0.607830000000000 1
ion O   0.487770000000000   0.661340000000000   0.647930000000000 1

# Forces in Lattice coordinates:
force Cr  -0.499428672845899  -0.949402806855267   0.514155735055486 1
force Cr  -0.182907127166591  -0.864731381797288   0.938279034631445 1
force Cr   0.213863977625149   0.171911383776442  -0.828368824253945 1
force Cr   0.022316663256579  -0.218503324551966  -0.098423045286727 1
force Cr  -0.202109321901565  -0.489281805657625  -0.539856252806374 1
force Cr  -0.043629243204405   0.011773110237744   0.493072952889239 1
force Cr   0.171396246454001  -0.634293777894133  -0.191847201395765 1
force Cr  -0.159332423651609  -0.594551154492128   0.018625649649275 1
force Cr   0.389874967756147  -0.344003202082193   0.037195424527018 1
force Cr   0.675481830973077   0.068908972911538   0.374884225447615 1
force Cr  -0.476988567726027  -0.215621505035695  -1.104761280675650 1
force Cr  -0.362858836689696   0.145302625309492  -0.098488167984759 1
force Cr   0.665688976716356  -0.632607659249357  -1.146228528078897 1
force Cr   0.382100537456062   0.602229097121733   1.214708473582354 1
force Cr  -0.492534506017280  -0.454322032097298  -0.736100496997945 1
force Cr  -0.165655696688313  -0.248088419182999   0.519447938562804 1
force O  -0.033077704223323  -0.331017459750163  -0.673976583699066 1
force O  -0.102226758709780   1.009087779870254  -0.875587855450445 1
force O  -0.029864327473216   0.572986193881080  -0.084143027496289 1
force O   0.110227131759708   0.004008546699677  -0.240693863622297 1
force O   0.112767283884962   0.906345093256848   0.831121384045550 1
force O   0.243399622064164  -0.206181117414973   0.721769925657538 1
force O   0.049037633107249  -0.034072876660229   0.478226562675301 1
force O   0.136212256556083   0.301382462156967  -0.365035766314932 1
force O  -0.065311451971815   0.088565384478591   0.374466590516618 1
force O  -0.461845677902624  -0.773240218823666   0.761388170427093 1
force O  -0.279462205722308  -0.283884357189834  -0.311951989529883 1
force O   0.238500350794762   0.726374051618676  -0.335582666373721 1
force O   0.340695618923017   0.813406847721910   1.082524491610151 1
force O  -0.029469875589784   1.061544893999036  -0.577849964196411 1
force O  -0.086681028476507  -1.095481537105994  -0.363209311041485 1
force O  -0.355181980171051   0.792399791214861  -0.598303246302475 1
force O   0.014198325263068   0.623706787679355   0.757758817646793 1
force O   0.069078213971011  -0.083773254690386   0.157621602248346 1
force O   0.117108817516458  -0.308547015319983   0.274197021614272 1
force O   0.078388743419314   0.356386902822203  -0.517179081394293 1
force O   0.020272132565325  -0.798662142459389  -0.829612804979341 1
force O  -0.132909598125910   0.268743672843764   0.324489048230309 1
force O  -0.001851472625319  -0.263799796213597   0.285464419480117 1
force O  -0.051731852422793   0.111198761797534  -0.292006503359844 1
force O  -0.441809435264356   0.882141589656936   1.134527253372331 1
force O  -0.131773219441559   0.126416121309509  -0.329195767529381 1
force O   0.232792415943752  -0.290352502979093  -0.139041053333338 1
force O   0.059478496908826   0.673613516584239  -0.697252347050858 1
force O   0.006266395909721   0.464080769581831   0.584267400155929 1
force O   0.287987105590542  -0.008119801270408   0.073374899749623 1
force O   0.147819363961430  -0.725069594147510   0.029636825903423 1

# Energy components:
   Eewald =    -1300.7693075929216775
       EH =      524.1676224096365786
     Eloc =    -1599.8440050149347371
      Enl =      221.2193340428401598
      Exc =     -288.8818158310293143
 Exc_core =       13.8454382394196429
       KE =      541.0224456477858439
-------------------------------------
     Etot =    -1889.2402880992030987
       TS =        0.3426359221863352
-------------------------------------
        F =    -1889.5829240213895446

IonicMinimize: Iter:   0  F: -1889.582924021389545  |grad|_K:  3.193e-02  t[s]:   3939.52

#--- Lowdin population analysis ---
# oxidation-state Cr +1.330 +1.312 +1.285 +1.319 +1.342 +1.155 +1.316 +1.361 +1.343 +1.323 +1.294 +1.311 +1.346 +1.156 +1.222 +1.355
# oxidation-state O -0.650 -0.528 -0.645 -0.640 -0.607 -0.623 -0.615 -0.595 -0.649 -0.549 -0.646 -0.618 -0.609 -0.610 -0.628 -0.625 -0.584 -0.636 -0.672 -0.575 -0.564 -0.664 -0.619 -0.625 -0.539 -0.675 -0.673 -0.625 -0.642 -0.600 -0.699


-------- Electronic minimization -----------
Will mix electronic density at each iteration.
	FillingsUpdate:  mu: +0.434884172  nElectrons: 410.000000
	FillingsUpdate:  mu: +0.431103367  nElectrons: 410.000000
SCF: Cycle:  0   F: -1872.114246031428593   dF: +1.465e+01   |Residual|: 2.209e+00   |deigs|: 1.004e-02  t[s]:   4101.07
	FillingsUpdate:  mu: +0.382940156  nElectrons: 410.000000
SCF: Cycle:  1   F: -1802.983759003587465   dF: +6.913e+01   |Residual|: 4.889e+00   |deigs|: 1.007e-01  t[s]:   4221.94
	FillingsUpdate:  mu: +0.443268581  nElectrons: 410.000000
SCF: Cycle:  2   F: -1846.639429888733503   dF: -4.366e+01   |Residual|: 3.210e+00   |deigs|: 8.168e-02  t[s]:   4337.70
	FillingsUpdate:  mu: +0.444434456  nElectrons: 410.000000
SCF: Cycle:  3   F: -1880.998796851063616   dF: -3.436e+01   |Residual|: 1.528e+00   |deigs|: 2.991e-02  t[s]:   4451.18
	FillingsUpdate:  mu: +0.425989263  nElectrons: 410.000000
SCF: Cycle:  4   F: -1877.677415038996060   dF: +3.321e+00   |Residual|: 1.901e+00   |deigs|: 2.134e-02  t[s]:   4566.51
	FillingsUpdate:  mu: +0.423988072  nElectrons: 410.000000
SCF: Cycle:  5   F: -1885.104725565088302   dF: -7.427e+00   |Residual|: 1.174e+00   |deigs|: 1.528e-02  t[s]:   4684.85
	FillingsUpdate:  mu: +0.430586073  nElectrons: 410.000000
SCF: Cycle:  6   F: -1884.798637379971979   dF: +3.061e-01   |Residual|: 1.135e+00   |deigs|: 8.874e-03  t[s]:   4799.30
	FillingsUpdate:  mu: +0.435897139  nElectrons: 410.000000
SCF: Cycle:  7   F: -1889.056120486918189   dF: -4.257e+00   |Residual|: 4.164e-01   |deigs|: 7.977e-03  t[s]:   4917.16
	FillingsUpdate:  mu: +0.433166263  nElectrons: 410.000000
SCF: Cycle:  8   F: -1888.864802440487210   dF: +1.913e-01   |Residual|: 4.845e-01   |deigs|: 3.170e-03  t[s]:   5035.13
	FillingsUpdate:  mu: +0.432154099  nElectrons: 410.000000
SCF: Cycle:  9   F: -1889.596037550135406   dF: -7.312e-01   |Residual|: 1.707e-01   |deigs|: 2.270e-03  t[s]:   5153.75
	FillingsUpdate:  mu: +0.431543716  nElectrons: 410.000000
SCF: Cycle: 10   F: -1889.519030579673199   dF: +7.701e-02   |Residual|: 2.274e-01   |deigs|: 1.015e-03  t[s]:   5268.64
	FillingsUpdate:  mu: +0.431818872  nElectrons: 410.000000
SCF: Cycle: 11   F: -1889.599204401118868   dF: -8.017e-02   |Residual|: 1.628e-01   |deigs|: 7.528e-04  t[s]:   5386.89
	FillingsUpdate:  mu: +0.432098959  nElectrons: 410.000000
SCF: Cycle: 12   F: -1889.678226243581094   dF: -7.902e-02   |Residual|: 6.816e-02   |deigs|: 6.938e-04  t[s]:   5502.65
	FillingsUpdate:  mu: +0.432196181  nElectrons: 410.000000
SCF: Cycle: 13   F: -1889.672087264816355   dF: +6.139e-03   |Residual|: 7.664e-02   |deigs|: 4.987e-04  t[s]:   5572.22
	FillingsUpdate:  mu: +0.432295018  nElectrons: 410.000000
SCF: Cycle: 14   F: -1889.671162878530140   dF: +9.244e-04   |Residual|: 7.279e-02   |deigs|: 5.507e-04  t[s]:   5656.45
	FillingsUpdate:  mu: +0.432092973  nElectrons: 410.000000
SCF: Cycle: 15   F: -1889.691596580624719   dF: -2.043e-02   |Residual|: 2.321e-02   |deigs|: 4.213e-04  t[s]:   5726.60
	FillingsUpdate:  mu: +0.432051019  nElectrons: 410.000000
SCF: Cycle: 16   F: -1889.691577994739646   dF: +1.859e-05   |Residual|: 2.704e-02   |deigs|: 2.137e-04  t[s]:   5796.55
	FillingsUpdate:  mu: +0.432087313  nElectrons: 410.000000
SCF: Cycle: 17   F: -1889.693384531870834   dF: -1.807e-03   |Residual|: 1.350e-02   |deigs|: 1.830e-04  t[s]:   5868.08
	FillingsUpdate:  mu: +0.432179961  nElectrons: 410.000000
SCF: Cycle: 18   F: -1889.693315957400273   dF: +6.857e-05   |Residual|: 1.323e-02   |deigs|: 1.488e-04  t[s]:   5939.61
	FillingsUpdate:  mu: +0.432173425  nElectrons: 410.000000
SCF: Cycle: 19   F: -1889.693679501604038   dF: -3.635e-04   |Residual|: 9.039e-03   |deigs|: 8.868e-05  t[s]:   6009.16
	FillingsUpdate:  mu: +0.432175421  nElectrons: 410.000000
SCF: Cycle: 20   F: -1889.693639970467530   dF: +3.953e-05   |Residual|: 9.727e-03   |deigs|: 7.528e-05  t[s]:   6079.26
	FillingsUpdate:  mu: +0.432122725  nElectrons: 410.000000
SCF: Cycle: 21   F: -1889.693877992248190   dF: -2.380e-04   |Residual|: 5.424e-03   |deigs|: 7.722e-05  t[s]:   6148.17
	FillingsUpdate:  mu: +0.432113549  nElectrons: 410.000000
SCF: Cycle: 22   F: -1889.693864998572280   dF: +1.299e-05   |Residual|: 5.864e-03   |deigs|: 5.354e-05  t[s]:   6217.92
	FillingsUpdate:  mu: +0.432128710  nElectrons: 410.000000
SCF: Cycle: 23   F: -1889.693885860046066   dF: -2.086e-05   |Residual|: 4.747e-03   |deigs|: 4.496e-05  t[s]:   6288.52
	FillingsUpdate:  mu: +0.432145809  nElectrons: 410.000000
SCF: Cycle: 24   F: -1889.693941617177643   dF: -5.576e-05   |Residual|: 3.022e-03   |deigs|: 3.774e-05  t[s]:   6357.72
	FillingsUpdate:  mu: +0.432145698  nElectrons: 410.000000
SCF: Cycle: 25   F: -1889.693898431358321   dF: +4.319e-05   |Residual|: 4.303e-03   |deigs|: 3.868e-05  t[s]:   6426.59
	FillingsUpdate:  mu: +0.432152574  nElectrons: 410.000000
SCF: Cycle: 26   F: -1889.693926921164120   dF: -2.849e-05   |Residual|: 3.332e-03   |deigs|: 4.024e-05  t[s]:   6497.05
	FillingsUpdate:  mu: +0.432142624  nElectrons: 410.000000
SCF: Cycle: 27   F: -1889.693964117780979   dF: -3.720e-05   |Residual|: 1.690e-03   |deigs|: 2.767e-05  t[s]:   6564.82
	FillingsUpdate:  mu: +0.432139196  nElectrons: 410.000000
SCF: Cycle: 28   F: -1889.693968884903825   dF: -4.767e-06   |Residual|: 1.257e-03   |deigs|: 1.591e-05  t[s]:   6634.02
	FillingsUpdate:  mu: +0.432130635  nElectrons: 410.000000
SCF: Cycle: 29   F: -1889.693962651797165   dF: +6.233e-06   |Residual|: 1.803e-03   |deigs|: 1.681e-05  t[s]:   6703.36
	FillingsUpdate:  mu: +0.432134744  nElectrons: 410.000000
SCF: Cycle: 30   F: -1889.693970356125419   dF: -7.704e-06   |Residual|: 1.051e-03   |deigs|: 1.393e-05  t[s]:   6772.93
	FillingsUpdate:  mu: +0.432135884  nElectrons: 410.000000
SCF: Cycle: 31   F: -1889.693972314691337   dF: -1.959e-06   |Residual|: 7.986e-04   |deigs|: 9.327e-06  t[s]:   6844.27
	FillingsUpdate:  mu: +0.432140989  nElectrons: 410.000000
SCF: Cycle: 32   F: -1889.693972644826999   dF: -3.301e-07   |Residual|: 7.133e-04   |deigs|: 8.205e-06  t[s]:   6912.26
	FillingsUpdate:  mu: +0.432141764  nElectrons: 410.000000
SCF: Cycle: 33   F: -1889.693973740359979   dF: -1.096e-06   |Residual|: 4.883e-04   |deigs|: 5.511e-06  t[s]:   6983.06
	FillingsUpdate:  mu: +0.432139736  nElectrons: 410.000000
SCF: Cycle: 34   F: -1889.693972994236674   dF: +7.461e-07   |Residual|: 6.730e-04   |deigs|: 5.583e-06  t[s]:   7053.16
	FillingsUpdate:  mu: +0.432137546  nElectrons: 410.000000
SCF: Cycle: 35   F: -1889.693974127386582   dF: -1.133e-06   |Residual|: 3.228e-04   |deigs|: 5.210e-06  t[s]:   7122.84
	FillingsUpdate:  mu: +0.432137147  nElectrons: 410.000000
SCF: Cycle: 36   F: -1889.693974222007455   dF: -9.462e-08   |Residual|: 2.865e-04   |deigs|: 3.289e-06  t[s]:   7191.91
	FillingsUpdate:  mu: +0.432137279  nElectrons: 410.000000
SCF: Cycle: 37   F: -1889.693973999575746   dF: +2.224e-07   |Residual|: 3.371e-04   |deigs|: 3.509e-06  t[s]:   7261.58
	FillingsUpdate:  mu: +0.432138457  nElectrons: 410.000000
SCF: Cycle: 38   F: -1889.693974286488810   dF: -2.869e-07   |Residual|: 2.472e-04   |deigs|: 3.242e-06  t[s]:   7330.05
	FillingsUpdate:  mu: +0.432139013  nElectrons: 410.000000
SCF: Cycle: 39   F: -1889.693974442023546   dF: -1.555e-07   |Residual|: 1.488e-04   |deigs|: 2.414e-06  t[s]:   7399.15
	FillingsUpdate:  mu: +0.432139289  nElectrons: 410.000000
SCF: Cycle: 40   F: -1889.693974339493707   dF: +1.025e-07   |Residual|: 2.133e-04   |deigs|: 1.643e-06  t[s]:   7468.89
	FillingsUpdate:  mu: +0.432138803  nElectrons: 410.000000
SCF: Cycle: 41   F: -1889.693974459191395   dF: -1.197e-07   |Residual|: 1.194e-04   |deigs|: 1.557e-06  t[s]:   7537.84
	FillingsUpdate:  mu: +0.432138711  nElectrons: 410.000000
SCF: Cycle: 42   F: -1889.693974469659906   dF: -1.047e-08   |Residual|: 1.109e-04   |deigs|: 1.178e-06  t[s]:   7606.44
	FillingsUpdate:  mu: +0.432137928  nElectrons: 410.000000
SCF: Cycle: 43   F: -1889.693974417326444   dF: +5.233e-08   |Residual|: 1.619e-04   |deigs|: 1.407e-06  t[s]:   7676.46
	FillingsUpdate:  mu: +0.432137892  nElectrons: 410.000000
SCF: Cycle: 44   F: -1889.693974499632986   dF: -8.231e-08   |Residual|: 6.709e-05   |deigs|: 1.121e-06  t[s]:   7745.92
	FillingsUpdate:  mu: +0.432138261  nElectrons: 410.000000
SCF: Cycle: 45   F: -1889.693974487950072   dF: +1.168e-08   |Residual|: 8.529e-05   |deigs|: 8.070e-07  t[s]:   7816.04
	FillingsUpdate:  mu: +0.432138678  nElectrons: 410.000000
SCF: Cycle: 46   F: -1889.693974486984189   dF: +9.659e-10   |Residual|: 8.642e-05   |deigs|: 8.868e-07  t[s]:   7886.23
	FillingsUpdate:  mu: +0.432138706  nElectrons: 410.000000
SCF: Cycle: 47   F: -1889.693974510395719   dF: -2.341e-08   |Residual|: 3.119e-05   |deigs|: 6.603e-07  t[s]:   7955.12
	FillingsUpdate:  mu: +0.432138639  nElectrons: 410.000000
SCF: Cycle: 48   F: -1889.693974501314187   dF: +9.082e-09   |Residual|: 5.373e-05   |deigs|: 5.454e-07  t[s]:   8020.77
	FillingsUpdate:  mu: +0.432138433  nElectrons: 410.000000
SCF: Cycle: 49   F: -1889.693974510480984   dF: -9.167e-09   |Residual|: 2.813e-05   |deigs|: 4.858e-07  t[s]:   8092.80
Setting wave functions to eigenvectors of Hamiltonian

# Ionic positions in lattice coordinates:
ion Cr   0.248734827294312   0.256369339301313   0.240888032119608 1
ion Cr  -0.000727365004717   0.012470495785914  -0.007723261297787 1
ion Cr   0.264243029778216   0.241926148617779   0.752290429038013 1
ion Cr  -0.007727185923125   0.006153262849835   0.507491040908281 1
ion Cr   0.245030162395904   0.748202017073520   0.247662825497957 1
ion Cr  -0.013953849756941   0.503885185644445  -0.006414615888526 1
ion Cr   0.244619471882701   0.758943217283413   0.751999779326223 1
ion Cr   0.002836658211864   0.511259877148210   0.515333668512702 1
ion Cr   0.764895608529325   0.253911602597318   0.245287501346554 1
ion Cr   0.496059643432669  -0.007598285984703  -0.000431119221837 1
ion Cr   0.749868068768428   0.247163317353038   0.761929867050511 1
ion Cr   0.515542608789816   0.003194527543117   0.510400765285190 1
ion Cr   0.747386584925752   0.754169151949045   0.267327304873254 1
ion Cr   0.516021730489595   0.494345882112171  -0.010902725336890 1
ion Cr   0.751530340458778   0.752042284662430   0.753527863206435 1
ion Cr   0.499326570076966   0.497971420941917   0.497626134435488 1
ion O  -0.005673581700508   0.349516366370349   0.363311513068695 1
ion O   0.238979315927036   0.384715517956342   0.103967906299021 1
ion O   0.004596954038582   0.126945489204663   0.159590042877668 1
ion O   0.246658200443993   0.091308584564615   0.414181686785485 1
ion O   0.006922338734825   0.343521905177713   0.835917932074937 1
ion O   0.243533697998151   0.395185527101966   0.585831989446063 1
ion O  -0.004643264697251   0.150687506261691   0.644934328332428 1
ion O   0.247395129158769   0.097751382294408   0.891283986280410 1
ion O   0.004960110826802   0.851979319823244   0.350407441585284 1
ion O   0.258751967031430   0.904975193212204   0.089728331895895 1
ion O   0.014205101535674   0.651978423343605   0.144866644313998 1
ion O   0.238277141717687   0.584633083088743   0.393205226176245 1
ion O  -0.016741727821607   0.850542220116532   0.848662614550773 1
ion O   0.249190702394511   0.887795895321377   0.608611930781273 1
ion O  -0.000492957740424   0.665447044471816   0.648600466426022 1
ion O   0.258475559615664   0.580000207586253   0.908311622501685 1
ion O   0.505115667987235   0.340479816783649   0.337045650899894 1
ion O   0.756947174829779   0.398476613588759   0.096191655058265 1
ion O   0.498293595004640   0.159373516038145   0.132862633417891 1
ion O   0.745795649951163   0.095390584727871   0.401430700727573 1
ion O   0.499253385525353   0.351657983552413   0.861246288294846 1
ion O   0.750197746263160   0.393229027417573   0.593415524555313 1
ion O   0.505583151653524   0.155677416855681   0.641691379860080 1
ion O   0.745529153619171   0.103917259075171   0.901765188216765 1
ion O   0.499352365333626   0.848908617211377   0.340641461734843 1
ion O   0.752428544923171   0.899429602543080   0.104737278272604 1
ion O   0.492742900953873   0.655316152427394   0.152421350590945 1
ion O   0.747175951646710   0.598201671220803   0.410321316409946 1
ion O   0.501710293282043   0.835130827852135   0.855828971707593 1
ion O   0.732397399253715   0.892866826059655   0.608081888410681 1
ion O   0.489175427959960   0.658850973872012   0.648031558591704 1

# Forces in Lattice coordinates:
force Cr  -0.290805903083343  -0.406016145966227   0.194103356117677 1
force Cr  -0.078112720552779  -0.666025207076038   0.560927577785519 1
force Cr   0.061452300008239   0.269483446391901  -0.438125816521366 1
force Cr  -0.016629050337302  -0.209315683214815  -0.088085184731544 1
force Cr  -0.054181520107732  -0.194054862118194  -0.251397972841886 1
force Cr   0.067013543132892  -0.052344753261933   0.303000276912675 1
force Cr   0.062442156005646  -0.354523067067544  -0.140865208883981 1
force Cr  -0.108624562039476  -0.442591687807960  -0.201288941340533 1
force Cr   0.200457517376560  -0.257515219639334   0.156662896188321 1
force Cr   0.372700338499851   0.035805007503459   0.403731247114548 1
force Cr  -0.203748850388679   0.000001418889835  -0.667827136513630 1
force Cr  -0.208316699029469  -0.050491483417356  -0.246984520763054 1
force Cr   0.241129189144182  -0.242844560968940  -0.679848651885065 1
force Cr   0.104819959484569   0.317426662987017   0.656955814625608 1
force Cr  -0.205059056957063  -0.078254777529176  -0.460236330523766 1
force Cr  -0.074972445133164  -0.096047711019315   0.221953475268837 1
force O   0.009668797286939  -0.209612978173432  -0.497526013718395 1
force O  -0.052676227206609   0.542807984969347  -0.383241554850262 1
force O  -0.025725249752055   0.471878465316915  -0.125179951587308 1
force O   0.072660782613624   0.111150866393139  -0.266824681782130 1
force O  -0.035786515928204   0.544173733521919   0.508784869905610 1
force O   0.178659529877891  -0.176507882729547   0.620255772414942 1
force O   0.037826153637465  -0.045821108612535   0.345419094471416 1
force O   0.063540455567012   0.088124948547338  -0.120772821803616 1
force O  -0.060374783255445   0.080602895608580   0.307934975395021 1
force O  -0.247083414469700  -0.466082031835870   0.465127366979709 1
force O  -0.292667069249705  -0.261319845618278  -0.287916420118766 1
force O   0.155099853376146   0.539807820474088  -0.164503019629850 1
force O   0.164935650670057   0.296909388024922   0.557470087094405 1
force O  -0.020307676334804   0.735828338075201  -0.313001208000216 1
force O  -0.061037115159331  -0.843725184040999  -0.176360771193425 1
force O  -0.178207635714983   0.593865714163661  -0.438720294946664 1
force O  -0.012637273720587   0.388357917868667   0.463941206841907 1
force O   0.035661560851314  -0.133457355887445   0.193459331039465 1
force O   0.076848161277460  -0.225931426254112   0.318147191549576 1
force O   0.054733818275136   0.274296364405724  -0.362549365052156 1
force O   0.049305479356149  -0.220233527483119  -0.393806981576999 1
force O  -0.105073948429648   0.204169772278187   0.302208621826471 1
force O   0.017283698911762  -0.307061675216998   0.133757684388405 1
force O  -0.009096371812737   0.086635775532994  -0.265070607509311 1
force O  -0.110500878059123   0.310828181782486   0.637116805730364 1
force O  -0.088685523635384   0.059065918263948  -0.198031036649314 1
force O   0.210499114220809  -0.279418149558498  -0.187388630130117 1
force O   0.029487563333541   0.454497044540680  -0.515309694727959 1
force O   0.004483026457393   0.357965834136184   0.432780321683327 1
force O   0.221981840366143   0.061381577699083   0.026111493967582 1
force O   0.120425620235069  -0.632122679078181   0.025270415162994 1

# Energy components:
   Eewald =    -1305.4510403271331143
       EH =      519.5217696112733847
     Eloc =    -1589.9512777378060946
      Enl =      221.0664487729977452
      Exc =     -288.6644278924216565
 Exc_core =       13.8452385289812518
       KE =      540.2807713935703759
-------------------------------------
     Etot =    -1889.3525176505386298
       TS =        0.3414386769955138
-------------------------------------
        F =    -1889.6939563275341243

IonicMinimize: Iter:   1  F: -1889.693956327534124  |grad|_K:  1.935e-02  alpha:  9.899e-01  linmin: -9.539e-01  t[s]:   8111.41

#--- Lowdin population analysis ---
# oxidation-state Cr +1.340 +1.327 +1.307 +1.329 +1.353 +1.177 +1.327 +1.361 +1.345 +1.337 +1.310 +1.323 +1.355 +1.177 +1.230 +1.358
# oxidation-state O -0.637 -0.566 -0.630 -0.633 -0.639 -0.624 -0.623 -0.615 -0.642 -0.584 -0.636 -0.628 -0.642 -0.624 -0.628 -0.647 -0.608 -0.621 -0.670 -0.588 -0.589 -0.657 -0.606 -0.623 -0.597 -0.653 -0.670 -0.633 -0.640 -0.600 -0.679


-------- Electronic minimization -----------
Will mix electronic density at each iteration.
	FillingsUpdate:  mu: +0.432138433  nElectrons: 410.000000
	FillingsUpdate:  mu: +0.427168238  nElectrons: 410.000000
SCF: Cycle:  0   F: -1857.855669084741749   dF: +2.885e+01   |Residual|: 2.552e+00   |deigs|: 1.070e-02  t[s]:   8276.60
	FillingsUpdate:  mu: +0.371882528  nElectrons: 410.000000
SCF: Cycle:  1   F: -1750.529973381825357   dF: +1.073e+02   |Residual|: 5.760e+00   |deigs|: 1.278e-01  t[s]:   8398.56
	FillingsUpdate:  mu: +0.462042718  nElectrons: 410.000000
SCF: Cycle:  2   F: -1858.932099856671130   dF: -1.084e+02   |Residual|: 3.028e+00   |deigs|: 1.124e-01  t[s]:   8520.91
	FillingsUpdate:  mu: +0.447140705  nElectrons: 410.000000
SCF: Cycle:  3   F: -1874.196507522100774   dF: -1.526e+01   |Residual|: 2.117e+00   |deigs|: 3.447e-02  t[s]:   8639.70
	FillingsUpdate:  mu: +0.436430390  nElectrons: 410.000000
SCF: Cycle:  4   F: -1883.994013383744004   dF: -9.798e+00   |Residual|: 1.339e+00   |deigs|: 2.201e-02  t[s]:   8760.92
	FillingsUpdate:  mu: +0.423332580  nElectrons: 410.000000
SCF: Cycle:  5   F: -1880.637950050155951   dF: +3.356e+00   |Residual|: 1.645e+00   |deigs|: 1.349e-02  t[s]:   8881.57
	FillingsUpdate:  mu: +0.425150532  nElectrons: 410.000000
SCF: Cycle:  6   F: -1882.266040867276843   dF: -1.628e+00   |Residual|: 1.519e+00   |deigs|: 5.569e-03  t[s]:   8998.13
	FillingsUpdate:  mu: +0.431340434  nElectrons: 410.000000
SCF: Cycle:  7   F: -1888.530349841556017   dF: -6.264e+00   |Residual|: 5.902e-01   |deigs|: 1.007e-02  t[s]:   9117.01
	FillingsUpdate:  mu: +0.431072194  nElectrons: 410.000000
SCF: Cycle:  8   F: -1886.913477506545632   dF: +1.617e+00   |Residual|: 8.832e-01   |deigs|: 3.507e-03  t[s]:   9235.18
	FillingsUpdate:  mu: +0.430448262  nElectrons: 410.000000
SCF: Cycle:  9   F: -1889.566273858791419   dF: -2.653e+00   |Residual|: 2.569e-01   |deigs|: 5.144e-03  t[s]:   9355.04
	FillingsUpdate:  mu: +0.429465298  nElectrons: 410.000000
SCF: Cycle: 10   F: -1889.388590762281638   dF: +1.777e-01   |Residual|: 3.382e-01   |deigs|: 1.296e-03  t[s]:   9470.08
	FillingsUpdate:  mu: +0.429764767  nElectrons: 410.000000
SCF: Cycle: 11   F: -1889.557413386406552   dF: -1.688e-01   |Residual|: 2.237e-01   |deigs|: 9.141e-04  t[s]:   9588.95
	FillingsUpdate:  mu: +0.429877856  nElectrons: 410.000000
SCF: Cycle: 12   F: -1889.748482030935975   dF: -1.911e-01   |Residual|: 7.431e-02   |deigs|: 9.579e-04  t[s]:   9705.81
	FillingsUpdate:  mu: +0.430010016  nElectrons: 410.000000
SCF: Cycle: 13   F: -1889.680879617678784   dF: +6.760e-02   |Residual|: 1.509e-01   |deigs|: 6.099e-04  t[s]:   9807.02
	FillingsUpdate:  mu: +0.429799053  nElectrons: 410.000000
SCF: Cycle: 14   F: -1889.766514128828248   dF: -8.563e-02   |Residual|: 2.428e-02   |deigs|: 6.448e-04  t[s]:   9894.35
	FillingsUpdate:  mu: +0.429941468  nElectrons: 410.000000
SCF: Cycle: 15   F: -1889.760033687427722   dF: +6.480e-03   |Residual|: 5.159e-02   |deigs|: 2.513e-04  t[s]:   9967.07
	FillingsUpdate:  mu: +0.429949047  nElectrons: 410.000000
SCF: Cycle: 16   F: -1889.767923948665157   dF: -7.890e-03   |Residual|: 1.650e-02   |deigs|: 1.868e-04  t[s]:  10035.10
	FillingsUpdate:  mu: +0.429922120  nElectrons: 410.000000
SCF: Cycle: 17   F: -1889.766888390813847   dF: +1.036e-03   |Residual|: 2.292e-02   |deigs|: 1.838e-04  t[s]:  10103.41
	FillingsUpdate:  mu: +0.429869095  nElectrons: 410.000000
SCF: Cycle: 18   F: -1889.768647119880598   dF: -1.759e-03   |Residual|: 8.374e-03   |deigs|: 1.421e-04  t[s]:  10174.92
	FillingsUpdate:  mu: +0.429899713  nElectrons: 410.000000
SCF: Cycle: 19   F: -1889.768515174556569   dF: +1.319e-04   |Residual|: 9.918e-03   |deigs|: 7.377e-05  t[s]:  10243.88
	FillingsUpdate:  mu: +0.429953903  nElectrons: 410.000000
SCF: Cycle: 20   F: -1889.768799246396156   dF: -2.841e-04   |Residual|: 4.524e-03   |deigs|: 7.778e-05  t[s]:  10315.89
	FillingsUpdate:  mu: +0.429941322  nElectrons: 410.000000
SCF: Cycle: 21   F: -1889.768744555737385   dF: +5.469e-05   |Residual|: 6.043e-03   |deigs|: 5.411e-05  t[s]:  10384.50
	FillingsUpdate:  mu: +0.429907688  nElectrons: 410.000000
SCF: Cycle: 22   F: -1889.768845337923949   dF: -1.008e-04   |Residual|: 2.552e-03   |deigs|: 4.505e-05  t[s]:  10456.45
	FillingsUpdate:  mu: +0.429909158  nElectrons: 410.000000
SCF: Cycle: 23   F: -1889.768834689646837   dF: +1.065e-05   |Residual|: 2.983e-03   |deigs|: 2.703e-05  t[s]:  10529.12
	FillingsUpdate:  mu: +0.429919101  nElectrons: 410.000000
SCF: Cycle: 24   F: -1889.768832209196944   dF: +2.480e-06   |Residual|: 2.975e-03   |deigs|: 2.809e-05  t[s]:  10596.45
	FillingsUpdate:  mu: +0.429926403  nElectrons: 410.000000
SCF: Cycle: 25   F: -1889.768861444210643   dF: -2.924e-05   |Residual|: 1.211e-03   |deigs|: 2.095e-05  t[s]:  10666.59
	FillingsUpdate:  mu: +0.429922255  nElectrons: 410.000000
SCF: Cycle: 26   F: -1889.768856008334296   dF: +5.436e-06   |Residual|: 1.650e-03   |deigs|: 1.490e-05  t[s]:  10735.61
	FillingsUpdate:  mu: +0.429918771  nElectrons: 410.000000
SCF: Cycle: 27   F: -1889.768866307425697   dF: -1.030e-05   |Residual|: 2.960e-04   |deigs|: 9.897e-06  t[s]:  10803.17
	FillingsUpdate:  mu: +0.429918219  nElectrons: 410.000000
SCF: Cycle: 28   F: -1889.768864135638296   dF: +2.172e-06   |Residual|: 8.609e-04   |deigs|: 5.097e-06  t[s]:  10871.58
	FillingsUpdate:  mu: +0.429918544  nElectrons: 410.000000
SCF: Cycle: 29   F: -1889.768866139548891   dF: -2.004e-06   |Residual|: 3.112e-04   |deigs|: 4.602e-06  t[s]:  10943.75
	FillingsUpdate:  mu: +0.429918998  nElectrons: 410.000000
SCF: Cycle: 30   F: -1889.768866412291345   dF: -2.727e-07   |Residual|: 1.754e-04   |deigs|: 2.801e-06  t[s]:  11010.05
	FillingsUpdate:  mu: +0.429919857  nElectrons: 410.000000
SCF: Cycle: 31   F: -1889.768866218635139   dF: +1.937e-07   |Residual|: 2.939e-04   |deigs|: 2.051e-06  t[s]:  11078.99
	FillingsUpdate:  mu: +0.429919784  nElectrons: 410.000000
SCF: Cycle: 32   F: -1889.768866500790637   dF: -2.822e-07   |Residual|: 7.325e-05   |deigs|: 1.779e-06  t[s]:  11149.49
	FillingsUpdate:  mu: +0.429918817  nElectrons: 410.000000
SCF: Cycle: 33   F: -1889.768866500900685   dF: -1.100e-10   |Residual|: 7.489e-05   |deigs|: 1.040e-06  t[s]:  11219.32
	FillingsUpdate:  mu: +0.429919005  nElectrons: 410.000000
SCF: Cycle: 34   F: -1889.768866488134108   dF: +1.277e-08   |Residual|: 9.292e-05   |deigs|: 7.541e-07  t[s]:  11291.44
	FillingsUpdate:  mu: +0.429919430  nElectrons: 410.000000
SCF: Cycle: 35   F: -1889.768866504453172   dF: -1.632e-08   |Residual|: 6.284e-05   |deigs|: 8.077e-07  t[s]:  11358.81
	FillingsUpdate:  mu: +0.429919504  nElectrons: 410.000000
SCF: Cycle: 36   F: -1889.768866507626853   dF: -3.174e-09   |Residual|: 4.598e-05   |deigs|: 4.826e-07  t[s]:  11428.84
	FillingsUpdate:  mu: +0.429919528  nElectrons: 410.000000
SCF: Cycle: 37   F: -1889.768866510994485   dF: -3.368e-09   |Residual|: 4.057e-05   |deigs|: 4.437e-07  t[s]:  11496.41
SCF: Converged (|Delta E|<1.000000e-08 for 2 iters).

Setting wave functions to eigenvectors of Hamiltonian

# Ionic positions in lattice coordinates:
ion Cr   0.243857558390587   0.254428484076982   0.241704904690520 1
ion Cr  -0.001799751569005   0.007909494885652  -0.004289379835865 1
ion Cr   0.264629905286208   0.244128606397810   0.749811292003178 1
ion Cr  -0.008323682364960   0.004615876744147   0.506863362308186 1
ion Cr   0.244686646254585   0.747346302062791   0.246371710032138 1
ion Cr  -0.012009260996299   0.503370632963199  -0.004529034296290 1
ion Cr   0.245265150195231   0.756862246165230   0.751059935824620 1
ion Cr   0.000839955850178   0.508269533937486   0.513406091550329 1
ion Cr   0.767938431670912   0.252168837671975   0.246698488009093 1
ion Cr   0.502023065030246  -0.007395098706811   0.002639036437765 1
ion Cr   0.747135888447660   0.247594215613999   0.757833597989216 1
ion Cr   0.512065207010431   0.002432443046031   0.508274760320941 1
ion Cr   0.749975739691106   0.753138094336243   0.263200082061780 1
ion Cr   0.516615437806234   0.496145626724683  -0.007112514353380 1
ion Cr   0.748849321335010   0.752209205841371   0.750657073689796 1
ion Cr   0.498241345810302   0.497560836379885   0.498695061303495 1
ion O  -0.005280966394947   0.348199728649268   0.359965771665704 1
ion O   0.238126981610917   0.387832873144024   0.102100062497468 1
ion O   0.004049769861492   0.130259988064105   0.158584001272821 1
ion O   0.247905742130023   0.092351379750330   0.412150917857097 1
ion O   0.005330421105580   0.346855966879706   0.839072583350660 1
ion O   0.246812272883729   0.393932840268429   0.590255161709308 1
ion O  -0.003967580289430   0.150325498627250   0.647249397033644 1
ion O   0.248262471128234   0.097986426352499   0.890877450686763 1
ion O   0.003704648154905   0.852565953970585   0.352575050169942 1
ion O   0.254807647275226   0.902117992382285   0.092610029507291 1
ion O   0.008072424930955   0.650080536252835   0.142778611438496 1
ion O   0.240968766377640   0.588283541667938   0.392327682687847 1
ion O  -0.014354565000394   0.851729140410278   0.851777200247842 1
ion O   0.248782505189598   0.892629259499783   0.606815111861221 1
ion O  -0.001648426022887   0.659668752149030   0.647666356493763 1
ion O   0.255740507854287   0.584029399025820   0.905369921232474 1
ion O   0.504667718473730   0.342905829975795   0.339923152415427 1
ion O   0.757456503171685   0.397386926422028   0.097710453752872 1
ion O   0.499612477479798   0.157858131674439   0.135325753593449 1
ion O   0.746750808034056   0.097272078045345   0.399046278430449 1
ion O   0.500385987204500   0.351169827502899   0.859187660141279 1
ion O   0.748148575499249   0.394623084972031   0.595628349655892 1
ion O   0.506002835446416   0.153308182761529   0.642393363082552 1
ion O   0.745535206912786   0.104516004579475   0.899852879373150 1
ion O   0.498856677132389   0.850090266223383   0.344403846381088 1
ion O   0.750800128521168   0.899738114773331   0.103531019266107 1
ion O   0.496909234775419   0.653260418009973   0.150937922585572 1
ion O   0.747577092518247   0.601152530637963   0.406853921337957 1
ion O   0.501751922822578   0.837587239341779   0.858757157581714 1
ion O   0.736560064549727   0.893464293117758   0.608189828199916 1
ion O   0.491461188814900   0.654332456727434   0.648218636754715 1

# Forces in Lattice coordinates:
force Cr  -0.092100268720458  -0.174297362928265   0.145282589189575 1
force Cr  -0.037254153488052  -0.338939110069425   0.194159875263383 1
force Cr   0.004627791607091   0.204198861387698  -0.118492304444128 1
force Cr  -0.024428914803867  -0.120146095648549  -0.109465698969941 1
force Cr  -0.035259019823386  -0.052033233990036  -0.072001788017478 1
force Cr   0.114214739170337  -0.118837732679134   0.184536990713184 1
force Cr   0.047071219621116  -0.187439709071088  -0.078523701571524 1
force Cr  -0.035067085991019  -0.328684357524970  -0.316139571469753 1
force Cr   0.015960169211908  -0.174077489573880   0.175239439524876 1
force Cr   0.148742649517827   0.185490063864266   0.168478553992998 1
force Cr  -0.085096593907118   0.034424560061665  -0.331913232134805 1
force Cr  -0.099106462665301  -0.074138153666142  -0.302326337588960 1
force Cr   0.141437795654531  -0.144786971912938  -0.358914806172346 1
force Cr  -0.033916911338175   0.161495293671626   0.430906871612191 1
force Cr  -0.100578740228781   0.096848682710695  -0.285474396325558 1
force Cr  -0.028365586054596  -0.008619295043762  -0.003733842307706 1
force O   0.050487746658243  -0.010893193824887  -0.218821746469600 1
force O  -0.014763345033098   0.324510462678561  -0.180033056876794 1
force O  -0.018234088815386   0.281414863624212  -0.215794304829331 1
force O   0.024907125163222   0.141737816819511  -0.241045178474871 1
force O  -0.069377176722682   0.323156776043404   0.289239883317641 1
force O   0.089265388854623  -0.078226155508854   0.432711379877876 1
force O   0.027174432919904  -0.045604734129361   0.183656526979302 1
force O   0.021517539202864  -0.011323370941092   0.044791361960362 1
force O  -0.049478773760682   0.007233282053380   0.155138742750373 1
force O  -0.119929127978509  -0.277024358951394   0.316284447841396 1
force O  -0.210603118711035  -0.136632930875473  -0.177139767380578 1
force O   0.083834322112103   0.355108331001623  -0.037228918475837 1
force O   0.091783894581307   0.001548137832199   0.237596397572378 1
force O  -0.003334070619146   0.381178594888880  -0.091713043810975 1
force O  -0.037763880349414  -0.539283895307564   0.004340571145740 1
force O  -0.073737370623128   0.446240565094973  -0.311317877536129 1
force O  -0.028675636754392   0.212651216367999   0.248639522216288 1
force O  -0.000425569088100  -0.103116340433747   0.135101450524727 1
force O   0.031125694708784  -0.165077661804416   0.313656657636082 1
force O   0.032312838409618   0.178187238819336  -0.208600079843708 1
force O   0.051158943060888   0.040095722925362  -0.193347561992252 1
force O  -0.061627700716768   0.127334373560268   0.226891685276319 1
force O   0.006721162398907  -0.277642013278465   0.045243275806103 1
force O   0.025575328569255  -0.002105913998948  -0.142907009240729 1
force O  -0.037622783929212   0.092060448962190   0.347016418014849 1
force O  -0.023594910795080  -0.052722409128003   0.010315980391711 1
force O   0.137607806247292  -0.214703325269648  -0.196266948963676 1
force O   0.018398724680868   0.212986703208188  -0.307124613669393 1
force O   0.004045698750999   0.174630776137029   0.183335252399813 1
force O   0.150003265523358   0.058114828185869   0.004737769165985 1
force O   0.080256387668921  -0.419506197960401   0.052456667722826 1

# Energy components:
   Eewald =    -1308.8295436569931098
       EH =      516.0917407160277435
     Eloc =    -1582.7433400114000506
      Enl =      220.9561875329463589
      Exc =     -288.5128839222778652
 Exc_core =       13.8453119230425798
       KE =      539.7622186566536584
-------------------------------------
     Etot =    -1889.4303087620005499
       TS =        0.3385577489939219
-------------------------------------
        F =    -1889.7688665109944850

IonicMinimize: Iter:   2  F: -1889.768866510994485  |grad|_K:  1.135e-02  alpha:  5.786e-01  linmin: -9.603e-01  t[s]:  11514.47

#--- Lowdin population analysis ---
# oxidation-state Cr +1.344 +1.335 +1.325 +1.335 +1.354 +1.199 +1.334 +1.356 +1.346 +1.347 +1.324 +1.330 +1.354 +1.197 +1.240 +1.359
# oxidation-state O -0.622 -0.581 -0.616 -0.634 -0.656 -0.628 -0.629 -0.636 -0.641 -0.606 -0.638 -0.636 -0.652 -0.634 -0.629 -0.662 -0.632 -0.617 -0.670 -0.602 -0.602 -0.650 -0.600 -0.625 -0.621 -0.631 -0.669 -0.636 -0.644 -0.597 -0.669


-------- Electronic minimization -----------
Will mix electronic density at each iteration.
	FillingsUpdate:  mu: +0.429919528  nElectrons: 410.000000
	FillingsUpdate:  mu: +0.421702010  nElectrons: 410.000000
SCF: Cycle:  0   F: -1857.158623848984917   dF: +3.006e+01   |Residual|: 2.440e+00   |deigs|: 8.705e-03  t[s]:  11674.04
	FillingsUpdate:  mu: +0.370411347  nElectrons: 410.000000
SCF: Cycle:  1   F: -1724.587461156954532   dF: +1.326e+02   |Residual|: 6.010e+00   |deigs|: 1.304e-01  t[s]:  11788.94
	FillingsUpdate:  mu: +0.451403141  nElectrons: 410.000000
SCF: Cycle:  2   F: -1859.497492637855430   dF: -1.349e+02   |Residual|: 3.087e+00   |deigs|: 1.130e-01  t[s]:  11909.67
	FillingsUpdate:  mu: +0.446647953  nElectrons: 410.000000
SCF: Cycle:  3   F: -1876.556708938817337   dF: -1.706e+01   |Residual|: 1.974e+00   |deigs|: 3.343e-02  t[s]:  12028.58
	FillingsUpdate:  mu: +0.435208650  nElectrons: 410.000000
SCF: Cycle:  4   F: -1884.242000965595253   dF: -7.685e+00   |Residual|: 1.279e+00   |deigs|: 2.074e-02  t[s]:  12145.71
	FillingsUpdate:  mu: +0.421611770  nElectrons: 410.000000
SCF: Cycle:  5   F: -1880.904463274103364   dF: +3.338e+00   |Residual|: 1.620e+00   |deigs|: 1.194e-02  t[s]:  12266.11
	FillingsUpdate:  mu: +0.424142033  nElectrons: 410.000000
SCF: Cycle:  6   F: -1883.223621416133938   dF: -2.319e+00   |Residual|: 1.343e+00   |deigs|: 8.177e-03  t[s]:  12384.96
	FillingsUpdate:  mu: +0.430199733  nElectrons: 410.000000
SCF: Cycle:  7   F: -1888.701597924123689   dF: -5.478e+00   |Residual|: 5.437e-01   |deigs|: 8.760e-03  t[s]:  12500.61
	FillingsUpdate:  mu: +0.430432642  nElectrons: 410.000000
SCF: Cycle:  8   F: -1887.446722748675256   dF: +1.255e+00   |Residual|: 8.253e-01   |deigs|: 3.361e-03  t[s]:  12619.65
	FillingsUpdate:  mu: +0.429627791  nElectrons: 410.000000
SCF: Cycle:  9   F: -1889.367727787215699   dF: -1.921e+00   |Residual|: 3.656e-01   |deigs|: 4.223e-03  t[s]:  12743.09
	FillingsUpdate:  mu: +0.428882718  nElectrons: 410.000000
SCF: Cycle: 10   F: -1889.602327816497564   dF: -2.346e-01   |Residual|: 2.607e-01   |deigs|: 1.628e-03  t[s]:  12863.53
	FillingsUpdate:  mu: +0.428523581  nElectrons: 410.000000
SCF: Cycle: 11   F: -1889.634214813421295   dF: -3.189e-02   |Residual|: 2.137e-01   |deigs|: 8.808e-04  t[s]:  12985.15
	FillingsUpdate:  mu: +0.428349201  nElectrons: 410.000000
SCF: Cycle: 12   F: -1889.796309144406450   dF: -1.621e-01   |Residual|: 6.907e-02   |deigs|: 9.945e-04  t[s]:  13097.82
	FillingsUpdate:  mu: +0.428362292  nElectrons: 410.000000
SCF: Cycle: 13   F: -1889.766862813423359   dF: +2.945e-02   |Residual|: 1.133e-01   |deigs|: 3.312e-04  t[s]:  13198.36
	FillingsUpdate:  mu: +0.428620653  nElectrons: 410.000000
SCF: Cycle: 14   F: -1889.807989559890302   dF: -4.113e-02   |Residual|: 2.924e-02   |deigs|: 3.812e-04  t[s]:  13285.72
	FillingsUpdate:  mu: +0.428478966  nElectrons: 410.000000
SCF: Cycle: 15   F: -1889.800068306594540   dF: +7.921e-03   |Residual|: 5.304e-02   |deigs|: 4.166e-04  t[s]:  13354.54
	FillingsUpdate:  mu: +0.428429219  nElectrons: 410.000000
SCF: Cycle: 16   F: -1889.804324598895391   dF: -4.256e-03   |Residual|: 4.503e-02   |deigs|: 4.265e-04  t[s]:  13426.31
	FillingsUpdate:  mu: +0.428425826  nElectrons: 410.000000
SCF: Cycle: 17   F: -1889.810780550789787   dF: -6.456e-03   |Residual|: 1.542e-02   |deigs|: 2.292e-04  t[s]:  13493.65
	FillingsUpdate:  mu: +0.428473706  nElectrons: 410.000000
SCF: Cycle: 18   F: -1889.809041441515092   dF: +1.739e-03   |Residual|: 2.440e-02   |deigs|: 1.429e-04  t[s]:  13563.88
	FillingsUpdate:  mu: +0.428552293  nElectrons: 410.000000
SCF: Cycle: 19   F: -1889.810611294119553   dF: -1.570e-03   |Residual|: 1.547e-02   |deigs|: 1.424e-04  t[s]:  13635.98
	FillingsUpdate:  mu: +0.428538470  nElectrons: 410.000000
SCF: Cycle: 20   F: -1889.811422919662618   dF: -8.116e-04   |Residual|: 5.367e-03   |deigs|: 8.269e-05  t[s]:  13706.52
	FillingsUpdate:  mu: +0.428501356  nElectrons: 410.000000
SCF: Cycle: 21   F: -1889.811019559522265   dF: +4.034e-04   |Residual|: 1.201e-02   |deigs|: 6.857e-05  t[s]:  13774.82
	FillingsUpdate:  mu: +0.428482202  nElectrons: 410.000000
SCF: Cycle: 22   F: -1889.811408289656129   dF: -3.887e-04   |Residual|: 5.398e-03   |deigs|: 7.286e-05  t[s]:  13845.92
	FillingsUpdate:  mu: +0.428486005  nElectrons: 410.000000
SCF: Cycle: 23   F: -1889.811424703364537   dF: -1.641e-05   |Residual|: 4.302e-03   |deigs|: 4.860e-05  t[s]:  13913.12
	FillingsUpdate:  mu: +0.428503659  nElectrons: 410.000000
SCF: Cycle: 24   F: -1889.811443406493709   dF: -1.870e-05   |Residual|: 4.588e-03   |deigs|: 3.468e-05  t[s]:  13986.49
	FillingsUpdate:  mu: +0.428507303  nElectrons: 410.000000
SCF: Cycle: 25   F: -1889.811489263162912   dF: -4.586e-05   |Residual|: 2.641e-03   |deigs|: 3.006e-05  t[s]:  14056.98
	FillingsUpdate:  mu: +0.428517212  nElectrons: 410.000000
SCF: Cycle: 26   F: -1889.811460373148748   dF: +2.889e-05   |Residual|: 3.817e-03   |deigs|: 3.243e-05  t[s]:  14125.67
	FillingsUpdate:  mu: +0.428506341  nElectrons: 410.000000
SCF: Cycle: 27   F: -1889.811494546013591   dF: -3.417e-05   |Residual|: 2.091e-03   |deigs|: 3.098e-05  t[s]:  14195.66
	FillingsUpdate:  mu: +0.428504433  nElectrons: 410.000000
SCF: Cycle: 28   F: -1889.811489087685686   dF: +5.458e-06   |Residual|: 2.693e-03   |deigs|: 2.232e-05  t[s]:  14267.02
	FillingsUpdate:  mu: +0.428499366  nElectrons: 410.000000
SCF: Cycle: 29   F: -1889.811501113991653   dF: -1.203e-05   |Residual|: 1.732e-03   |deigs|: 1.835e-05  t[s]:  14336.97
	FillingsUpdate:  mu: +0.428498987  nElectrons: 410.000000
SCF: Cycle: 30   F: -1889.811498951954036   dF: +2.162e-06   |Residual|: 1.807e-03   |deigs|: 1.577e-05  t[s]:  14407.72
	FillingsUpdate:  mu: +0.428499967  nElectrons: 410.000000
SCF: Cycle: 31   F: -1889.811505572658916   dF: -6.621e-06   |Residual|: 1.334e-03   |deigs|: 1.292e-05  t[s]:  14477.53
	FillingsUpdate:  mu: +0.428501991  nElectrons: 410.000000
SCF: Cycle: 32   F: -1889.811510511534834   dF: -4.939e-06   |Residual|: 7.224e-04   |deigs|: 7.006e-06  t[s]:  14547.46
	FillingsUpdate:  mu: +0.428502960  nElectrons: 410.000000
SCF: Cycle: 33   F: -1889.811511125014249   dF: -6.135e-07   |Residual|: 5.642e-04   |deigs|: 5.768e-06  t[s]:  14616.53
	FillingsUpdate:  mu: +0.428504938  nElectrons: 410.000000
SCF: Cycle: 34   F: -1889.811502515127358   dF: +8.610e-06   |Residual|: 1.485e-03   |deigs|: 1.197e-05  t[s]:  14685.85
	FillingsUpdate:  mu: +0.428502733  nElectrons: 410.000000
SCF: Cycle: 35   F: -1889.811511186298048   dF: -8.671e-06   |Residual|: 5.285e-04   |deigs|: 1.086e-05  t[s]:  14754.80
	FillingsUpdate:  mu: +0.428502102  nElectrons: 410.000000
SCF: Cycle: 36   F: -1889.811512193847648   dF: -1.008e-06   |Residual|: 1.765e-04   |deigs|: 3.547e-06  t[s]:  14819.01
	FillingsUpdate:  mu: +0.428502317  nElectrons: 410.000000
SCF: Cycle: 37   F: -1889.811511852703916   dF: +3.411e-07   |Residual|: 3.704e-04   |deigs|: 2.605e-06  t[s]:  14888.77
	FillingsUpdate:  mu: +0.428502791  nElectrons: 410.000000
SCF: Cycle: 38   F: -1889.811512013640822   dF: -1.609e-07   |Residual|: 2.758e-04   |deigs|: 3.059e-06  t[s]:  14960.75
	FillingsUpdate:  mu: +0.428502636  nElectrons: 410.000000
SCF: Cycle: 39   F: -1889.811512212312664   dF: -1.987e-07   |Residual|: 1.741e-04   |deigs|: 2.245e-06  t[s]:  15027.54
	FillingsUpdate:  mu: +0.428502755  nElectrons: 410.000000
SCF: Cycle: 40   F: -1889.811512178580188   dF: +3.373e-08   |Residual|: 2.074e-04   |deigs|: 1.477e-06  t[s]:  15098.46
	FillingsUpdate:  mu: +0.428502873  nElectrons: 410.000000
SCF: Cycle: 41   F: -1889.811511624335935   dF: +5.542e-07   |Residual|: 4.134e-04   |deigs|: 2.777e-06  t[s]:  15170.25
	FillingsUpdate:  mu: +0.428502590  nElectrons: 410.000000
SCF: Cycle: 42   F: -1889.811511729769791   dF: -1.054e-07   |Residual|: 4.012e-04   |deigs|: 3.222e-06  t[s]:  15243.58
	FillingsUpdate:  mu: +0.428502595  nElectrons: 410.000000
SCF: Cycle: 43   F: -1889.811512306338955   dF: -5.766e-07   |Residual|: 7.501e-05   |deigs|: 2.203e-06  t[s]:  15314.20
	FillingsUpdate:  mu: +0.428502607  nElectrons: 410.000000
SCF: Cycle: 44   F: -1889.811512296324508   dF: +1.001e-08   |Residual|: 9.121e-05   |deigs|: 8.121e-07  t[s]:  15369.58
	FillingsUpdate:  mu: +0.428502637  nElectrons: 410.000000
SCF: Cycle: 45   F: -1889.811512314958009   dF: -1.863e-08   |Residual|: 4.725e-05   |deigs|: 6.514e-07  t[s]:  15439.24
	FillingsUpdate:  mu: +0.428502756  nElectrons: 410.000000
SCF: Cycle: 46   F: -1889.811512222575175   dF: +9.238e-08   |Residual|: 1.594e-04   |deigs|: 1.160e-06  t[s]:  15511.55
	FillingsUpdate:  mu: +0.428502758  nElectrons: 410.000000
SCF: Cycle: 47   F: -1889.811512318115774   dF: -9.554e-08   |Residual|: 4.375e-05   |deigs|: 1.056e-06  t[s]:  15581.51
	FillingsUpdate:  mu: +0.428502674  nElectrons: 410.000000
SCF: Cycle: 48   F: -1889.811512311800243   dF: +6.316e-09   |Residual|: 6.441e-05   |deigs|: 4.822e-07  t[s]:  15647.36
	FillingsUpdate:  mu: +0.428502627  nElectrons: 410.000000
SCF: Cycle: 49   F: -1889.811512320541397   dF: -8.741e-09   |Residual|: 3.592e-05   |deigs|: 4.463e-07  t[s]:  15714.30
Setting wave functions to eigenvectors of Hamiltonian

# Ionic positions in lattice coordinates:
ion Cr   0.242020517775280   0.253060103030528   0.243125668812003 1
ion Cr  -0.002716681875094   0.004639117032146  -0.002828200470276 1
ion Cr   0.264274597237976   0.246412296418916   0.749129784647041 1
ion Cr  -0.009235616336913   0.003387555069557   0.505574757185733 1
ion Cr   0.243797013385759   0.747116800743096   0.245955979871980 1
ion Cr  -0.008107627669240   0.501881406188332  -0.002703973182543 1
ion Cr   0.246485241999782   0.755116144620590   0.750273931030792 1
ion Cr   0.000059014663598   0.504765001652798   0.509499263817385 1
ion Cr   0.767347162409387   0.250352552306828   0.248778860417635 1
ion Cr   0.505305196510366  -0.005057050052284   0.004206360587880 1
ion Cr   0.745265359232282   0.248148468206072   0.754760381625543 1
ion Cr   0.509552906434513   0.001456632211163   0.504652180116584 1
ion Cr   0.753393729086120   0.751826495079357   0.259809464639383 1
ion Cr   0.514526288024689   0.497615661547051  -0.002815728315386 1
ion Cr   0.746448496700143   0.753771878841166   0.747787874301093 1
ion Cr   0.497610729476353   0.497673909942442   0.498150451915554 1
ion O  -0.003510149688499   0.348443726793984   0.357970671566176 1
ion O   0.237833768655396   0.390982275650507   0.100584951510217 1
ion O   0.003456402279040   0.133136884076418   0.155948077626981 1
ion O   0.248383463064878   0.094073748266322   0.409413225625356 1
ion O   0.002742105360577   0.350036015661467   0.841874164158796 1
ion O   0.249108627396036   0.393207444217323   0.594853356779562 1
ion O  -0.003224770541453   0.149801705138293   0.649025320173805 1
ion O   0.248610529421763   0.097603018015427   0.891753974492396 1
ion O   0.002140095212638   0.852534443757133   0.354070954536913 1
ion O   0.251794919217574   0.899394900036033   0.095842727733211 1
ion O   0.001698324972647   0.648725071163481   0.140927005212037 1
ion O   0.243145873640656   0.591970146815148   0.392171917004256 1
ion O  -0.012058201646790   0.851043460414525   0.853735498660406 1
ion O   0.248706864698242   0.896284170587803   0.606227094255652 1
ion O  -0.002762486463108   0.654099131445963   0.648076223398825 1
ion O   0.254039267182505   0.588809235817797   0.902075709812460 1
ion O   0.503602771942390   0.344954165143982   0.342281069477800 1
ion O   0.757189462735435   0.396233830370121   0.099172727702739 1
ion O   0.500291641651084   0.156107934261395   0.138916107924226 1
ion O   0.747589051518177   0.099123796314980   0.396964879737292 1
ion O   0.501993515065549   0.352313373500929   0.857488773610379 1
ion O   0.746369783110222   0.395931567210560   0.598085391758166 1
ion O   0.506140736551152   0.150161881318422   0.642691088306313 1
ion O   0.746492885522700   0.104346092612489   0.898411503909271 1
ion O   0.498368144260289   0.850530741973335   0.347672189387444 1
ion O   0.750335195647688   0.898933230184569   0.104024640757219 1
ion O   0.500859571143025   0.650914399393817   0.148647993430489 1
ion O   0.748015719190362   0.603111268210583   0.403743245722513 1
ion O   0.501820459493194   0.839251915247618   0.860384969344545 1
ion O   0.740847188928929   0.894160191118290   0.608178639830836 1
ion O   0.493732913422700   0.649913262443530   0.648848849553315 1

# Forces in Lattice coordinates:
force Cr  -0.033090465688137  -0.119800241615020   0.137944515367850 1
force Cr  -0.014395334323112  -0.222187923166789   0.080634459351870 1
force Cr   0.006541327365342   0.117636887857442  -0.016888640665204 1
force Cr   0.000361360160992  -0.054943772150970  -0.090369066341460 1
force Cr  -0.011847627783556   0.047619544476694   0.001265288561597 1
force Cr   0.161011276746436  -0.164793486944222   0.086586807399657 1
force Cr   0.043491961969440  -0.136148450133003  -0.043720223145581 1
force Cr   0.007241582040456  -0.267823208184126  -0.208884703377853 1
force Cr  -0.017041914693823  -0.105264110643364   0.093524506035651 1
force Cr   0.029208231728572   0.170748066015393   0.083970591831312 1
force Cr  -0.047705001759238   0.035766770175655  -0.205673930972788 1
force Cr  -0.053043493784903  -0.077998888843402  -0.273892331822566 1
force Cr   0.064361129101261  -0.062504432314882  -0.178074526620077 1
force Cr  -0.119639677072273   0.052271474045177   0.334997327187919 1
force Cr  -0.053286589116631   0.107820723503198  -0.194672088002746 1
force Cr  -0.016487064278738  -0.024703113123631  -0.033364171760169 1
force O   0.048454642217801   0.091489120032828  -0.061191053192661 1
force O   0.019029978345583   0.170994191054222  -0.050655256955386 1
force O  -0.013790680354303   0.191705241442422  -0.218605588808156 1
force O  -0.004462819697561   0.137991705784514  -0.208058436616073 1
force O  -0.062709252010122   0.170792337509267   0.155937902026276 1
force O   0.041467317671796   0.010616669099348   0.235934505727552 1
force O   0.016854316137098  -0.023502158597814   0.086257884707801 1
force O   0.021062017600509  -0.014068382499128   0.096425425283182 1
force O  -0.027420797886109  -0.002089706868289   0.089577969259212 1
force O  -0.036183535147193  -0.116283537528862   0.167097653686004 1
force O  -0.130456249762118  -0.054156123971572  -0.085731780330988 1
force O   0.044790001745575   0.236048875635245  -0.004086045108690 1
force O   0.045694785324189  -0.133071719093236   0.063998042526506 1
force O   0.003478242053038   0.159224410744295  -0.010526936119595 1
force O  -0.030602461093341  -0.290351802036996   0.102370531743705 1
force O  -0.026923748606775   0.319139801940559  -0.199310812576550 1
force O  -0.030290207624002   0.138306601709620   0.145313559109615 1
force O  -0.023563495904749  -0.049616490351706   0.069130624928395 1
force O   0.003063092367064  -0.119755629911984   0.247820111916274 1
[...]
	FillingsUpdate:  mu: +0.427985109  nElectrons: 410.000000
SCF: Cycle: 14   F: -1889.881870779129940   dF: -1.728e-09   |Residual|: 2.723e-05   |deigs|: 3.101e-07  t[s]:  69208.09
	FillingsUpdate:  mu: +0.427985114  nElectrons: 410.000000
SCF: Cycle: 15   F: -1889.881870775316884   dF: +3.813e-09   |Residual|: 4.274e-05   |deigs|: 2.888e-07  t[s]:  69277.02
	FillingsUpdate:  mu: +0.427985131  nElectrons: 410.000000
SCF: Cycle: 16   F: -1889.881870780779991   dF: -5.463e-09   |Residual|: 1.199e-05   |deigs|: 2.481e-07  t[s]:  69342.49
	FillingsUpdate:  mu: +0.427985136  nElectrons: 410.000000
SCF: Cycle: 17   F: -1889.881870780835925   dF: -5.593e-11   |Residual|: 1.411e-05   |deigs|: 1.542e-07  t[s]:  69396.87
SCF: Converged (|Delta E|<1.000000e-08 for 2 iters).

Setting wave functions to eigenvectors of Hamiltonian

# Ionic positions in lattice coordinates:
ion Cr   0.228128942535649   0.242813749569100   0.251674197871389 1
ion Cr  -0.020402141270729  -0.003964564233663  -0.006768218571804 1
ion Cr   0.270803959376573   0.246054529658175   0.754764860553674 1
ion Cr   0.019242612384691   0.003977843915126   0.506850087823054 1
ion Cr   0.229111574535519   0.754720660733419   0.242268306310774 1
ion Cr   0.027360892826984   0.486997354009703  -0.000561842265208 1
ion Cr   0.267384361555092   0.747798208575658   0.754227000487525 1
ion Cr   0.016613904579338   0.501451842134896   0.505613267716727 1
ion Cr   0.766936540350116   0.245511949012191   0.256236679086371 1
ion Cr   0.518713926196431   0.003450578449235   0.008150879085221 1
ion Cr   0.731014764699028   0.254572782798090   0.744085929268193 1
ion Cr   0.480354253018342  -0.003461893418017   0.490907109395544 1
ion Cr   0.768890017574454   0.744898691359313   0.254645048368638 1
ion Cr   0.480041864361084   0.493833441303499   0.018787793794848 1
ion Cr   0.730068457419153   0.765869218068867   0.728557649892955 1
ion Cr   0.481763952701134   0.493601675166208   0.490716793802148 1
ion O   0.001045040272030   0.353418939955482   0.358844731819439 1
ion O   0.244985084970960   0.388777425814624   0.109309299326539 1
ion O  -0.007778025034580   0.142327050504807   0.142208536854662 1
ion O   0.245251427697068   0.102659967509690   0.393003248987579 1
ion O  -0.001637550414737   0.353788429529457   0.847672304446024 1
ion O   0.253723979378699   0.394211128717717   0.607321599397359 1
ion O   0.003821902840004   0.151690692527992   0.653055616134635 1
ion O   0.253305586941967   0.096412898418492   0.901521137701210 1
ion O   0.002247072479274   0.854483153007618   0.358037376173560 1
ion O   0.245272308216205   0.901354475677525   0.095860751744173 1
ion O  -0.004989268064546   0.643708534314950   0.135395131109638 1
ion O   0.244325282110029   0.604901068932567   0.392179351284390 1
ion O  -0.013307095438785   0.840476703337964   0.848771497526199 1
ion O   0.252769344537849   0.893431325156566   0.608604996673495 1
ion O  -0.005960278710515   0.648336143664667   0.659086041557127 1
ion O   0.260703660251117   0.601594089588376   0.899004712302396 1
ion O   0.496323108611817   0.346336465891173   0.347092782398038 1
ion O   0.754767185521191   0.403594144369910   0.097766773032879 1
ion O   0.504128240292676   0.150402910601493   0.153284989056494 1
ion O   0.753226896310630   0.098162180143295   0.401661450462886 1
ion O   0.504790180867701   0.359702313131829   0.858706635566927 1
ion O   0.744956427520736   0.399783189669581   0.596732605561462 1
ion O   0.496741939101527   0.144102649951489   0.641283279778823 1
ion O   0.745320656482979   0.105648033330687   0.892176745325817 1
ion O   0.495122228707162   0.846806040703283   0.346630570723215 1
ion O   0.752147513598891   0.893524711065495   0.109046653815205 1
ion O   0.499624754745806   0.648755738014110   0.149540513636189 1
ion O   0.752960941175016   0.596410449859967   0.401118074267918 1
ion O   0.511594189416316   0.849643772576348   0.858735562094361 1
ion O   0.745998962426871   0.903100862904333   0.594675353491832 1
ion O   0.502270420345783   0.642628444026718   0.644936135129477 1

# Forces in Lattice coordinates:
force Cr   0.001105741978384  -0.001198573076309   0.000956635457678 1
force Cr   0.003130217856024   0.001861050319609  -0.005286337601638 1
force Cr   0.000230487679604   0.000606287175532  -0.003566138184145 1
force Cr   0.001861473903521  -0.002491972549611   0.003413476957200 1
force Cr   0.000667958358561   0.000755123251021  -0.005657722162661 1
force Cr  -0.002625980027149  -0.001056559924926  -0.001176259360385 1
force Cr   0.000306430849631  -0.000865556951769  -0.001375729611702 1
force Cr  -0.001741716121040  -0.000426468940303   0.000308072288683 1
force Cr  -0.000038401365014  -0.003090842768109  -0.000311072715950 1
force Cr  -0.000540277210232   0.000443342658122  -0.000957475156730 1
force Cr   0.001091381628750  -0.000591191555784  -0.008067912678830 1
force Cr  -0.000150887572091  -0.004210986970336   0.003075362144013 1
force Cr   0.000446989411609   0.002434754742614  -0.003015091717564 1
force Cr   0.001235671554253   0.002310370774255  -0.001428889479266 1
force Cr   0.001859094835460   0.003311945585473  -0.000164266596032 1
force Cr   0.000603818691034  -0.000041644112657  -0.002953788648884 1
force O  -0.001376261147786  -0.002455688191851  -0.000651372977547 1
force O  -0.000549592860571  -0.001589693825186   0.000628126581815 1
force O   0.001153592592271  -0.000964841172817  -0.001452981467291 1
force O  -0.000047839244121   0.000633932148557  -0.003683137184409 1
force O   0.001194054328962  -0.001652367428036   0.000862833686804 1
force O   0.000118361025289   0.000404118553789  -0.000174177882710 1
force O   0.000423963771249   0.001930731146985  -0.000302416278548 1
force O  -0.000478165349480   0.001305391387407  -0.003102175024620 1
force O   0.002083115148382   0.000131656734005  -0.003926485256847 1
force O   0.001001292108713  -0.001351946070014  -0.002077437020010 1
force O  -0.001004232246484  -0.000802760969142  -0.001949717813430 1
force O  -0.000286842326087   0.002351715388602  -0.006757534525264 1
force O   0.000457856142386  -0.002213026656362   0.000242688001196 1
force O   0.000603195072707   0.000355110670022  -0.003290230532709 1
force O  -0.000783438729527  -0.002414926434418  -0.003165483029682 1
force O  -0.002053721984708  -0.004681874899926  -0.001724809329566 1
force O   0.001351594973852  -0.000888206240404  -0.002487325966090 1
force O  -0.000994531936594   0.001850928770370  -0.005987919007800 1
force O   0.002151456558402   0.001216469776517  -0.001455764288575 1
force O   0.000441924332208   0.000418598037493  -0.002912008597180 1
force O   0.000420694147519   0.001663875106611  -0.003625568550125 1
force O   0.000048886475148  -0.000728628447917  -0.002705365797589 1
force O  -0.000344854924279   0.000272498519430  -0.000038503402325 1
force O  -0.000498817583986   0.002285023291953  -0.005194835140176 1
force O  -0.000196084817538   0.001825426183866  -0.000733915866530 1
force O   0.001947123772540   0.001278621112384  -0.000589168801493 1
force O   0.000452295931326   0.001821771430783  -0.003895473229635 1
force O   0.000202759387688   0.002601576026985  -0.003848348086587 1
force O  -0.001155283555179   0.001602545624595  -0.001862762643896 1
force O   0.001530075040886   0.000295381494417   0.001405128488606 1
force O   0.001343443258882  -0.002285644737347  -0.004783533741657 1

# Energy components:
   Eewald =    -1304.7923115317962584
       EH =      520.2338009091287176
     Eloc =    -1590.7526777508082887
      Enl =      220.7466216920961983
      Exc =     -288.4992282672254191
 Exc_core =       13.8453408247883676
       KE =      539.6297758313086206
-------------------------------------
     Etot =    -1889.5886782925085754
       TS =        0.2931924883272683
-------------------------------------
        F =    -1889.8818707808359250

IonicMinimize: Iter:  21  F: -1889.881870780835925  |grad|_K:  1.219e-04  alpha:  1.000e+00  linmin: -3.934e-01  t[s]:  69414.52

#--- Lowdin population analysis ---
# oxidation-state Cr +1.296 +1.334 +1.328 +1.313 +1.328 +1.253 +1.326 +1.338 +1.332 +1.336 +1.330 +1.313 +1.331 +1.262 +1.313 +1.340
# oxidation-state O -0.606 -0.515 -0.606 -0.570 -0.673 -0.608 -0.654 -0.666 -0.608 -0.652 -0.639 -0.620 -0.682 -0.618 -0.685 -0.635 -0.652 -0.666 -0.653 -0.643 -0.639 -0.648 -0.606 -0.612 -0.654 -0.603 -0.671 -0.657 -0.638 -0.578 -0.636


-------- Electronic minimization -----------
Will mix electronic density at each iteration.
	FillingsUpdate:  mu: +0.427985136  nElectrons: 410.000000
	FillingsUpdate:  mu: +0.427995771  nElectrons: 410.000000
SCF: Cycle:  0   F: -1889.881581540809748   dF: +2.606e-04   |Residual|: 7.270e-03   |deigs|: 3.353e-07  t[s]:  69532.38
	FillingsUpdate:  mu: +0.427981018  nElectrons: 410.000000
SCF: Cycle:  1   F: -1889.868265584052551   dF: +1.332e-02   |Residual|: 5.451e-02   |deigs|: 2.755e-04  t[s]:  69602.97
	FillingsUpdate:  mu: +0.427988595  nElectrons: 410.000000
SCF: Cycle:  2   F: -1889.881863173402280   dF: -1.360e-02   |Residual|: 2.689e-03   |deigs|: 2.635e-04  t[s]:  69672.23
	FillingsUpdate:  mu: +0.427994198  nElectrons: 410.000000
SCF: Cycle:  3   F: -1889.881752327892855   dF: +1.108e-04   |Residual|: 6.269e-03   |deigs|: 2.937e-05  t[s]:  69742.03
	FillingsUpdate:  mu: +0.427995298  nElectrons: 410.000000
SCF: Cycle:  4   F: -1889.881878005458020   dF: -1.257e-04   |Residual|: 1.010e-03   |deigs|: 2.720e-05  t[s]:  69811.48
	FillingsUpdate:  mu: +0.427988472  nElectrons: 410.000000
SCF: Cycle:  5   F: -1889.881865598714739   dF: +1.241e-05   |Residual|: 2.113e-03   |deigs|: 1.389e-05  t[s]:  69880.85
	FillingsUpdate:  mu: +0.427989608  nElectrons: 410.000000
SCF: Cycle:  6   F: -1889.881880073962066   dF: -1.448e-05   |Residual|: 3.762e-04   |deigs|: 1.231e-05  t[s]:  69949.63
	FillingsUpdate:  mu: +0.427995255  nElectrons: 410.000000
SCF: Cycle:  7   F: -1889.881879288210939   dF: +7.858e-07   |Residual|: 5.683e-04   |deigs|: 6.097e-06  t[s]:  70019.53
	FillingsUpdate:  mu: +0.427995145  nElectrons: 410.000000
SCF: Cycle:  8   F: -1889.881880214126568   dF: -9.259e-07   |Residual|: 2.707e-04   |deigs|: 4.865e-06  t[s]:  70089.50
	FillingsUpdate:  mu: +0.427991517  nElectrons: 410.000000
SCF: Cycle:  9   F: -1889.881880417149659   dF: -2.030e-07   |Residual|: 1.176e-04   |deigs|: 3.773e-06  t[s]:  70159.97
	FillingsUpdate:  mu: +0.427992066  nElectrons: 410.000000
SCF: Cycle: 10   F: -1889.881880328169700   dF: +8.898e-08   |Residual|: 1.977e-04   |deigs|: 1.596e-06  t[s]:  70228.86
	FillingsUpdate:  mu: +0.427993011  nElectrons: 410.000000
SCF: Cycle: 11   F: -1889.881880453842086   dF: -1.257e-07   |Residual|: 4.677e-05   |deigs|: 1.367e-06  t[s]:  70300.08
	FillingsUpdate:  mu: +0.427992791  nElectrons: 410.000000
SCF: Cycle: 12   F: -1889.881880379069571   dF: +7.477e-08   |Residual|: 1.488e-04   |deigs|: 1.152e-06  t[s]:  70367.96
	FillingsUpdate:  mu: +0.427992623  nElectrons: 410.000000
SCF: Cycle: 13   F: -1889.881880459532795   dF: -8.046e-08   |Residual|: 1.387e-05   |deigs|: 1.078e-06  t[s]:  70438.69
	FillingsUpdate:  mu: +0.427992654  nElectrons: 410.000000
SCF: Cycle: 14   F: -1889.881880453168151   dF: +6.365e-09   |Residual|: 4.634e-05   |deigs|: 3.031e-07  t[s]:  70505.60
	FillingsUpdate:  mu: +0.427992655  nElectrons: 410.000000
SCF: Cycle: 15   F: -1889.881880459738568   dF: -6.570e-09   |Residual|: 1.233e-05   |deigs|: 2.646e-07  t[s]:  70571.83
	FillingsUpdate:  mu: +0.427992627  nElectrons: 410.000000
SCF: Cycle: 16   F: -1889.881880459104650   dF: +6.339e-10   |Residual|: 1.901e-05   |deigs|: 1.240e-07  t[s]:  70627.65
	FillingsUpdate:  mu: +0.427992634  nElectrons: 410.000000
SCF: Cycle: 17   F: -1889.881880459786089   dF: -6.814e-10   |Residual|: 1.202e-05   |deigs|: 1.055e-07  t[s]:  70683.04
	FillingsUpdate:  mu: +0.427992648  nElectrons: 410.000000
SCF: Cycle: 18   F: -1889.881880460191496   dF: -4.054e-10   |Residual|: 6.446e-06   |deigs|: 8.197e-08  t[s]:  70730.87
SCF: Converged (|Delta E|<1.000000e-08 for 2 iters).

Setting wave functions to eigenvectors of Hamiltonian

# Ionic positions in lattice coordinates:
ion Cr   0.228167790533985   0.242835887282024   0.251753880202414 1
ion Cr  -0.020135494029071  -0.003815257200753  -0.006829503659529 1
ion Cr   0.270817188483671   0.246230149578280   0.754690763130952 1
ion Cr   0.019406996232729   0.003994217407552   0.506918760555618 1
ion Cr   0.229101514616650   0.754655624917566   0.242187859019218 1
ion Cr   0.027143912295882   0.486930089095506  -0.000499595292806 1
ion Cr   0.267436677540348   0.747701966622842   0.754240703000123 1
ion Cr   0.016404229894451   0.501465507234012   0.505635447282146 1
ion Cr   0.766941446381106   0.245327487184010   0.256343324348819 1
ion Cr   0.518693360637960   0.003450826716887   0.008175695061670 1
ion Cr   0.731002821954803   0.254500822009853   0.744002979390216 1
ion Cr   0.480290587068656  -0.003524516486337   0.491017774637390 1
ion Cr   0.768888247729779   0.745070158599697   0.254587963035392 1
ion Cr   0.479974559892959   0.493876785201601   0.018818807588647 1
ion Cr   0.730117163342018   0.765918155801762   0.728626253072167 1
ion Cr   0.481822384024903   0.493652062662309   0.490634236543515 1
ion O   0.000921489474006   0.353376898857463   0.358849973699300 1
ion O   0.244914054870859   0.388831501994986   0.109398304823577 1
ion O  -0.007634684398251   0.142303938823433   0.142236475989094 1
ion O   0.245316318348426   0.102659473935444   0.393036204960881 1
ion O  -0.001595679165107   0.353696361228344   0.847757764331867 1
ion O   0.253724795918978   0.394275890402458   0.607355409248571 1
ion O   0.003836814190304   0.151762194692171   0.653026421003631 1
ion O   0.253216481918326   0.096506499544496   0.901454077470249 1
ion O   0.002411338317564   0.854531388268790   0.357965295437699 1
ion O   0.245434119835577   0.901252555604446   0.095846014274546 1
ion O  -0.005186415474837   0.643696566283698   0.135401631914161 1
ion O   0.244273157219873   0.604903974634645   0.392083162573081 1
ion O  -0.013258310092927   0.840325028364175   0.848924268691399 1
ion O   0.252749648426427   0.893321852561441   0.608626895303166 1
ion O  -0.006027385523456   0.648265538905705   0.659048825713265 1
ion O   0.260432163498191   0.601470947414409   0.898964820326082 1
ion O   0.496415771388060   0.346306230033335   0.347089962039228 1
ion O   0.754636739084913   0.403601129641190   0.097614601867681 1
ion O   0.504230689806597   0.150388850227765   0.153330834036771 1
ion O   0.753258781350132   0.098091003083106   0.401686190417807 1
ion O   0.504841146300062   0.359790507383833   0.858626272766104 1
ion O   0.744920004965346   0.399672886325687   0.596690360039922 1
ion O   0.496633572972789   0.144085986958861   0.641313307677154 1
ion O   0.745270693487896   0.105638703066643   0.892116997108332 1
ion O   0.495145577980385   0.846837541894105   0.346688814260589 1
ion O   0.752327255710992   0.893646197277302   0.109085184367441 1
ion O   0.499628781951498   0.648827527485929   0.149429544519997 1
ion O   0.752884330437516   0.596467725103515   0.401053907887712 1
ion O   0.511470343331421   0.849702590265273   0.858736984330113 1
ion O   0.746143662763596   0.903155181841657   0.594771069322969 1
ion O   0.502371354504013   0.642637361268887   0.644905075681660 1

# Forces in Lattice coordinates:
force Cr   0.001250953696023  -0.001960531393907  -0.000611376444843 1
force Cr  -0.000461807471306  -0.001330256737460  -0.004830215744582 1
force Cr   0.000394444180051   0.001154876125317  -0.000932101748340 1
force Cr   0.000384571241062  -0.004497668124554   0.001640694125996 1
force Cr   0.000463308378031   0.002904693040000  -0.003204354046950 1
force Cr  -0.001178125526194  -0.000557233834532  -0.002958013436942 1
force Cr  -0.000626172026661  -0.001622117647143  -0.000486804074508 1
force Cr   0.000840934691129   0.000737430100791  -0.001826927836630 1
force Cr   0.000515643352684  -0.003125275790002   0.000048119473144 1
force Cr   0.000524656846284   0.000214385565691  -0.002324814137482 1
force Cr   0.000689841723920   0.002722919573261  -0.004094945887843 1
force Cr   0.000641990299305  -0.004335212717481   0.000330876357726 1
force Cr   0.000639823974908   0.002467779784938  -0.001600227836923 1
force Cr  -0.000456395142737   0.000663070651083  -0.004140237805080 1
force Cr   0.001308018670904   0.000031787293967  -0.000191939558894 1
force Cr  -0.000657325694364   0.001390728554539  -0.001773368012560 1
force O  -0.000277138120648  -0.001263330061498   0.000448654934654 1
force O   0.000161609720519  -0.001237395658589  -0.000704060998717 1
force O   0.000405159863618   0.000278727253209  -0.001727247688966 1
force O   0.000324530827776   0.000951091887554  -0.002907113553304 1
force O   0.000564567988635  -0.001376038768706  -0.002011904689528 1
force O  -0.000429217654945   0.002917679980890  -0.004871171928016 1
force O   0.000484260180374  -0.000356350823024  -0.001488372718211 1
force O   0.001029968123616  -0.001093932126168  -0.000304490550689 1
force O   0.000720706106216   0.000032110562414  -0.001554935917686 1
force O   0.000545232576585   0.002738269657153  -0.003606921898623 1
force O   0.000627362378254  -0.000135459138793  -0.002923670186871 1
force O  -0.000071872914423  -0.001739026155526  -0.003086100528048 1
force O  -0.000153788059256  -0.000254467425024  -0.003170294794194 1
force O   0.000491625233089   0.002025010321381  -0.002331312874978 1
force O  -0.000278577931598   0.000090412057364  -0.001622787114952 1
force O  -0.000510378492900  -0.002822649691077  -0.001174428623196 1
force O   0.000621049023171   0.000001907064872  -0.001762907025838 1
force O  -0.000654914256058  -0.000072770608314  -0.001276282525243 1
force O   0.000561394002400   0.000885522599363  -0.002687156354219 1
force O   0.000630902174903   0.000669011960625  -0.001812411690996 1
force O   0.000184907509227   0.000325268770198  -0.003087295548892 1
force O   0.000123964181763   0.002184908327697  -0.003518724474795 1
force O   0.000611212490381  -0.001225464189913  -0.002436967863390 1
force O   0.000557874231301   0.000700225953145  -0.002979092619765 1
force O  -0.000362706031311   0.000495485432697  -0.002278800852053 1
force O   0.000257158100652   0.002185324722771  -0.003406198078355 1
force O   0.000705531757481   0.001751734124585  -0.002871138951999 1
force O   0.000331931386979   0.001637770407452  -0.002737285594367 1
force O  -0.000084988856855  -0.000142309868276  -0.001796816288217 1
force O   0.000757024080974   0.000784583374229  -0.000065163321956 1
force O   0.001070553930760  -0.001635006521959  -0.003659997141531 1

# Energy components:
   Eewald =    -1304.8090887745049713
       EH =      520.2172480719023042
     Eloc =    -1590.7193092433874426
      Enl =      220.7470509693155236
      Exc =     -288.4990880678610665
 Exc_core =       13.8453380957482981
       KE =      539.6292109374290931
-------------------------------------
     Etot =    -1889.5886380113579435
       TS =        0.2932424488335497
-------------------------------------
        F =    -1889.8818804601914962

IonicMinimize: Iter:  22  F: -1889.881880460191496  |grad|_K:  8.258e-05  alpha:  1.000e+00  linmin: -1.773e-01  t[s]:  70748.31
IonicMinimize: Converged (|grad|_K<1.000000e-04).

#--- Lowdin population analysis ---
# oxidation-state Cr +1.296 +1.335 +1.328 +1.313 +1.328 +1.254 +1.326 +1.338 +1.332 +1.336 +1.330 +1.313 +1.331 +1.262 +1.313 +1.340
# oxidation-state O -0.606 -0.515 -0.606 -0.570 -0.673 -0.608 -0.654 -0.666 -0.608 -0.651 -0.639 -0.620 -0.682 -0.618 -0.685 -0.635 -0.652 -0.666 -0.653 -0.643 -0.639 -0.648 -0.606 -0.612 -0.654 -0.603 -0.671 -0.657 -0.638 -0.578 -0.636


Dumping 'CrO2_vac.Ecomponents' ... done
End date and time: Sat Jun  8 07:21:18 2024  (Duration: 0-19:39:20.24)
Done!
