--------------------------------------------------------------------------
[[65414,1],4]: A high-performance Open MPI point-to-point messaging module
was unable to find any relevant network interfaces:

Module: OpenFabrics (openib)
  Host: node3220

Another transport will be used instead, although this may result in
lower performance.
--------------------------------------------------------------------------

*************** JDFTx 1.7.0  ***************

Start date and time: Sun Jan 28 11:44:26 2024
Executable jdftx with command-line: -i /home/cam559/Valla_project/Pt/Pt32O_oct.in
Running on hosts (process indices):  node3220.physics.cornell.edu (0-9)
Divided in process groups (process indices):  0 (0)  1 (1)  2 (2)  3 (3)  4 (4)  5 (5)  6 (6)  7 (7)  8 (8)  9 (9)
Resource initialization completed at t[s]:      0.00
Run totals: 10 processes, 40 threads, 0 GPUs


Input parsed successfully to the following command list (including defaults):

basis kpoint-dependent
coords-type Cartesian
core-overlap-check vector
coulomb-interaction Periodic
davidson-band-ratio 1.1
dump End Ecomponents
dump-name Pt32O_tet.$VAR
elec-cutoff 20 100
elec-eigen-algo Davidson
elec-ex-corr gga-PBE
elec-smearing Fermi 0.004
electronic-minimize  \
	dirUpdateScheme      FletcherReeves \
	linminMethod         DirUpdateRecommended \
	nIterations          100 \
	history              15 \
	knormThreshold       0 \
	energyDiffThreshold  1e-08 \
	nEnergyDiff          2 \
	alphaTstart          1 \
	alphaTmin            1e-10 \
	updateTestStepSize   yes \
	alphaTreduceFactor   0.1 \
	alphaTincreaseFactor 3 \
	nAlphaAdjustMax      3 \
	wolfeEnergy          0.0001 \
	wolfeGradient        0.9 \
	fdTest               no
exchange-regularization WignerSeitzTruncated
fluid None
fluid-ex-corr lda-TF lda-PZ
fluid-gummel-loop 10 1.000000e-05
fluid-minimize  \
	dirUpdateScheme      PolakRibiere \
	linminMethod         DirUpdateRecommended \
	nIterations          100 \
	history              15 \
	knormThreshold       0 \
	energyDiffThreshold  0 \
	nEnergyDiff          2 \
	alphaTstart          1 \
	alphaTmin            1e-10 \
	updateTestStepSize   yes \
	alphaTreduceFactor   0.1 \
	alphaTincreaseFactor 3 \
	nAlphaAdjustMax      3 \
	wolfeEnergy          0.0001 \
	wolfeGradient        0.9 \
	fdTest               no
fluid-solvent H2O 55.338 ScalarEOS \
	epsBulk 78.4 \
	pMol 0.92466 \
	epsInf 1.77 \
	Pvap 1.06736e-10 \
	sigmaBulk 4.62e-05 \
	Rvdw 2.61727 \
	Res 1.42 \
	tauNuc 343133 \
	poleEl 15 7 1
forces-output-coords Positions
initial-state Pt32O_tet.$VAR
ion Pt   0.001000000000000   0.000000000000000   0.000000000000000 1
ion Pt   0.000000000000000   3.716698000000000   3.706698000000000 1
ion Pt   3.706698000000000   0.000000000000000   3.716698000000000 1
ion Pt   3.706698000000000   3.706698000000000   0.000000000000000 1
ion Pt   0.000000000000000   0.000000000000000   7.413396000000001 1
ion Pt   0.000000000000000   3.706698000000000  11.120093000000001 1
ion Pt   3.706698000000000   0.000000000000000  11.120093000000001 1
ion Pt   3.706698000000000   3.706698000000000   7.413396000000001 1
ion Pt   0.000000000000000   7.413396000000001   0.000000000000000 1
ion Pt   0.000000000000000  11.120093000000001   3.706698000000000 1
ion Pt   3.706698000000000   7.413396000000001   3.706698000000000 1
ion Pt   3.706698000000000  11.120093000000001   0.000000000000000 1
ion Pt   0.000000000000000   7.413396000000001   7.413396000000001 1
ion Pt   0.000000000000000  11.120093000000001  11.120093000000001 1
ion Pt   3.706698000000000   7.413396000000001  11.120093000000001 1
ion Pt   3.706698000000000  11.120093000000001   7.413396000000001 1
ion Pt   7.413396000000001   0.000000000000000   0.000000000000000 1
ion Pt   7.413396000000001   3.706698000000000   3.706698000000000 1
ion Pt  11.120093000000001   0.000000000000000   3.706698000000000 1
ion Pt  11.120093000000001   3.706698000000000   0.000000000000000 1
ion Pt   7.413396000000001   0.000000000000000   7.413396000000001 1
ion Pt   7.413396000000001   3.706698000000000  11.120093000000001 1
ion Pt  11.120093000000001   0.000000000000000  11.120093000000001 1
ion Pt  11.120093000000001   3.706698000000000   7.413396000000001 1
ion Pt   7.413396000000001   7.413396000000001   0.000000000000000 1
ion Pt   7.413396000000001  11.120093000000001   3.706698000000000 1
ion Pt  11.120093000000001   7.413396000000001   3.706698000000000 1
ion Pt  11.120093000000001  11.120093000000001   0.000000000000000 1
ion Pt   7.413396000000001   7.413396000000001   7.413396000000001 1
ion Pt   7.413396000000001  11.120093000000001  11.120093000000001 1
ion Pt  11.120093000000001   7.413396000000001  11.120093000000001 1
ion Pt  11.110093000000001  11.120093000000001   7.423396000000000 1
ion O   3.705595000000001   0.000000000000000   0.000000000000000 1
ion-species GBRV/$ID_pbe.uspp
ion-width 0
ionic-minimize  \
	dirUpdateScheme      L-BFGS \
	linminMethod         DirUpdateRecommended \
	nIterations          30 \
	history              15 \
	knormThreshold       0.0001 \
	energyDiffThreshold  1e-06 \
	nEnergyDiff          2 \
	alphaTstart          1 \
	alphaTmin            1e-10 \
	updateTestStepSize   yes \
	alphaTreduceFactor   0.1 \
	alphaTincreaseFactor 3 \
	nAlphaAdjustMax      3 \
	wolfeEnergy          0.0001 \
	wolfeGradient        0.9 \
	fdTest               no
kpoint   0.000000000000   0.000000000000   0.000000000000  1.00000000000000
kpoint-folding 4 4 4 
latt-move-scale 1 1 1
latt-scale 1 1 1 
lattice  \
	  14.826791000000000    0.000000000000000    0.000000000000000  \
	   0.000000000000000   14.826791000000000    0.000000000000000  \
	   0.000000000000000    0.000000000000000   14.826791000000000 
lattice-minimize  \
	dirUpdateScheme      L-BFGS \
	linminMethod         DirUpdateRecommended \
	nIterations          0 \
	history              15 \
	knormThreshold       0 \
	energyDiffThreshold  1e-06 \
	nEnergyDiff          2 \
	alphaTstart          1 \
	alphaTmin            1e-10 \
	updateTestStepSize   yes \
	alphaTreduceFactor   0.1 \
	alphaTincreaseFactor 3 \
	nAlphaAdjustMax      3 \
	wolfeEnergy          0.0001 \
	wolfeGradient        0.9 \
	fdTest               no
lcao-params -1 1e-06 0.004
pcm-variant GLSSA13
spintype no-spin
subspace-rotation-factor 1 yes
symmetries automatic
symmetry-threshold 0.0001



---------- Setting up symmetries ----------

Found 48 point-group symmetries of the bravais lattice
Found 1 space-group symmetries with basis
Applied RMS atom displacement 0 bohrs to make symmetries exact.

---------- Initializing the Grid ----------
R = 
[      14.8268            0            0  ]
[            0      14.8268            0  ]
[            0            0      14.8268  ]
unit cell volume = 3259.43
G =
[   0.423772          0          0  ]
[          0   0.423772          0  ]
[          0          0   0.423772  ]
Minimum fftbox size, Smin = [  68  68  68  ]
Chosen fftbox size, S = [  70  70  70  ]

---------- Initializing tighter grid for wavefunction operations ----------
R = 
[      14.8268            0            0  ]
[            0      14.8268            0  ]
[            0            0      14.8268  ]
unit cell volume = 3259.43
G =
[   0.423772          0          0  ]
[          0   0.423772          0  ]
[          0          0   0.423772  ]
Minimum fftbox size, Smin = [  60  60  60  ]
Chosen fftbox size, S = [  60  60  60  ]

---------- Exchange Correlation functional ----------
Initalized PBE GGA exchange.
Initalized PBE GGA correlation.

---------- Setting up pseudopotentials ----------
Width of ionic core gaussian charges (only for fluid interactions / plotting) set to 0

Reading pseudopotential file '/home/cam559/JDFTx/build/pseudopotentials/GBRV/pt_pbe.uspp':
  Title: Pt.  Created by USPP 7.3.6 on 31-3-15
  Reference state energy: -105.002503.  16 valence electrons in orbitals:
    |510>  occupation: 6  eigenvalue: -2.158104
    |520>  occupation: 9.5  eigenvalue: -0.335376
    |600>  occupation: 0  eigenvalue: -0.319640
    |610>  occupation: 0  eigenvalue: -0.122947
  lMax: 2  lLocal: 3  QijEcut: 5.5
  6 projectors sampled on a log grid with 745 points:
    l: 0  eig: -0.319640  rCut: 2.45
    l: 0  eig: 1.500000  rCut: 2.45
    l: 1  eig: -2.158104  rCut: 1.6
    l: 1  eig: -0.122947  rCut: 1.6
    l: 2  eig: -0.500000  rCut: 1.6
    l: 2  eig: -0.335375  rCut: 1.6
  Partial core density with radius 1.1
  Transforming core density to a uniform radial grid of dG=0.02 with 1290 points.
  Transforming local potential to a uniform radial grid of dG=0.02 with 1290 points.
  Transforming nonlocal projectors to a uniform radial grid of dG=0.02 with 432 points.
  Transforming density augmentations to a uniform radial grid of dG=0.02 with 1290 points.
  Transforming atomic orbitals to a uniform radial grid of dG=0.02 with 432 points.
  Core radius for overlap checks: 2.45 bohrs.

Reading pseudopotential file '/home/cam559/JDFTx/build/pseudopotentials/GBRV/o_pbe.uspp':
  Title: O.  Created by USPP 7.3.6 on 3-2-2014
  Reference state energy: -15.894388.  6 valence electrons in orbitals:
    |200>  occupation: 2  eigenvalue: -0.878823
    |210>  occupation: 4  eigenvalue: -0.332131
  lMax: 2  lLocal: 2  QijEcut: 6
  5 projectors sampled on a log grid with 511 points:
    l: 0  eig: -0.878823  rCut: 1.25
    l: 0  eig: 0.000000  rCut: 1.25
    l: 1  eig: -0.332132  rCut: 1.25
    l: 1  eig: 0.000000  rCut: 1.25
    l: 2  eig: 1.000000  rCut: 1.25
  Partial core density with radius 0.7
  Transforming core density to a uniform radial grid of dG=0.02 with 1290 points.
  Transforming local potential to a uniform radial grid of dG=0.02 with 1290 points.
  Transforming nonlocal projectors to a uniform radial grid of dG=0.02 with 432 points.
  Transforming density augmentations to a uniform radial grid of dG=0.02 with 1290 points.
  Transforming atomic orbitals to a uniform radial grid of dG=0.02 with 432 points.
  Core radius for overlap checks: 1.25 bohrs.

Initialized 2 species with 33 total atoms.

Folded 1 k-points by 4x4x4 to 64 k-points.

---------- Setting up k-points, bands, fillings ----------
Adding inversion symmetry to k-mesh for non-inversion-symmetric unit cell.
Reduced to 36 k-points under symmetry. 
Computing the number of bands and number of electrons
Calculating initial fillings.
nElectrons: 518.000000   nBands: 388   nStates: 36

----- Setting up reduced wavefunction bases (one per k-point) -----
average nbasis = 13926.797 , ideal nbasis = 13924.528

---------- Setting up ewald sum ----------
Optimum gaussian width for ewald sums = 3.302719 bohr.
Real space sum over 729 unit cells with max indices [  4  4  4  ]
Reciprocal space sum over 4913 terms with max indices [  8  8  8  ]

---------- Allocating electronic variables ----------
Initializing wave functions:  linear combination of atomic orbitals
Pt pseudo-atom occupations:   s ( 0 )  p ( 6 0 )  d ( 10 )
O pseudo-atom occupations:   s ( 2 )  p ( 4 )
	FillingsUpdate:  mu: +0.787230783  nElectrons: 518.000000
LCAOMinimize: Iter:   0  F: -2860.3328783911115352  |grad|_K:  1.060e-03  alpha:  1.000e+00
	FillingsUpdate:  mu: +0.818180757  nElectrons: 518.000000
LCAOMinimize: Iter:   1  F: -2861.4767601282110263  |grad|_K:  6.911e-04  alpha:  3.379e-01  linmin:  1.495e-02  cgtest:  7.103e-02  t[s]:    577.64
	FillingsUpdate:  mu: +0.840534724  nElectrons: 518.000000
LCAOMinimize: Iter:   2  F: -2861.7657159216441869  |grad|_K:  5.276e-04  alpha:  2.297e-01  linmin:  7.823e-05  cgtest: -8.144e-03  t[s]:    816.17
	FillingsUpdate:  mu: +0.841612255  nElectrons: 518.000000
LCAOMinimize: Iter:   3  F: -2861.8693879656048011  |grad|_K:  3.111e-04  alpha:  1.359e-01  linmin: -5.817e-04  cgtest:  3.439e-02  t[s]:   1073.13
	FillingsUpdate:  mu: +0.839426522  nElectrons: 518.000000
LCAOMinimize: Iter:   4  F: -2861.8872128311659253  |grad|_K:  5.118e-05  alpha:  6.592e-02  linmin: -1.315e-02  cgtest:  6.288e-02  t[s]:   1321.96
	FillingsUpdate:  mu: +0.839289265  nElectrons: 518.000000
LCAOMinimize: Iter:   5  F: -2861.8881947824693270  |grad|_K:  2.273e-05  alpha:  1.364e-01  linmin: -1.126e-03  cgtest: -1.122e-02  t[s]:   1566.89
	FillingsUpdate:  mu: +0.839256256  nElectrons: 518.000000
LCAOMinimize: Iter:   6  F: -2861.8883101059036562  |grad|_K:  1.434e-05  alpha:  8.177e-02  linmin: -4.583e-05  cgtest: -2.663e-03  t[s]:   1822.04
LCAOMinimize: 	Predicted alpha/alphaT>3.000000, increasing alphaT to 2.453062e-01.
	FillingsUpdate:  mu: +0.839184239  nElectrons: 518.000000
LCAOMinimize: Iter:   7  F: -2861.8884738834326527  |grad|_K:  6.452e-06  alpha:  2.926e-01  linmin:  3.481e-04  cgtest:  9.629e-03  t[s]:   2140.28
	FillingsUpdate:  mu: +0.839151059  nElectrons: 518.000000
LCAOMinimize: Iter:   8  F: -2861.8884900195730552  |grad|_K:  5.145e-06  alpha:  1.425e-01  linmin:  1.502e-05  cgtest:  6.353e-04  t[s]:   2384.97
	FillingsUpdate:  mu: +0.839137853  nElectrons: 518.000000
LCAOMinimize: Iter:   9  F: -2861.8884967034068723  |grad|_K:  2.173e-06  alpha:  9.269e-02  linmin: -5.758e-06  cgtest: -1.323e-03  t[s]:   2621.36
	FillingsUpdate:  mu: +0.839139278  nElectrons: 518.000000
LCAOMinimize: Iter:  10  F: -2861.8884983922375795  |grad|_K:  1.175e-06  alpha:  1.313e-01  linmin:  4.496e-05  cgtest:  2.194e-04  t[s]:   2851.44
	FillingsUpdate:  mu: +0.839136090  nElectrons: 518.000000
LCAOMinimize: Iter:  11  F: -2861.8884998265893955  |grad|_K:  1.266e-06  alpha:  3.818e-01  linmin:  7.150e-05  cgtest: -4.249e-04  t[s]:   3086.58
	FillingsUpdate:  mu: +0.839134941  nElectrons: 518.000000
LCAOMinimize: Iter:  12  F: -2861.8885001103540162  |grad|_K:  2.887e-07  alpha:  6.496e-02  linmin: -4.045e-04  cgtest:  5.842e-03  t[s]:   3318.73
LCAOMinimize: 	Predicted alpha/alphaT>3.000000, increasing alphaT to 1.948927e-01.
	FillingsUpdate:  mu: +0.839137298  nElectrons: 518.000000
LCAOMinimize: Iter:  13  F: -2861.8885001957037275  |grad|_K:  3.066e-07  alpha:  3.772e-01  linmin:  1.034e-03  cgtest: -8.321e-03  t[s]:   3615.24
LCAOMinimize: Converged (|Delta F|<1.000000e-06 for 2 iters).


---- Citations for features of the code used in this run ----

   Software package:
      R. Sundararaman, K. Letchworth-Weaver, K.A. Schwarz, D. Gunceler, Y. Ozhabes and T.A. Arias, 'JDFTx: software for joint density-functional theory', SoftwareX 6, 278 (2017)

   gga-PBE exchange-correlation functional:
      J.P. Perdew, K. Burke and M. Ernzerhof, Phys. Rev. Lett. 77, 3865 (1996)

   Pseudopotentials:
      KF Garrity, JW Bennett, KM Rabe and D Vanderbilt, Comput. Mater. Sci. 81, 446 (2014)

   Total energy minimization with Auxiliary Hamiltonian:
      C. Freysoldt, S. Boeck, and J. Neugebauer, Phys. Rev. B 79, 241103(R) (2009)

This list may not be complete. Please suggest additional citations or
report any other bugs at https://github.com/shankar1729/jdftx/issues

Initialization completed successfully at t[s]:   3793.43


-------- Electronic minimization -----------
	FillingsUpdate:  mu: +0.839137298  nElectrons: 518.000000
ElecMinimize: Iter:   0  F: -2861.888500195703273  |grad|_K:  6.809e-05  alpha:  1.000e+00
	FillingsUpdate:  mu: +0.848461304  nElectrons: 518.000000
	SubspaceRotationAdjust: set factor to 1
ElecMinimize: Iter:   1  F: -2862.281817602486626  |grad|_K:  3.294e-05  alpha:  4.312e-01  linmin:  8.832e-05  t[s]:   5300.04
	FillingsUpdate:  mu: +0.843446969  nElectrons: 518.000000
	SubspaceRotationAdjust: set factor to 0.62
ElecMinimize: Iter:   2  F: -2862.354755566475887  |grad|_K:  3.289e-05  alpha:  3.421e-01  linmin:  3.928e-05  t[s]:   6372.94
	FillingsUpdate:  mu: +0.840085379  nElectrons: 518.000000
	SubspaceRotationAdjust: set factor to 0.358
ElecMinimize: Iter:   3  F: -2862.369369429771723  |grad|_K:  1.422e-05  alpha:  6.862e-02  linmin: -2.651e-05  t[s]:   7445.78
ElecMinimize: 	Predicted alpha/alphaT>3.000000, increasing alphaT to 2.058595e-01.
	FillingsUpdate:  mu: +0.839087225  nElectrons: 518.000000
	SubspaceRotationAdjust: set factor to 0.306
ElecMinimize: Iter:   4  F: -2862.381102342762460  |grad|_K:  9.128e-06  alpha:  2.933e-01  linmin:  3.689e-05  t[s]:   8776.10
	FillingsUpdate:  mu: +0.838807844  nElectrons: 518.000000
	SubspaceRotationAdjust: set factor to 0.267
ElecMinimize: Iter:   5  F: -2862.384456514361773  |grad|_K:  5.991e-06  alpha:  2.052e-01  linmin:  6.036e-06  t[s]:   9851.93
	FillingsUpdate:  mu: +0.838686042  nElectrons: 518.000000
	SubspaceRotationAdjust: set factor to 0.335
ElecMinimize: Iter:   6  F: -2862.386530798959029  |grad|_K:  3.583e-06  alpha:  2.936e-01  linmin:  2.129e-05  t[s]:  10929.13
	FillingsUpdate:  mu: +0.838727394  nElectrons: 518.000000
	SubspaceRotationAdjust: set factor to 0.328
ElecMinimize: Iter:   7  F: -2862.387225942892655  |grad|_K:  2.871e-06  alpha:  2.757e-01  linmin:  1.337e-05  t[s]:  12007.86
	FillingsUpdate:  mu: +0.838845467  nElectrons: 518.000000
	SubspaceRotationAdjust: set factor to 0.399
ElecMinimize: Iter:   8  F: -2862.387660937329656  |grad|_K:  1.802e-06  alpha:  2.686e-01  linmin:  9.256e-06  t[s]:  13073.34
	FillingsUpdate:  mu: +0.839033477  nElectrons: 518.000000
	SubspaceRotationAdjust: set factor to 0.346
ElecMinimize: Iter:   9  F: -2862.387871630262907  |grad|_K:  1.667e-06  alpha:  3.299e-01  linmin:  2.870e-06  t[s]:  14154.90
	FillingsUpdate:  mu: +0.839124891  nElectrons: 518.000000
	SubspaceRotationAdjust: set factor to 0.309
ElecMinimize: Iter:  10  F: -2862.387996248515719  |grad|_K:  1.274e-06  alpha:  2.276e-01  linmin: -5.022e-07  t[s]:  15212.18
	FillingsUpdate:  mu: +0.839127006  nElectrons: 518.000000
	SubspaceRotationAdjust: set factor to 0.424
ElecMinimize: Iter:  11  F: -2862.388113092241838  |grad|_K:  1.004e-06  alpha:  3.650e-01  linmin: -1.446e-06  t[s]:  16274.32
	FillingsUpdate:  mu: +0.839143083  nElectrons: 518.000000
	SubspaceRotationAdjust: set factor to 0.327
ElecMinimize: Iter:  12  F: -2862.388159408794763  |grad|_K:  7.289e-07  alpha:  2.329e-01  linmin: -1.625e-06  t[s]:  17327.08
	FillingsUpdate:  mu: +0.839185436  nElectrons: 518.000000
	SubspaceRotationAdjust: set factor to 0.373
ElecMinimize: Iter:  13  F: -2862.388188851376071  |grad|_K:  3.950e-07  alpha:  2.805e-01  linmin: -1.952e-06  t[s]:  18385.89
	FillingsUpdate:  mu: +0.839183217  nElectrons: 518.000000
	SubspaceRotationAdjust: set factor to 0.346
ElecMinimize: Iter:  14  F: -2862.388199449123476  |grad|_K:  2.961e-07  alpha:  3.436e-01  linmin: -1.239e-06  t[s]:  19447.62
	FillingsUpdate:  mu: +0.839174447  nElectrons: 518.000000
	SubspaceRotationAdjust: set factor to 0.25
ElecMinimize: Iter:  15  F: -2862.388203097792484  |grad|_K:  1.673e-07  alpha:  2.109e-01  linmin:  2.697e-07  t[s]:  20509.31
	FillingsUpdate:  mu: +0.839172604  nElectrons: 518.000000
	SubspaceRotationAdjust: set factor to 0.288
ElecMinimize: Iter:  16  F: -2862.388204789967403  |grad|_K:  9.736e-08  alpha:  3.066e-01  linmin:  4.032e-07  t[s]:  21572.84
	FillingsUpdate:  mu: +0.839174884  nElectrons: 518.000000
	SubspaceRotationAdjust: set factor to 0.306
ElecMinimize: Iter:  17  F: -2862.388205393301632  |grad|_K:  6.568e-08  alpha:  3.230e-01  linmin:  7.405e-07  t[s]:  22620.99
	FillingsUpdate:  mu: +0.839172136  nElectrons: 518.000000
	SubspaceRotationAdjust: set factor to 0.311
ElecMinimize: Iter:  18  F: -2862.388205655380261  |grad|_K:  4.716e-08  alpha:  3.088e-01  linmin:  6.354e-07  t[s]:  23667.42
	FillingsUpdate:  mu: +0.839166850  nElectrons: 518.000000
	SubspaceRotationAdjust: set factor to 0.429
ElecMinimize: Iter:  19  F: -2862.388205818113420  |grad|_K:  3.410e-08  alpha:  3.716e-01  linmin:  5.631e-07  t[s]:  24726.74
	FillingsUpdate:  mu: +0.839164324  nElectrons: 518.000000
	SubspaceRotationAdjust: set factor to 0.458
ElecMinimize: Iter:  20  F: -2862.388205912642661  |grad|_K:  3.188e-08  alpha:  4.126e-01  linmin: -2.563e-07  t[s]:  25782.83
	FillingsUpdate:  mu: +0.839162485  nElectrons: 518.000000
	SubspaceRotationAdjust: set factor to 0.389
ElecMinimize: Iter:  21  F: -2862.388205960540745  |grad|_K:  2.423e-08  alpha:  2.396e-01  linmin: -6.356e-08  t[s]:  26826.44
	FillingsUpdate:  mu: +0.839160193  nElectrons: 518.000000
	SubspaceRotationAdjust: set factor to 0.384
ElecMinimize: Iter:  22  F: -2862.388205996815032  |grad|_K:  1.663e-08  alpha:  3.139e-01  linmin:  3.457e-07  t[s]:  27862.84
	FillingsUpdate:  mu: +0.839158888  nElectrons: 518.000000
	SubspaceRotationAdjust: set factor to 0.401
ElecMinimize: Iter:  23  F: -2862.388206014791649  |grad|_K:  1.060e-08  alpha:  3.351e-01  linmin: -1.638e-07  t[s]:  28915.00
	FillingsUpdate:  mu: +0.839158992  nElectrons: 518.000000
	SubspaceRotationAdjust: set factor to 0.418
ElecMinimize: Iter:  24  F: -2862.388206022480972  |grad|_K:  7.684e-09  alpha:  3.461e-01  linmin: -7.224e-07  t[s]:  29970.90
	FillingsUpdate:  mu: +0.839159127  nElectrons: 518.000000
	SubspaceRotationAdjust: set factor to 0.354
ElecMinimize: Iter:  25  F: -2862.388206025703312  |grad|_K:  5.667e-09  alpha:  2.576e-01  linmin:  3.930e-08  t[s]:  31021.32
ElecMinimize: Converged (|Delta F|<1.000000e-08 for 2 iters).
Setting wave functions to eigenvectors of Hamiltonian

# Ionic positions in cartesian coordinates:
ion Pt   0.001000000000000   0.000000000000000   0.000000000000000 1
ion Pt   0.000000000000000   3.716698000000000   3.706698000000000 1
ion Pt   3.706698000000000   0.000000000000000   3.716698000000000 1
ion Pt   3.706698000000000   3.706698000000000   0.000000000000000 1
ion Pt   0.000000000000000   0.000000000000000   7.413396000000001 1
ion Pt   0.000000000000000   3.706698000000000  11.120093000000001 1
ion Pt   3.706698000000000   0.000000000000000  11.120093000000001 1
ion Pt   3.706698000000000   3.706698000000000   7.413396000000001 1
ion Pt   0.000000000000000   7.413396000000001   0.000000000000000 1
ion Pt   0.000000000000000  11.120093000000001   3.706698000000000 1
ion Pt   3.706698000000000   7.413396000000001   3.706698000000000 1
ion Pt   3.706698000000000  11.120093000000001   0.000000000000000 1
ion Pt   0.000000000000000   7.413396000000001   7.413396000000001 1
ion Pt   0.000000000000000  11.120093000000001  11.120093000000001 1
ion Pt   3.706698000000000   7.413396000000001  11.120093000000001 1
ion Pt   3.706698000000000  11.120093000000001   7.413396000000001 1
ion Pt   7.413396000000001   0.000000000000000   0.000000000000000 1
ion Pt   7.413396000000001   3.706698000000000   3.706698000000000 1
ion Pt  11.120093000000001   0.000000000000000   3.706698000000000 1
ion Pt  11.120093000000001   3.706698000000000   0.000000000000000 1
ion Pt   7.413396000000001   0.000000000000000   7.413396000000001 1
ion Pt   7.413396000000001   3.706698000000000  11.120093000000001 1
ion Pt  11.120093000000001   0.000000000000000  11.120093000000001 1
ion Pt  11.120093000000001   3.706698000000000   7.413396000000001 1
ion Pt   7.413396000000001   7.413396000000001   0.000000000000000 1
ion Pt   7.413396000000001  11.120093000000001   3.706698000000000 1
ion Pt  11.120093000000001   7.413396000000001   3.706698000000000 1
ion Pt  11.120093000000001  11.120093000000001   0.000000000000000 1
ion Pt   7.413396000000001   7.413396000000001   7.413396000000001 1
ion Pt   7.413396000000001  11.120093000000001  11.120093000000001 1
ion Pt  11.120093000000001   7.413396000000001  11.120093000000001 1
ion Pt  11.110093000000001  11.120093000000001   7.423396000000000 1
ion O   3.705595000000001   0.000000000000000   0.000000000000000 1

# Forces in Cartesian coordinates:
force Pt  -0.097125629388410   0.000190739353228   0.000461617461588 1
force Pt  -0.003136402405032   0.001887039024524   0.003092015832073 1
force Pt  -0.000183936144719   0.000191924202925   0.094429096735287 1
force Pt   0.000030166581903   0.096695811250965   0.000252058364504 1
force Pt  -0.002109972316336  -0.000032400221920  -0.000059535601436 1
force Pt  -0.003161892265012   0.003144954347164  -0.003155575254662 1
force Pt   0.000033247387016   0.000003302622398  -0.096828357008393 1
force Pt   0.000058709492074   0.001893021387357   0.000166002031044 1
force Pt  -0.001710375380789   0.000190950260803  -0.000186336824250 1
force Pt  -0.003508998661558  -0.003057673976473   0.003464051089255 1
force Pt   0.000185219752130   0.000189936517630   0.001721822010168 1
force Pt   0.000133932708732  -0.096756403233914   0.000155213413564 1
force Pt   0.000300328822504   0.000384478188897   0.000170668239857 1
force Pt  -0.003140586107146  -0.003232005458763  -0.003170466412495 1
force Pt  -0.000010477506902  -0.000010015446955  -0.001765230896605 1
force Pt  -0.000070212539105  -0.001911813427938   0.000164956496044 1
force Pt   0.096674604031218   0.000003474853550   0.000260542898974 1
force Pt   0.003131961359488   0.003106161487945   0.003074052190906 1
force Pt   0.000253282636409  -0.000032126908525   0.001868671231845 1
force Pt   0.000028327102740   0.001642759507220  -0.000059698030239 1
force Pt   0.001733869201395   0.000211755669947   0.000137284456767 1
force Pt   0.003149026654365   0.003156614457209  -0.003129477826307 1
force Pt   0.000057767222595   0.000211248908049  -0.001566310422759 1
force Pt   0.000023018718940  -0.000521587368462  -0.000020032681695 1
force Pt   0.001682614676520  -0.000009718953109   0.000009770398886 1
force Pt   0.003146612871360  -0.003189045520809   0.003052645717308 1
force Pt  -0.000167724146797   0.000384105667276  -0.000305126178050 1
force Pt   0.000028163744720  -0.001661597509186   0.000066323442578 1
force Pt  -0.000655958180366  -0.000206480711548  -0.000028716075600 1
force Pt   0.002771688408832  -0.003157312993466  -0.002752182460332 1
force Pt   0.000031521031891  -0.000206252506834   0.000663788435536 1
force Pt   0.001272504457185   0.000499070780290  -0.001307138785426 1
force O   0.000241867728525   0.000008307712507   0.001099128526156 1

# Energy components:
   Eewald =    -2550.8196379070595867
       EH =      398.3984240585310204
     Eloc =    -1211.8590851258181829
      Enl =      -31.5801171979670698
      Exc =     -915.0581344926233669
 Exc_core =      524.5892736977220920
       KE =      924.0117092127075011
-------------------------------------
     Etot =    -2862.3175677545077633
       TS =        0.0706382711953956
-------------------------------------
        F =    -2862.3882060257033118

IonicMinimize: Iter:   0  F: -2862.388206025703312  |grad|_K:  2.380e-02  t[s]:  31163.59

#--- Lowdin population analysis ---
# oxidation-state Pt +0.059 -0.008 +0.057 +0.059 +0.002 -0.008 +0.059 +0.002 +0.002 -0.008 +0.002 +0.059 +0.006 -0.008 +0.002 +0.002 +0.058 -0.008 +0.002 +0.002 +0.002 -0.008 +0.002 +0.006 +0.002 -0.008 +0.006 +0.002 +0.006 -0.008 +0.006 +0.006
# oxidation-state O -0.046


-------- Electronic minimization -----------
	FillingsUpdate:  mu: +0.885470050  nElectrons: 518.000000
ElecMinimize: Iter:   0  F: -2860.036482690320099  |grad|_K:  1.956e-04  alpha:  1.000e+00
	FillingsUpdate:  mu: +0.875690492  nElectrons: 518.000000
	SubspaceRotationAdjust: set factor to 0.224
ElecMinimize: Iter:   1  F: -2861.880608589747681  |grad|_K:  1.064e-04  alpha:  2.702e-01  linmin:  1.257e-02  t[s]:  32913.28
	FillingsUpdate:  mu: +0.842993782  nElectrons: 518.000000
	SubspaceRotationAdjust: set factor to 0.262
ElecMinimize: Iter:   2  F: -2862.232694751294730  |grad|_K:  3.736e-05  alpha:  1.743e-01  linmin:  9.479e-06  t[s]:  33972.42
	FillingsUpdate:  mu: +0.840285695  nElectrons: 518.000000
	SubspaceRotationAdjust: set factor to 0.234
ElecMinimize: Iter:   3  F: -2862.327254469098989  |grad|_K:  2.077e-05  alpha:  3.441e-01  linmin:  2.302e-04  t[s]:  35035.15
	FillingsUpdate:  mu: +0.840181039  nElectrons: 518.000000
	SubspaceRotationAdjust: set factor to 0.2
ElecMinimize: Iter:   4  F: -2862.355956522828365  |grad|_K:  1.755e-05  alpha:  3.385e-01  linmin:  7.140e-05  t[s]:  36090.19
	FillingsUpdate:  mu: +0.839279805  nElectrons: 518.000000
	SubspaceRotationAdjust: set factor to 0.269
ElecMinimize: Iter:   5  F: -2862.388352446928820  |grad|_K:  1.663e-05  alpha:  5.320e-01  linmin: -1.049e-04  t[s]:  37149.37
	FillingsUpdate:  mu: +0.839445950  nElectrons: 518.000000
	SubspaceRotationAdjust: set factor to 0.271
ElecMinimize: Iter:   6  F: -2862.414396037341703  |grad|_K:  1.276e-05  alpha:  4.743e-01  linmin: -1.876e-04  t[s]:  38191.31
	FillingsUpdate:  mu: +0.839131509  nElectrons: 518.000000
	SubspaceRotationAdjust: set factor to 0.216
ElecMinimize: Iter:   7  F: -2862.424376669752746  |grad|_K:  8.583e-06  alpha:  3.018e-01  linmin: -2.708e-05  t[s]:  39231.17
	FillingsUpdate:  mu: +0.838957299  nElectrons: 518.000000
	SubspaceRotationAdjust: set factor to 0.264
ElecMinimize: Iter:   8  F: -2862.429989495059090  |grad|_K:  5.134e-06  alpha:  3.847e-01  linmin: -8.760e-05  t[s]:  40282.06
	FillingsUpdate:  mu: +0.839019470  nElectrons: 518.000000
	SubspaceRotationAdjust: set factor to 0.274
ElecMinimize: Iter:   9  F: -2862.432031699861000  |grad|_K:  3.340e-06  alpha:  3.903e-01  linmin: -2.505e-05  t[s]:  41325.90
	FillingsUpdate:  mu: +0.839024845  nElectrons: 518.000000
	SubspaceRotationAdjust: set factor to 0.21
ElecMinimize: Iter:  10  F: -2862.432660521115395  |grad|_K:  1.969e-06  alpha:  2.851e-01  linmin:  9.823e-06  t[s]:  42366.87
	FillingsUpdate:  mu: +0.839021027  nElectrons: 518.000000
	SubspaceRotationAdjust: set factor to 0.283
ElecMinimize: Iter:  11  F: -2862.432933690900882  |grad|_K:  1.113e-06  alpha:  3.574e-01  linmin:  1.213e-06  t[s]:  43401.67
	FillingsUpdate:  mu: +0.839018841  nElectrons: 518.000000
	SubspaceRotationAdjust: set factor to 0.337
ElecMinimize: Iter:  12  F: -2862.433036729520154  |grad|_K:  7.935e-07  alpha:  4.215e-01  linmin:  3.703e-06  t[s]:  44443.76
	FillingsUpdate:  mu: +0.839025937  nElectrons: 518.000000
	SubspaceRotationAdjust: set factor to 0.327
ElecMinimize: Iter:  13  F: -2862.433085170647246  |grad|_K:  7.008e-07  alpha:  3.902e-01  linmin:  1.592e-06  t[s]:  45483.92
	FillingsUpdate:  mu: +0.839036103  nElectrons: 518.000000
	SubspaceRotationAdjust: set factor to 0.304
ElecMinimize: Iter:  14  F: -2862.433117548653172  |grad|_K:  4.902e-07  alpha:  3.344e-01  linmin:  8.004e-07  t[s]:  46525.79
	FillingsUpdate:  mu: +0.839037161  nElectrons: 518.000000
	SubspaceRotationAdjust: set factor to 0.348
ElecMinimize: Iter:  15  F: -2862.433138587206031  |grad|_K:  3.308e-07  alpha:  4.440e-01  linmin: -2.469e-07  t[s]:  47569.39
	FillingsUpdate:  mu: +0.839041008  nElectrons: 518.000000
	SubspaceRotationAdjust: set factor to 0.41
ElecMinimize: Iter:  16  F: -2862.433148061618795  |grad|_K:  1.944e-07  alpha:  4.391e-01  linmin: -9.228e-07  t[s]:  48603.52
	FillingsUpdate:  mu: +0.839044000  nElectrons: 518.000000
	SubspaceRotationAdjust: set factor to 0.371
ElecMinimize: Iter:  17  F: -2862.433150802194177  |grad|_K:  1.395e-07  alpha:  3.678e-01  linmin: -5.561e-07  t[s]:  49648.43
	FillingsUpdate:  mu: +0.839042813  nElectrons: 518.000000
	SubspaceRotationAdjust: set factor to 0.258
ElecMinimize: Iter:  18  F: -2862.433151675609679  |grad|_K:  9.333e-08  alpha:  2.276e-01  linmin: -5.226e-08  t[s]:  50696.05
	FillingsUpdate:  mu: +0.839041432  nElectrons: 518.000000
	SubspaceRotationAdjust: set factor to 0.281
ElecMinimize: Iter:  19  F: -2862.433152221261025  |grad|_K:  5.053e-08  alpha:  3.176e-01  linmin:  3.004e-07  t[s]:  51734.90
	FillingsUpdate:  mu: +0.839041668  nElectrons: 518.000000
	SubspaceRotationAdjust: set factor to 0.361
ElecMinimize: Iter:  20  F: -2862.433152410918865  |grad|_K:  3.088e-08  alpha:  3.769e-01  linmin: -3.185e-07  t[s]:  52778.15
	FillingsUpdate:  mu: +0.839041524  nElectrons: 518.000000
	SubspaceRotationAdjust: set factor to 0.334
ElecMinimize: Iter:  21  F: -2862.433152482668902  |grad|_K:  2.536e-08  alpha:  3.810e-01  linmin: -7.315e-07  t[s]:  53817.41
	FillingsUpdate:  mu: +0.839041133  nElectrons: 518.000000
	SubspaceRotationAdjust: set factor to 0.309
ElecMinimize: Iter:  22  F: -2862.433152521492048  |grad|_K:  1.885e-08  alpha:  3.043e-01  linmin: -1.445e-09  t[s]:  54858.68
	FillingsUpdate:  mu: +0.839040687  nElectrons: 518.000000
	SubspaceRotationAdjust: set factor to 0.353
ElecMinimize: Iter:  23  F: -2862.433152549368515  |grad|_K:  1.196e-08  alpha:  3.978e-01  linmin: -5.348e-07  t[s]:  55903.93
	FillingsUpdate:  mu: +0.839040664  nElectrons: 518.000000
	SubspaceRotationAdjust: set factor to 0.35
ElecMinimize: Iter:  24  F: -2862.433152561117822  |grad|_K:  8.519e-09  alpha:  4.173e-01  linmin:  2.309e-06  t[s]:  56955.54
	FillingsUpdate:  mu: +0.839040539  nElectrons: 518.000000
	SubspaceRotationAdjust: set factor to 0.284
ElecMinimize: Iter:  25  F: -2862.433152565626187  |grad|_K:  5.887e-09  alpha:  3.146e-01  linmin: -1.682e-06  t[s]:  57983.90
	FillingsUpdate:  mu: +0.839040454  nElectrons: 518.000000
	SubspaceRotationAdjust: set factor to 0.236
ElecMinimize: Iter:  26  F: -2862.433152567296020  |grad|_K:  3.227e-09  alpha:  2.747e-01  linmin: -3.925e-06  t[s]:  59029.41
ElecMinimize: Converged (|Delta F|<1.000000e-08 for 2 iters).
Setting wave functions to eigenvectors of Hamiltonian

# Ionic positions in cartesian coordinates:
ion Pt  -0.096125213314118   0.000190399293774   0.000462359142979 1
ion Pt  -0.003135986330740   3.718584698965070   3.709790757513464 1
ion Pt   3.706514479929574   0.000191584143471   3.811127838416678 1
ion Pt   3.706728582656195   3.803393471191511   0.000252800045895 1
ion Pt  -0.002109556242044  -0.000032740281374   7.413337206079956 1
ion Pt  -0.003161476190721   3.709842614287710  11.116938166426731 1
ion Pt   3.706731663461308   0.000002962562944  11.023265384673000 1
ion Pt   3.706757125566366   3.708590681327903   7.413562743712435 1
ion Pt  -0.001709959306497   7.413586610201349  -0.000185595142859 1
ion Pt  -0.003508582587266  11.117034985964073   3.710162792770646 1
ion Pt   3.706883635826422   7.413585596458176   3.708420563691559 1
ion Pt   3.706832348783024  11.023336256706633   0.000155955094955 1
ion Pt   0.000300744896796   7.413780138129443   7.413567409921248 1
ion Pt  -0.003140170032854  11.116860654481783  11.116923275268897 1
ion Pt   3.706687938567390   7.413385644493592  11.118328510784787 1
ion Pt   3.706628203535187  11.118180846512610   7.413561698177436 1
ion Pt   7.510071020105509   0.000003134794096   0.000261284580365 1
ion Pt   7.416528377433781   3.709803821428491   3.709772793872297 1
ion Pt  11.120346698710703  -0.000032466967979   3.708567412913236 1
ion Pt  11.120121743177034   3.708340419447766  -0.000058956348847 1
ion Pt   7.415130285275687   0.000211415610493   7.413534026138159 1
ion Pt   7.416545442728657   3.709854274397755  11.116964263855087 1
ion Pt  11.120151183296887   0.000210908848595  11.118527431258633 1
ion Pt  11.120116434793234   3.706176072572084   7.413376708999697 1
ion Pt   7.415079030750812   7.413385940987437   0.000010512080277 1
ion Pt   7.416543028945652  11.116903614419739   3.709751387398700 1
ion Pt  11.119925691927495   7.413779765607822   3.706393615503342 1
ion Pt  11.120121579819013  11.118431062431362   0.000067065123969 1
ion Pt   7.412740457893926   7.413189179228999   7.413368025605791 1
ion Pt   7.416168104483124  11.116935346947081  11.117341559221060 1
ion Pt  11.120124937106185   7.413189407433713  11.120757530116927 1
ion Pt  11.111365920531478  11.120591730720838   7.422089602895965 1
ion O   3.705837283802818   0.000007967653053   0.001099870207547 1

# Forces in Cartesian coordinates:
force Pt  -0.059592201712549   0.000127523474127   0.000258592978042 1
force Pt  -0.001419225227934   0.000385170319810   0.001419114777088 1
force Pt  -0.000160593778510   0.000127436238685   0.058095155330529 1
force Pt   0.000003686806594   0.059442796678658   0.000086959816595 1
force Pt  -0.006499251052377  -0.000015665907580  -0.000029779812687 1
force Pt  -0.001387815733826   0.001397888166680  -0.001416050713715 1
force Pt  -0.000024754095239   0.000007239167119  -0.059356959684755 1
force Pt   0.000014077485728   0.006362244302589   0.000118508404457 1
force Pt  -0.006210116397388   0.000149299173326  -0.000112928686660 1
force Pt  -0.001661540043909  -0.001351936233455   0.001661833618470 1
force Pt   0.000109366446772   0.000148045811478   0.006240587566303 1
force Pt   0.000057247202979  -0.059451239422414   0.000041383376238 1
force Pt  -0.000159705501741   0.000274663172426   0.000115641399412 1
force Pt  -0.001397117125438  -0.001437759607928  -0.001402198366874 1
force Pt  -0.000014314206360  -0.000021327050726  -0.006236526703953 1
force Pt  -0.000047476502215  -0.006350021971322   0.000109649862179 1
force Pt   0.059409084563598   0.000008048150483   0.000115870977482 1
force Pt   0.001412589825504   0.001382281376250   0.001372737547422 1
force Pt   0.000161087540637  -0.000014359152573   0.006343802170738 1
force Pt   0.000018453255276   0.006178504343009  -0.000016768563601 1
force Pt   0.006234550892220   0.000141840646370   0.000101198989452 1
force Pt   0.001392071854424   0.001412195133318  -0.001373863945029 1
force Pt   0.000037707442560   0.000140384589861  -0.006079350940803 1
force Pt   0.000023397338291   0.000005648979162  -0.000032842251960 1
force Pt   0.006206535684606  -0.000022834876093   0.000013346717424 1
force Pt   0.001396267588678  -0.001419705481395   0.001379107797085 1
force Pt  -0.000125480216868   0.000273538867939   0.000148143002671 1
force Pt   0.000021878075034  -0.006166213431799   0.000043682196894 1
force Pt  -0.000097853895499  -0.000143492421239  -0.000011548661714 1
force Pt   0.001131482854992  -0.001412877749818  -0.001112373111501 1
force Pt   0.000002486537176  -0.000142235383306   0.000114500249637 1
force Pt   0.001056626881443   0.000002188938847  -0.001094878314672 1
force O   0.000098473595797  -0.000009659288207   0.000482341080176 1

# Energy components:
   Eewald =    -2553.8645609052809959
       EH =      395.5917448967028918
     Eloc =    -1205.8702904033652885
      Enl =      -31.5773962640221129
      Exc =     -914.9997517906000439
 Exc_core =      524.5892759224584552
       KE =      923.7699206841945170
-------------------------------------
     Etot =    -2862.3610578599123073
       TS =        0.0720947073837786
-------------------------------------
        F =    -2862.4331525672960197

IonicMinimize: Iter:   1  F: -2862.433152567296020  |grad|_K:  1.476e-02  alpha:  1.000e+00  linmin: -9.924e-01  t[s]:  59169.83

#--- Lowdin population analysis ---
# oxidation-state Pt +0.059 -0.007 +0.058 +0.059 +0.004 -0.007 +0.059 +0.004 +0.004 -0.007 +0.004 +0.059 +0.007 -0.007 +0.004 +0.004 +0.059 -0.007 +0.004 +0.004 +0.004 -0.007 +0.004 +0.007 +0.004 -0.007 +0.007 +0.004 +0.007 -0.007 +0.007 +0.007
# oxidation-state O -0.088


-------- Electronic minimization -----------
	FillingsUpdate:  mu: +0.898912016  nElectrons: 518.000000
ElecMinimize: Iter:   0  F: -2859.770030858262089  |grad|_K:  2.007e-04  alpha:  1.000e+00
	FillingsUpdate:  mu: +0.869928122  nElectrons: 518.000000
	SubspaceRotationAdjust: set factor to 0.148
ElecMinimize: Iter:   1  F: -2861.931513672984693  |grad|_K:  8.296e-05  alpha:  3.005e-01  linmin:  1.681e-02  t[s]:  60911.46
	FillingsUpdate:  mu: +0.841282351  nElectrons: 518.000000
	SubspaceRotationAdjust: set factor to 0.136
ElecMinimize: Iter:   2  F: -2862.245147031844226  |grad|_K:  3.018e-05  alpha:  2.520e-01  linmin: -5.010e-05  t[s]:  61958.12
	FillingsUpdate:  mu: +0.839671058  nElectrons: 518.000000
	SubspaceRotationAdjust: set factor to 0.159
ElecMinimize: Iter:   3  F: -2862.313770910380754  |grad|_K:  1.724e-05  alpha:  3.820e-01  linmin:  7.572e-05  t[s]:  62997.78
	FillingsUpdate:  mu: +0.839790972  nElectrons: 518.000000
	SubspaceRotationAdjust: set factor to 0.189
ElecMinimize: Iter:   4  F: -2862.349030312848754  |grad|_K:  1.760e-05  alpha:  6.036e-01  linmin:  8.269e-05  t[s]:  64053.01
	FillingsUpdate:  mu: +0.839190619  nElectrons: 518.000000
	SubspaceRotationAdjust: set factor to 0.224
ElecMinimize: Iter:   5  F: -2862.399473984532051  |grad|_K:  1.805e-05  alpha:  8.208e-01  linmin: -2.899e-04  t[s]:  65111.81
	FillingsUpdate:  mu: +0.838990995  nElectrons: 518.000000
	SubspaceRotationAdjust: set factor to 0.25
ElecMinimize: Iter:   6  F: -2862.433418764207545  |grad|_K:  1.381e-05  alpha:  5.135e-01  linmin: -1.707e-05  t[s]:  66163.98
	FillingsUpdate:  mu: +0.838922802  nElectrons: 518.000000
	SubspaceRotationAdjust: set factor to 0.264
ElecMinimize: Iter:   7  F: -2862.452122020630213  |grad|_K:  8.777e-06  alpha:  4.965e-01  linmin:  5.832e-05  t[s]:  67208.88
	FillingsUpdate:  mu: +0.838938462  nElectrons: 518.000000
	SubspaceRotationAdjust: set factor to 0.256
ElecMinimize: Iter:   8  F: -2862.458453613728580  |grad|_K:  5.019e-06  alpha:  4.191e-01  linmin: -2.731e-05  t[s]:  68244.74
	FillingsUpdate:  mu: +0.838945240  nElectrons: 518.000000
	SubspaceRotationAdjust: set factor to 0.218
ElecMinimize: Iter:   9  F: -2862.460060343446003  |grad|_K:  2.842e-06  alpha:  3.228e-01  linmin:  1.367e-05  t[s]:  69286.78
	FillingsUpdate:  mu: +0.838913731  nElectrons: 518.000000
	SubspaceRotationAdjust: set factor to 0.214
ElecMinimize: Iter:  10  F: -2862.460638265938087  |grad|_K:  1.669e-06  alpha:  3.631e-01  linmin:  5.046e-06  t[s]:  70335.04
	FillingsUpdate:  mu: +0.838933098  nElectrons: 518.000000
	SubspaceRotationAdjust: set factor to 0.274
ElecMinimize: Iter:  11  F: -2862.460874961771879  |grad|_K:  1.038e-06  alpha:  4.309e-01  linmin:  5.024e-06  t[s]:  71387.51
	FillingsUpdate:  mu: +0.838952361  nElectrons: 518.000000
	SubspaceRotationAdjust: set factor to 0.362
ElecMinimize: Iter:  12  F: -2862.460977439623093  |grad|_K:  8.032e-07  alpha:  4.827e-01  linmin:  1.717e-06  t[s]:  72434.41
	FillingsUpdate:  mu: +0.838959602  nElectrons: 518.000000
	SubspaceRotationAdjust: set factor to 0.351
ElecMinimize: Iter:  13  F: -2862.461037199360362  |grad|_K:  7.857e-07  alpha:  4.697e-01  linmin:  4.139e-06  t[s]:  73463.91
	FillingsUpdate:  mu: +0.838973028  nElectrons: 518.000000
	SubspaceRotationAdjust: set factor to 0.281
ElecMinimize: Iter:  14  F: -2862.461074641380947  |grad|_K:  5.875e-07  alpha:  3.078e-01  linmin: -5.767e-07  t[s]:  74515.40
	FillingsUpdate:  mu: +0.838981238  nElectrons: 518.000000
	SubspaceRotationAdjust: set factor to 0.27
ElecMinimize: Iter:  15  F: -2862.461098419284099  |grad|_K:  3.233e-07  alpha:  3.492e-01  linmin:  2.428e-07  t[s]:  75561.05
	FillingsUpdate:  mu: +0.838984426  nElectrons: 518.000000
	SubspaceRotationAdjust: set factor to 0.298
ElecMinimize: Iter:  16  F: -2862.461106727342667  |grad|_K:  1.894e-07  alpha:  4.029e-01  linmin: -2.129e-06  t[s]:  76607.72
	FillingsUpdate:  mu: +0.838984083  nElectrons: 518.000000
	SubspaceRotationAdjust: set factor to 0.318
ElecMinimize: Iter:  17  F: -2862.461109696847871  |grad|_K:  1.242e-07  alpha:  4.194e-01  linmin: -1.235e-06  t[s]:  77647.05
	FillingsUpdate:  mu: +0.838982346  nElectrons: 518.000000
	SubspaceRotationAdjust: set factor to 0.315
ElecMinimize: Iter:  18  F: -2862.461110749394265  |grad|_K:  8.613e-08  alpha:  3.461e-01  linmin:  2.272e-07  t[s]:  78688.82
	FillingsUpdate:  mu: +0.838981818  nElectrons: 518.000000
	SubspaceRotationAdjust: set factor to 0.34
ElecMinimize: Iter:  19  F: -2862.461111236026682  |grad|_K:  6.257e-08  alpha:  3.326e-01  linmin: -6.970e-07  t[s]:  79737.08
	FillingsUpdate:  mu: +0.838980647  nElectrons: 518.000000
	SubspaceRotationAdjust: set factor to 0.408
ElecMinimize: Iter:  20  F: -2862.461111575554696  |grad|_K:  4.635e-08  alpha:  4.393e-01  linmin:  6.141e-07  t[s]:  80780.81
	FillingsUpdate:  mu: +0.838979944  nElectrons: 518.000000
	SubspaceRotationAdjust: set factor to 0.463
ElecMinimize: Iter:  21  F: -2862.461111768446699  |grad|_K:  3.251e-08  alpha:  4.555e-01  linmin:  4.848e-07  t[s]:  81824.76
	FillingsUpdate:  mu: +0.838979297  nElectrons: 518.000000
	SubspaceRotationAdjust: set factor to 0.445
ElecMinimize: Iter:  22  F: -2862.461111854165210  |grad|_K:  2.369e-08  alpha:  4.127e-01  linmin: -7.969e-07  t[s]:  82864.34
	FillingsUpdate:  mu: +0.838979108  nElectrons: 518.000000
	SubspaceRotationAdjust: set factor to 0.321
ElecMinimize: Iter:  23  F: -2862.461111883788817  |grad|_K:  1.942e-08  alpha:  2.658e-01  linmin:  2.177e-07  t[s]:  83905.06
	FillingsUpdate:  mu: +0.838978874  nElectrons: 518.000000
	SubspaceRotationAdjust: set factor to 0.248
ElecMinimize: Iter:  24  F: -2862.461111900795913  |grad|_K:  1.031e-08  alpha:  2.294e-01  linmin:  1.565e-06  t[s]:  84934.27
	FillingsUpdate:  mu: +0.838978933  nElectrons: 518.000000
	SubspaceRotationAdjust: set factor to 0.324
ElecMinimize: Iter:  25  F: -2862.461111908520706  |grad|_K:  6.171e-09  alpha:  3.687e-01  linmin: -6.177e-07  t[s]:  85983.93
	FillingsUpdate:  mu: +0.838978982  nElectrons: 518.000000
	SubspaceRotationAdjust: set factor to 0.361
ElecMinimize: Iter:  26  F: -2862.461111911454282  |grad|_K:  4.668e-09  alpha:  3.721e-01  linmin: -1.292e-05  t[s]:  87038.93
ElecMinimize: Converged (|Delta F|<1.000000e-08 for 2 iters).
Setting wave functions to eigenvectors of Hamiltonian

# Ionic positions in cartesian coordinates:
ion Pt  -0.196113712978256   0.000427979710742   0.000840425242043 1
ion Pt  -0.004359069652375   3.717459989259892   3.711077103578559 1
ion Pt   3.706136288808912   0.000427152378412   3.908966518799877 1
ion Pt   3.706701465676753   3.903393467146596   0.000244217943077 1
ion Pt  -0.024940720190632  -0.000049807645568   7.413303334556614 1
ion Pt  -0.004224042176773   3.710969202711778  11.115754609118227 1
ion Pt   3.706587320082886   0.000026617377609  10.923792667940013 1
ion Pt   3.706731122390996   3.731183263482158   7.413800387866538 1
ion Pt  -0.023955252864629   7.413910331654967  -0.000371238840175 1
ion Pt  -0.005169650339823  11.115967210410913   3.711889515793943 1
ion Pt   3.707058003402649   7.413905768081674   3.730772010448202 1
ion Pt   3.706871941433560  10.923387065954376   0.000102624074020 1
ion Pt  -0.000754799465216   7.414329384517973   7.413787112923618 1
ion Pt  -0.004269614013757  11.115697318262356  11.115815641224234 1
ion Pt   3.706646513259517   7.413314632381363  11.096055477764693 1
ion Pt   3.706539129898913  11.095662327617333   7.413765648808826 1
ion Pt   7.609968114937605   0.000029758670743   0.000355534615672 1
ion Pt   7.417732691588912   3.710923002434442   3.710900304769015 1
ion Pt  11.120630673851212  -0.000044731512170   3.731122094183493 1
ion Pt  11.120155827211887   3.730555524393842  -0.000040951978970 1
ion Pt   7.437440863530463   0.000476278285925   7.413743338482942 1
ion Pt   7.417644317901594   3.711021259447780  11.115911471735267 1
ion Pt  11.120220302916520   0.000470704288889  11.096598616467269 1
ion Pt  11.120177607740887   3.706931413433049   7.413275139950468 1
ion Pt   7.437350468152400   7.413308526764113   0.000050384592378 1
ion Pt   7.417661952672886  11.115751541263833   3.710934282310003 1
ion Pt  11.119664088215469   7.414325072892084   3.707411301605163 1
ion Pt  11.120169488190813  11.096290357590957   0.000147838948348 1
ion Pt   7.413274975256302   7.412909468893027   7.413363189322176 1
ion Pt   7.416763124009583  11.115765760029710  11.116796262822987 1
ion Pt  11.120091151351795   7.412914365991304  11.120279373668446 1
ion Pt  11.113771663826544  11.119898286139115   7.419582011868800 1
ion O   3.705888765372412  -0.000042492309203   0.001469749394247 1

# Forces in Cartesian coordinates:
force Pt  -0.029711927541254   0.000056793292190   0.000103685421551 1
force Pt   0.000193021198305  -0.000853954090622  -0.000173208436229 1
force Pt  -0.000071216653991   0.000061120699517   0.028859292795783 1
force Pt   0.000008966468621   0.029605323584775   0.000029748566572 1
force Pt  -0.006776235464714   0.000004869541394   0.000068404220988 1
force Pt   0.000219508480911  -0.000198531325901   0.000192829324192 1
force Pt  -0.000025589540803   0.000012338577201  -0.029598258787894 1
force Pt  -0.000010291838451   0.006778599179593   0.000071167838343 1
force Pt  -0.006676515858490   0.000070967941581  -0.000025167031540 1
force Pt   0.000117319424681   0.000221671703216  -0.000097260500873 1
force Pt   0.000031713312059   0.000066323743833   0.006714121254810 1
force Pt   0.000017719036671  -0.029582800222443   0.000020373879393 1
force Pt  -0.002290651238985   0.000102822221585   0.000069943171914 1
force Pt   0.000188445953362   0.000218121106547   0.000225576756229 1
force Pt   0.000001191479460  -0.000025391576408  -0.006694777125849 1
force Pt   0.000007947076880  -0.006733716042565   0.000082365771264 1
force Pt   0.029619184501500   0.000016940261816   0.000068190003368 1
force Pt  -0.000201544532089  -0.000221362449245  -0.000223170016723 1
force Pt   0.000006767349932   0.000009424212075   0.006748307304857 1
force Pt  -0.000000976975537   0.006714588921439   0.000018256958868 1
force Pt   0.006664299198578   0.000052228943415   0.000079289858968 1
force Pt  -0.000216466777108  -0.000205681356020   0.000234375525967 1
force Pt  -0.000006357354065   0.000047140304651  -0.006616427016822 1
force Pt  -0.000008103072525   0.002237504743694   0.000005323161329 1
force Pt   0.006678028352420  -0.000029781221459   0.000007502085817 1
force Pt  -0.000235807888304   0.000241905116429  -0.000193773602854 1
force Pt  -0.000075075900834   0.000097781524984   0.002250997143375 1
force Pt  -0.000004327684024  -0.006669742879391  -0.000000239644711 1
force Pt   0.002182970668637  -0.000048716024504   0.000040934344300 1
force Pt  -0.000305067981747   0.000204875908240   0.000324139091258 1
force Pt  -0.000044331573037  -0.000044126007982  -0.002151552119248 1
force Pt   0.000654198668675  -0.002194264396403  -0.000670601967799 1
force O   0.000079992919332  -0.000010749037680   0.000215477316830 1

# Energy components:
   Eewald =    -2555.7134175932333164
       EH =      393.8807065231942488
     Eloc =    -1202.2050052495997079
      Enl =      -31.5559878478059730
      Exc =     -914.9616286395097404
 Exc_core =      524.5892830147458881
       KE =      923.5781296008785830
-------------------------------------
     Etot =    -2862.3879201913300676
       TS =        0.0731917201240572
-------------------------------------
        F =    -2862.4611119114542817

IonicMinimize: Iter:   2  F: -2862.461111911454282  |grad|_K:  7.649e-03  alpha:  6.101e-01  linmin: -9.973e-01  t[s]:  87182.22

#--- Lowdin population analysis ---
# oxidation-state Pt +0.059 -0.007 +0.059 +0.059 +0.006 -0.007 +0.059 +0.006 +0.006 -0.007 +0.006 +0.059 +0.008 -0.007 +0.006 +0.006 +0.059 -0.007 +0.006 +0.006 +0.006 -0.007 +0.006 +0.008 +0.006 -0.007 +0.008 +0.006 +0.008 -0.007 +0.008 +0.008
# oxidation-state O -0.122


-------- Electronic minimization -----------
	FillingsUpdate:  mu: +0.906985843  nElectrons: 518.000000
ElecMinimize: Iter:   0  F: -2859.246015998968687  |grad|_K:  2.275e-04  alpha:  1.000e+00
	FillingsUpdate:  mu: +0.897691385  nElectrons: 518.000000
	SubspaceRotationAdjust: set factor to 0.226
ElecMinimize: Iter:   1  F: -2861.547901778957112  |grad|_K:  1.389e-04  alpha:  2.528e-01  linmin:  1.294e-02  t[s]:  88915.17
	FillingsUpdate:  mu: +0.841650812  nElectrons: 518.000000
	SubspaceRotationAdjust: set factor to 0.32
ElecMinimize: Iter:   2  F: -2862.190124862248467  |grad|_K:  4.433e-05  alpha:  1.858e-01  linmin:  2.920e-04  t[s]:  89982.88
	FillingsUpdate:  mu: +0.840766228  nElectrons: 518.000000
	SubspaceRotationAdjust: set factor to 0.247
ElecMinimize: Iter:   3  F: -2862.321343667342717  |grad|_K:  2.745e-05  alpha:  3.401e-01  linmin:  2.160e-04  t[s]:  91040.03
	FillingsUpdate:  mu: +0.840657868  nElectrons: 518.000000
	SubspaceRotationAdjust: set factor to 0.225
ElecMinimize: Iter:   4  F: -2862.362294977376223  |grad|_K:  2.189e-05  alpha:  2.762e-01  linmin:  1.983e-05  t[s]:  92102.19
	FillingsUpdate:  mu: +0.839810065  nElectrons: 518.000000
	SubspaceRotationAdjust: set factor to 0.328
ElecMinimize: Iter:   5  F: -2862.410436128177025  |grad|_K:  2.065e-05  alpha:  5.083e-01  linmin: -6.426e-05  t[s]:  93153.44
	FillingsUpdate:  mu: +0.839427257  nElectrons: 518.000000
	SubspaceRotationAdjust: set factor to 0.288
ElecMinimize: Iter:   6  F: -2862.446260269883624  |grad|_K:  1.771e-05  alpha:  4.270e-01  linmin: -1.764e-04  t[s]:  94219.98
	FillingsUpdate:  mu: +0.839142945  nElectrons: 518.000000
	SubspaceRotationAdjust: set factor to 0.232
ElecMinimize: Iter:   7  F: -2862.461881791984979  |grad|_K:  9.900e-06  alpha:  2.440e-01  linmin: -8.806e-05  t[s]:  95287.98
	FillingsUpdate:  mu: +0.838973859  nElectrons: 518.000000
	SubspaceRotationAdjust: set factor to 0.287
ElecMinimize: Iter:   8  F: -2862.470503327193455  |grad|_K:  6.154e-06  alpha:  4.419e-01  linmin: -6.651e-05  t[s]:  96357.09
	FillingsUpdate:  mu: +0.838912931  nElectrons: 518.000000
	SubspaceRotationAdjust: set factor to 0.259
ElecMinimize: Iter:   9  F: -2862.473305591328881  |grad|_K:  4.085e-06  alpha:  3.736e-01  linmin: -2.175e-05  t[s]:  97404.87
	FillingsUpdate:  mu: +0.838987954  nElectrons: 518.000000
	SubspaceRotationAdjust: set factor to 0.181
ElecMinimize: Iter:  10  F: -2862.474166612399131  |grad|_K:  2.161e-06  alpha:  2.612e-01  linmin:  4.560e-06  t[s]:  98466.83
	FillingsUpdate:  mu: +0.838959472  nElectrons: 518.000000
	SubspaceRotationAdjust: set factor to 0.249
ElecMinimize: Iter:  11  F: -2862.474507679730777  |grad|_K:  1.167e-06  alpha:  3.704e-01  linmin: -1.638e-06  t[s]:  99518.37
	FillingsUpdate:  mu: +0.838941647  nElectrons: 518.000000
	SubspaceRotationAdjust: set factor to 0.278
ElecMinimize: Iter:  12  F: -2862.474618958303381  |grad|_K:  7.750e-07  alpha:  4.140e-01  linmin:  2.329e-06  t[s]: 100576.38
	FillingsUpdate:  mu: +0.838960852  nElectrons: 518.000000
	SubspaceRotationAdjust: set factor to 0.293
ElecMinimize: Iter:  13  F: -2862.474666431646256  |grad|_K:  6.242e-07  alpha:  4.008e-01  linmin:  1.640e-06  t[s]: 101634.76
	FillingsUpdate:  mu: +0.838959433  nElectrons: 518.000000
	SubspaceRotationAdjust: set factor to 0.304
ElecMinimize: Iter:  14  F: -2862.474698521397841  |grad|_K:  4.804e-07  alpha:  4.177e-01  linmin:  1.640e-06  t[s]: 102694.56
	FillingsUpdate:  mu: +0.838967125  nElectrons: 518.000000
	SubspaceRotationAdjust: set factor to 0.341
ElecMinimize: Iter:  15  F: -2862.474721126771783  |grad|_K:  3.714e-07  alpha:  4.967e-01  linmin:  3.976e-07  t[s]: 103744.42
	FillingsUpdate:  mu: +0.838968207  nElectrons: 518.000000
	SubspaceRotationAdjust: set factor to 0.375
ElecMinimize: Iter:  16  F: -2862.474733678944176  |grad|_K:  2.203e-07  alpha:  4.613e-01  linmin: -4.285e-07  t[s]: 104790.46
	FillingsUpdate:  mu: +0.838971258  nElectrons: 518.000000
	SubspaceRotationAdjust: set factor to 0.387
ElecMinimize: Iter:  17  F: -2862.474737791656480  |grad|_K:  1.230e-07  alpha:  4.298e-01  linmin: -2.957e-07  t[s]: 105841.30
	FillingsUpdate:  mu: +0.838969733  nElectrons: 518.000000
	SubspaceRotationAdjust: set factor to 0.384
ElecMinimize: Iter:  18  F: -2862.474738987737965  |grad|_K:  8.163e-08  alpha:  4.012e-01  linmin: -1.456e-07  t[s]: 106901.94
	FillingsUpdate:  mu: +0.838970178  nElectrons: 518.000000
	SubspaceRotationAdjust: set factor to 0.302
ElecMinimize: Iter:  19  F: -2862.474739363102344  |grad|_K:  5.856e-08  alpha:  2.857e-01  linmin:  6.433e-07  t[s]: 107948.72
	FillingsUpdate:  mu: +0.838969381  nElectrons: 518.000000
	SubspaceRotationAdjust: set factor to 0.26
ElecMinimize: Iter:  20  F: -2862.474739536634843  |grad|_K:  3.304e-08  alpha:  2.563e-01  linmin: -2.058e-06  t[s]: 109015.72
	FillingsUpdate:  mu: +0.838969277  nElectrons: 518.000000
	SubspaceRotationAdjust: set factor to 0.349
ElecMinimize: Iter:  21  F: -2862.474739625489747  |grad|_K:  2.156e-08  alpha:  4.085e-01  linmin: -1.682e-05  t[s]: 110074.40
	FillingsUpdate:  mu: +0.838969123  nElectrons: 518.000000
	SubspaceRotationAdjust: set factor to 0.347
ElecMinimize: Iter:  22  F: -2862.474739666235109  |grad|_K:  1.727e-08  alpha:  4.404e-01  linmin: -3.794e-06  t[s]: 111142.36
	FillingsUpdate:  mu: +0.838968923  nElectrons: 518.000000
	SubspaceRotationAdjust: set factor to 0.286
ElecMinimize: Iter:  23  F: -2862.474739683733333  |grad|_K:  1.262e-08  alpha:  2.928e-01  linmin: -1.175e-06  t[s]: 112201.76
	FillingsUpdate:  mu: +0.838968814  nElectrons: 518.000000
	SubspaceRotationAdjust: set factor to 0.297
ElecMinimize: Iter:  24  F: -2862.474739695316657  |grad|_K:  7.764e-09  alpha:  3.714e-01  linmin: -4.981e-06  t[s]: 113269.46
	FillingsUpdate:  mu: +0.838968641  nElectrons: 518.000000
	SubspaceRotationAdjust: set factor to 0.293
ElecMinimize: Iter:  25  F: -2862.474739700179271  |grad|_K:  5.015e-09  alpha:  3.925e-01  linmin: -1.647e-05  t[s]: 114309.36
	FillingsUpdate:  mu: +0.838968685  nElectrons: 518.000000
	SubspaceRotationAdjust: set factor to 0.222
ElecMinimize: Iter:  26  F: -2862.474739701880935  |grad|_K:  3.072e-09  alpha:  2.885e-01  linmin: -1.379e-05  t[s]: 115357.32
ElecMinimize: Converged (|Delta F|<1.000000e-08 for 2 iters).
Setting wave functions to eigenvectors of Hamiltonian

# Ionic positions in cartesian coordinates:
ion Pt  -0.296113250748573   0.000620933717460   0.001075402845494 1
ion Pt  -0.000299921332321   3.710262739161243   3.707190554157199 1
ion Pt   3.705825678292228   0.000644897551983   4.006114434442981 1
ion Pt   3.706719869327592   4.003166614071892   0.000178317097815 1
ion Pt  -0.067388700972797   0.000008802104746   7.413773459726031 1
ion Pt   0.000044704376794   3.706851335804401  11.119841535625257 1
ion Pt   3.706375588926457   0.000101630154732  10.824272622793693 1
ion Pt   3.706604896142088   3.773820045106872   7.414106794154625 1
ion Pt  -0.066102428487535   7.414201916127547  -0.000367159729975 1
ion Pt  -0.001270002834245  11.120148451687733   3.708164866993947 1
ion Pt   3.707092531171634   7.414169642434542   3.773151415987674 1
ion Pt   3.706851723258533  10.823817238484464   0.000068064900516 1
ion Pt  -0.015105067618939   7.414658231728389   7.414078842241983 1
ion Pt  -0.000220157147131  11.120013574841584  11.120127142558271 1
ion Pt   3.706655438439269   7.413159686202396  11.053851392038400 1
ion Pt   3.706640458893255  11.053327024549718   7.414135986629049 1
ion Pt   7.709828521409012   0.000132961545297   0.000529861253023 1
ion Pt   7.413618607623238   3.706703534631419   3.706704576409213 1
ion Pt  11.120463527185247   0.000041957569036   3.773595318664237 1
ion Pt  11.120124838732625   3.772992894641807   0.000132851353577 1
ion Pt   7.479495863507442   0.000625020159278   7.414122928480649 1
ion Pt   7.413407263269955   3.706854617276397  11.120244369816758 1
ion Pt  11.120133054702322   0.000588316816361  11.054726277763553 1
ion Pt  11.120112629913276   3.721128761032956   7.413313784445480 1
ion Pt   7.479533136661316   7.413125705580255   0.000094141194637 1
ion Pt   7.413312920445397  11.120171671607489   3.706946120293705 1
ion Pt  11.119331568935216   7.414623118317073   3.721519544254019 1
ion Pt  11.120120394465040  11.054154336132330   0.000095320794946 1
ion Pt   7.427237954116640   7.412774393500707   7.413640802766410 1
ion Pt   7.412283136635541  11.119927550390821  11.121379729972409 1
ion Pt  11.119783901625656   7.412807608578086  11.106507209693333 1
ion Pt  11.116849969876146  11.105994285829516   7.416422421398495 1
ion O   3.706142351209639  -0.000123497338510   0.001757068982609 1

# Forces in Cartesian coordinates:
force Pt  -0.007513171824184   0.000002409481058   0.000020454253120 1
force Pt   0.001373929669011  -0.001620541299009  -0.001357887341482 1
force Pt  -0.000032369358555   0.000003009925595   0.007286938663457 1
force Pt  -0.000049847975865   0.007532322977941   0.000033721297192 1
force Pt  -0.003121970497385   0.000017371534547   0.000035744522469 1
force Pt   0.001355258544882  -0.001361198234264   0.001409833382576 1
force Pt  -0.000043756009522   0.000013363571989  -0.007538124974866 1
force Pt  -0.000050897433192   0.003188401813220  -0.000045150150908 1
force Pt  -0.003185608589113  -0.000023037476410   0.000067351260022 1
force Pt   0.001430581399657   0.001386006407134  -0.001412488110195 1
force Pt  -0.000061386867936  -0.000017780862278   0.003213128829497 1
force Pt  -0.000047532415034  -0.007512957767741   0.000040369849958 1
force Pt  -0.003677512120978  -0.000042295952275  -0.000024519095713 1
force Pt   0.001350204375987   0.001410412350447   0.001417723013986 1
force Pt  -0.000038546200910   0.000008293415253  -0.003153838069553 1
force Pt  -0.000008896876463  -0.003150929868767  -0.000016274401415 1
force Pt   0.007480803683610   0.000014212515263   0.000031757048963 1
force Pt  -0.001399311937858  -0.001381401380100  -0.001362744005040 1
force Pt  -0.000040789835916   0.000017514938973   0.003201907184247 1
force Pt   0.000048046569915   0.003243925997884   0.000052808209521 1
force Pt   0.003152929812893  -0.000018823652520   0.000002870701970 1
force Pt  -0.001376416199721  -0.001406458119973   0.001403090605260 1
force Pt  -0.000001949889399  -0.000018975620444  -0.003195977393004 1
force Pt   0.000004682350719   0.003731313246358   0.000010650792259 1
force Pt   0.003168071717067   0.000013544795099   0.000039379072066 1
force Pt  -0.001406990808542   0.001429217449939  -0.001356671244982 1
force Pt   0.000030942920932  -0.000042379243434   0.003663637682376 1
force Pt   0.000011450324646  -0.003206274525954   0.000014598617446 1
force Pt   0.003709914934030   0.000042496359903   0.000015948247278 1
force Pt  -0.001320577966757   0.001403100946475   0.001348754610864 1
force Pt  -0.000000557400799   0.000042347780652  -0.003702705755540 1
force Pt   0.000231154575155  -0.003688868382610  -0.000218611849333 1
force O   0.000024089522075  -0.000009179382552   0.000075602597274 1

# Energy components:
   Eewald =    -2556.3088928322913489
       EH =      393.3344210774360477
     Eloc =    -1200.9920189381712134
      Enl =      -31.5181570498663355
      Exc =     -914.9434693459129448
 Exc_core =      524.5892883112788923
       KE =      923.4380167804343955
-------------------------------------
     Etot =    -2862.4008119970931148
       TS =        0.0739277047876068
-------------------------------------
        F =    -2862.4747397018809352

IonicMinimize: Iter:   3  F: -2862.474739701880935  |grad|_K:  2.433e-03  alpha:  8.826e-01  linmin: -9.401e-01  t[s]: 115503.23

#--- Lowdin population analysis ---
# oxidation-state Pt +0.059 -0.007 +0.059 +0.059 +0.007 -0.007 +0.058 +0.007 +0.007 -0.007 +0.007 +0.059 +0.009 -0.007 +0.007 +0.007 +0.058 -0.007 +0.007 +0.007 +0.007 -0.007 +0.007 +0.009 +0.007 -0.007 +0.009 +0.007 +0.009 -0.007 +0.009 +0.009
# oxidation-state O -0.148


-------- Electronic minimization -----------
	FillingsUpdate:  mu: +0.851468065  nElectrons: 518.000000
ElecMinimize: Iter:   0  F: -2861.476616183587339  |grad|_K:  1.170e-04  alpha:  1.000e+00
	FillingsUpdate:  mu: +0.850019285  nElectrons: 518.000000
	SubspaceRotationAdjust: set factor to 0.156
ElecMinimize: Iter:   1  F: -2862.285569269518874  |grad|_K:  4.474e-05  alpha:  3.055e-01  linmin:  3.841e-03  t[s]: 117273.72
	FillingsUpdate:  mu: +0.839352336  nElectrons: 518.000000
	SubspaceRotationAdjust: set factor to 0.114
ElecMinimize: Iter:   2  F: -2862.393547502901583  |grad|_K:  1.733e-05  alpha:  2.780e-01  linmin:  4.242e-04  t[s]: 118333.97
	FillingsUpdate:  mu: +0.839075353  nElectrons: 518.000000
	SubspaceRotationAdjust: set factor to 0.173
ElecMinimize: Iter:   3  F: -2862.418280383411002  |grad|_K:  1.031e-05  alpha:  4.195e-01  linmin:  1.186e-05  t[s]: 119387.13
	FillingsUpdate:  mu: +0.839278148  nElectrons: 518.000000
	SubspaceRotationAdjust: set factor to 0.214
ElecMinimize: Iter:   4  F: -2862.432075399822679  |grad|_K:  1.120e-05  alpha:  6.583e-01  linmin:  1.153e-05  t[s]: 120440.12
	FillingsUpdate:  mu: +0.839041577  nElectrons: 518.000000
	SubspaceRotationAdjust: set factor to 0.24
ElecMinimize: Iter:   5  F: -2862.453624991112065  |grad|_K:  1.124e-05  alpha:  8.698e-01  linmin: -7.450e-05  t[s]: 121482.62
	FillingsUpdate:  mu: +0.839095143  nElectrons: 518.000000
	SubspaceRotationAdjust: set factor to 0.243
ElecMinimize: Iter:   6  F: -2862.466503189073592  |grad|_K:  9.155e-06  alpha:  5.095e-01  linmin: -1.852e-05  t[s]: 122529.68
	FillingsUpdate:  mu: +0.838902892  nElectrons: 518.000000
	SubspaceRotationAdjust: set factor to 0.217
ElecMinimize: Iter:   7  F: -2862.473729651161648  |grad|_K:  5.521e-06  alpha:  4.366e-01  linmin: -2.167e-05  t[s]: 123579.31
	FillingsUpdate:  mu: +0.838983040  nElectrons: 518.000000
	SubspaceRotationAdjust: set factor to 0.187
ElecMinimize: Iter:   8  F: -2862.476040736025880  |grad|_K:  2.854e-06  alpha:  3.837e-01  linmin:  1.288e-05  t[s]: 124623.19
	FillingsUpdate:  mu: +0.838939371  nElectrons: 518.000000
	SubspaceRotationAdjust: set factor to 0.192
ElecMinimize: Iter:   9  F: -2862.476677734999157  |grad|_K:  1.521e-06  alpha:  3.968e-01  linmin: -7.721e-07  t[s]: 125670.56
	FillingsUpdate:  mu: +0.838950508  nElectrons: 518.000000
	SubspaceRotationAdjust: set factor to 0.237
ElecMinimize: Iter:  10  F: -2862.476875650673264  |grad|_K:  8.607e-07  alpha:  4.335e-01  linmin:  3.761e-06  t[s]: 126714.09
	FillingsUpdate:  mu: +0.838959507  nElectrons: 518.000000
	SubspaceRotationAdjust: set factor to 0.31
ElecMinimize: Iter:  11  F: -2862.476946982633763  |grad|_K:  6.326e-07  alpha:  4.882e-01  linmin:  5.457e-06  t[s]: 127760.69
	FillingsUpdate:  mu: +0.838957647  nElectrons: 518.000000
	SubspaceRotationAdjust: set factor to 0.361
ElecMinimize: Iter:  12  F: -2862.476991610668392  |grad|_K:  5.941e-07  alpha:  5.655e-01  linmin:  4.558e-06  t[s]: 128797.64
	FillingsUpdate:  mu: +0.838979015  nElectrons: 518.000000
	SubspaceRotationAdjust: set factor to 0.349
ElecMinimize: Iter:  13  F: -2862.477023366739559  |grad|_K:  5.722e-07  alpha:  4.564e-01  linmin: -3.320e-07  t[s]: 129860.00
	FillingsUpdate:  mu: +0.838974517  nElectrons: 518.000000
	SubspaceRotationAdjust: set factor to 0.27
ElecMinimize: Iter:  14  F: -2862.477042729793084  |grad|_K:  3.905e-07  alpha:  2.998e-01  linmin: -9.991e-08  t[s]: 130920.22
	FillingsUpdate:  mu: +0.838983394  nElectrons: 518.000000
	SubspaceRotationAdjust: set factor to 0.232
ElecMinimize: Iter:  15  F: -2862.477053618056743  |grad|_K:  2.380e-07  alpha:  3.621e-01  linmin: -2.218e-07  t[s]: 131967.85
	FillingsUpdate:  mu: +0.838981894  nElectrons: 518.000000
	SubspaceRotationAdjust: set factor to 0.255
ElecMinimize: Iter:  16  F: -2862.477058195199334  |grad|_K:  1.444e-07  alpha:  4.098e-01  linmin: -6.408e-07  t[s]: 133026.91
	FillingsUpdate:  mu: +0.838981921  nElectrons: 518.000000
	SubspaceRotationAdjust: set factor to 0.344
ElecMinimize: Iter:  17  F: -2862.477059969438869  |grad|_K:  8.846e-08  alpha:  4.315e-01  linmin:  2.092e-06  t[s]: 134069.19
	FillingsUpdate:  mu: +0.838981026  nElectrons: 518.000000
	SubspaceRotationAdjust: set factor to 0.363
ElecMinimize: Iter:  18  F: -2862.477060685745073  |grad|_K:  7.062e-08  alpha:  4.641e-01  linmin: -2.906e-06  t[s]: 135117.96
	FillingsUpdate:  mu: +0.838978181  nElectrons: 518.000000
	SubspaceRotationAdjust: set factor to 0.437
ElecMinimize: Iter:  19  F: -2862.477061189245887  |grad|_K:  6.973e-08  alpha:  5.121e-01  linmin:  2.502e-06  t[s]: 136167.83
	FillingsUpdate:  mu: +0.838978668  nElectrons: 518.000000
	SubspaceRotationAdjust: set factor to 0.382
ElecMinimize: Iter:  20  F: -2862.477061490083543  |grad|_K:  5.670e-08  alpha:  3.136e-01  linmin:  3.971e-07  t[s]: 137222.06
	FillingsUpdate:  mu: +0.838977339  nElectrons: 518.000000
	SubspaceRotationAdjust: set factor to 0.299
ElecMinimize: Iter:  21  F: -2862.477061665256315  |grad|_K:  3.919e-08  alpha:  2.763e-01  linmin:  7.389e-07  t[s]: 138277.84
	FillingsUpdate:  mu: +0.838977527  nElectrons: 518.000000
	SubspaceRotationAdjust: set factor to 0.272
ElecMinimize: Iter:  22  F: -2862.477061779736687  |grad|_K:  2.769e-08  alpha:  3.769e-01  linmin: -1.115e-05  t[s]: 139346.70
	FillingsUpdate:  mu: +0.838977049  nElectrons: 518.000000
	SubspaceRotationAdjust: set factor to 0.308
ElecMinimize: Iter:  23  F: -2862.477061838160353  |grad|_K:  1.772e-08  alpha:  3.867e-01  linmin:  6.928e-06  t[s]: 140406.35
	FillingsUpdate:  mu: +0.838977175  nElectrons: 518.000000
	SubspaceRotationAdjust: set factor to 0.346
ElecMinimize: Iter:  24  F: -2862.477061862647588  |grad|_K:  1.208e-08  alpha:  3.977e-01  linmin:  1.691e-05  t[s]: 141476.76
	FillingsUpdate:  mu: +0.838977303  nElectrons: 518.000000
	SubspaceRotationAdjust: set factor to 0.44
ElecMinimize: Iter:  25  F: -2862.477061876865264  |grad|_K:  1.045e-08  alpha:  4.864e-01  linmin: -1.573e-05  t[s]: 142525.59
	FillingsUpdate:  mu: +0.838977456  nElectrons: 518.000000
	SubspaceRotationAdjust: set factor to 0.588
ElecMinimize: Iter:  26  F: -2862.477061887325362  |grad|_K:  8.752e-09  alpha:  4.900e-01  linmin:  4.992e-06  t[s]: 143585.05
	FillingsUpdate:  mu: +0.838977673  nElectrons: 518.000000
	SubspaceRotationAdjust: set factor to 0.632
ElecMinimize: Iter:  27  F: -2862.477061893712289  |grad|_K:  6.992e-09  alpha:  4.249e-01  linmin:  1.359e-05  t[s]: 144639.78
	FillingsUpdate:  mu: +0.838977682  nElectrons: 518.000000
	SubspaceRotationAdjust: set factor to 0.529
ElecMinimize: Iter:  28  F: -2862.477061896267514  |grad|_K:  7.137e-09  alpha:  3.029e-01  linmin:  1.005e-05  t[s]: 145703.77
ElecMinimize: Converged (|Delta F|<1.000000e-08 for 2 iters).
Setting wave functions to eigenvectors of Hamiltonian

# Ionic positions in cartesian coordinates:
ion Pt  -0.341261757120412   0.000628082263349   0.001159226691647 1
ion Pt   0.010015995313989   3.698122066811298   3.697012820324876 1
ion Pt   3.705595390856155   0.000657830008164   4.049923116043908 1
ion Pt   3.706373993784775   4.048521514545492   0.000348086053193 1
ion Pt  -0.093236674379186   0.000138621612409   7.414066896814850 1
ion Pt   0.010266227131572   3.696611124659179  11.130409964589916 1
ion Pt   3.706044048701282   0.000200375356156  10.778961053359151 1
ion Pt   3.706233756867747   3.800170366259660   7.413803069526667 1
ion Pt  -0.092408419544817   7.414048934260618   0.000120837833895 1
ion Pt   0.009471582722173  11.130549264892943   3.697575940859291 1
ion Pt   3.706648737032394   7.414050238571423   3.799669682486405 1
ion Pt   3.706500424581654  10.778628625331654   0.000303769086174 1
ion Pt  -0.041542225101338   7.414349655549957   7.413912634367376 1
ion Pt   0.009939778229928  11.130623605788159  11.130776158919605 1
ion Pt   3.706393752511073   7.413201507381665  11.027766021039609 1
ion Pt   3.706598714346165  11.027267321467598   7.414032851800562 1
ion Pt   7.754837627701526   0.000240003466107   0.000710929744464 1
ion Pt   7.403126873599432   3.696324750837853   3.696461705398830 1
ion Pt  11.120135931747427   0.000175341425515   3.800026175339002 1
ion Pt  11.120447583947302   3.799735469595200   0.000521441850311 1
ion Pt   7.505572449994360   0.000480720897970   7.414157566833223 1
ion Pt   7.403051284392136   3.696301351015446  11.130789941778147 1
ion Pt  11.120105626660584   0.000440173919053  11.028359973555430 1
ion Pt  11.120139290417828   3.747950571089315   7.413387165404179 1
ion Pt   7.505732261278427   7.413200593621884   0.000366691478622 1
ion Pt   7.402740625306774  11.130910269190617   3.696770108335271 1
ion Pt  11.119535691186638   7.414311237466775   3.747841162269327 1
ion Pt  11.120192648986716  11.027703625525071   0.000181108282089 1
ion Pt   7.453909638529530   7.413080311718816   7.413778258012909 1
ion Pt   7.402337162648909  11.130458378911788  11.131526431007622 1
ion Pt  11.119746757952461   7.413115118429851  11.079903277922895 1
ion Pt  11.118565678914825  11.079496400781998   7.414787291887005 1
ion O   3.706280540801989  -0.000197452652964   0.002084641103562 1

# Forces in Cartesian coordinates:
force Pt  -0.000264574369997  -0.000015000553821  -0.000048096139185 1
force Pt   0.001142944850388  -0.001256288535476  -0.001166565379657 1
force Pt   0.000040344322514  -0.000011360043752   0.000141443207493 1
force Pt   0.000006910267539   0.000176913548320  -0.000017742069551 1
force Pt  -0.000890618462100   0.000005809903342   0.000020321529144 1
force Pt   0.001121734328067  -0.001161708327281   0.001210089954052 1
force Pt   0.000025049976954   0.000014311712462  -0.000168544864598 1
force Pt   0.000029631159466   0.000875473300829   0.000017789450212 1
force Pt  -0.000918693972348  -0.000020212391517   0.000012022312083 1
force Pt   0.001187118615234   0.001190117045144  -0.001215771268236 1
force Pt   0.000012527098285  -0.000026542957877   0.000912259720543 1
force Pt   0.000005555573693  -0.000182086101569  -0.000016716201737 1
force Pt  -0.000314550327357  -0.000026624483568   0.000014399898795 1
force Pt   0.001151412288835   0.001179731636040   0.001192133661183 1
force Pt   0.000019706450587   0.000035433059711  -0.000880293130586 1
force Pt   0.000013809371857  -0.000880996536772   0.000024651291473 1
force Pt   0.000236964014290   0.000017215088698  -0.000040317581796 1
force Pt  -0.001180614490609  -0.001160205282400  -0.001152551255248 1
force Pt  -0.000038925083655   0.000003715597658   0.000893454721275 1
force Pt  -0.000035914929805   0.000883122831288  -0.000012834567949 1
force Pt   0.000902496950456  -0.000007278265331   0.000007638901426 1
force Pt  -0.001164388175823  -0.001182399238874   0.001191144174887 1
force Pt  -0.000030497577877  -0.000004966332828  -0.000900364446832 1
force Pt  -0.000042082485693   0.000372996266352   0.000045339638454 1
force Pt   0.000891328826960   0.000029580487564  -0.000005598513243 1
force Pt  -0.001157592712637   0.001180222810334  -0.001177742325533 1
force Pt  -0.000006876998350  -0.000024496270716   0.000366959159172 1
force Pt  -0.000043784950000  -0.000889067420529   0.000008281263260 1
force Pt   0.000337457393160   0.000035411273504   0.000017424421966 1
force Pt  -0.001119410570692   0.001195027783639   0.001141421670875 1
force Pt  -0.000012936594061   0.000033485630212  -0.000381723849357 1
force Pt   0.000039847834412  -0.000376176675010  -0.000026518286374 1
force O   0.000061791026507  -0.000008001225842  -0.000016341588394 1

# Energy components:
   Eewald =    -2556.2135452752336278
       EH =      393.4229639940800212
     Eloc =    -1201.1516304831061461
      Enl =      -31.4928177857723455
      Exc =     -914.9408528589481193
 Exc_core =      524.5892915155322953
       KE =      923.3836285656277596
-------------------------------------
     Etot =    -2862.4029623278202052
       TS =        0.0740995684474221
-------------------------------------
        F =    -2862.4770618962675144

IonicMinimize: Iter:   4  F: -2862.477061896267514  |grad|_K:  6.646e-04  alpha:  1.000e+00  linmin: -6.288e-01  t[s]: 145847.72

#--- Lowdin population analysis ---
# oxidation-state Pt +0.059 -0.007 +0.059 +0.059 +0.007 -0.007 +0.059 +0.007 +0.007 -0.007 +0.007 +0.059 +0.010 -0.007 +0.007 +0.007 +0.059 -0.007 +0.007 +0.007 +0.007 -0.006 +0.007 +0.010 +0.007 -0.007 +0.010 +0.007 +0.011 -0.006 +0.011 +0.010
# oxidation-state O -0.157


-------- Electronic minimization -----------
	FillingsUpdate:  mu: +0.838985816  nElectrons: 518.000000
ElecMinimize: Iter:   0  F: -2862.476761612740574  |grad|_K:  1.734e-06  alpha:  1.000e+00
	FillingsUpdate:  mu: +0.838971609  nElectrons: 518.000000
	SubspaceRotationAdjust: set factor to 0.358
ElecMinimize: Iter:   1  F: -2862.477031013707801  |grad|_K:  1.460e-06  alpha:  4.541e-01  linmin: -1.743e-06  t[s]: 147693.42
	FillingsUpdate:  mu: +0.838992918  nElectrons: 518.000000
	SubspaceRotationAdjust: set factor to 0.272
ElecMinimize: Iter:   2  F: -2862.477106626837212  |grad|_K:  1.089e-06  alpha:  1.800e-01  linmin:  7.169e-06  t[s]: 148751.74
	FillingsUpdate:  mu: +0.838974745  nElectrons: 518.000000
	SubspaceRotationAdjust: set factor to 0.405
ElecMinimize: Iter:   3  F: -2862.477206455930627  |grad|_K:  7.627e-07  alpha:  4.269e-01  linmin:  9.800e-06  t[s]: 149808.12
	FillingsUpdate:  mu: +0.838963612  nElectrons: 518.000000
	SubspaceRotationAdjust: set factor to 0.327
ElecMinimize: Iter:   4  F: -2862.477247406558490  |grad|_K:  6.207e-07  alpha:  3.571e-01  linmin:  9.211e-07  t[s]: 150864.48
	FillingsUpdate:  mu: +0.838974947  nElectrons: 518.000000
	SubspaceRotationAdjust: set factor to 0.218
ElecMinimize: Iter:   5  F: -2862.477261868498317  |grad|_K:  3.322e-07  alpha:  1.903e-01  linmin: -3.310e-06  t[s]: 151912.98
	FillingsUpdate:  mu: +0.838973232  nElectrons: 518.000000
	SubspaceRotationAdjust: set factor to 0.316
ElecMinimize: Iter:   6  F: -2862.477269564369635  |grad|_K:  1.763e-07  alpha:  3.535e-01  linmin: -5.042e-08  t[s]: 152967.57
	FillingsUpdate:  mu: +0.838970456  nElectrons: 518.000000
	SubspaceRotationAdjust: set factor to 0.263
ElecMinimize: Iter:   7  F: -2862.477271646074769  |grad|_K:  1.208e-07  alpha:  3.395e-01  linmin: -6.277e-06  t[s]: 154016.93
	FillingsUpdate:  mu: +0.838972919  nElectrons: 518.000000
	SubspaceRotationAdjust: set factor to 0.232
ElecMinimize: Iter:   8  F: -2862.477272456015726  |grad|_K:  6.803e-08  alpha:  2.813e-01  linmin: -5.423e-06  t[s]: 155064.62
	FillingsUpdate:  mu: +0.838972669  nElectrons: 518.000000
	SubspaceRotationAdjust: set factor to 0.29
ElecMinimize: Iter:   9  F: -2862.477272851077032  |grad|_K:  4.842e-08  alpha:  4.329e-01  linmin:  1.787e-05  t[s]: 156111.05
	FillingsUpdate:  mu: +0.838972796  nElectrons: 518.000000
	SubspaceRotationAdjust: set factor to 0.291
ElecMinimize: Iter:  10  F: -2862.477273073276592  |grad|_K:  4.045e-08  alpha:  4.809e-01  linmin: -3.258e-06  t[s]: 157162.64
	FillingsUpdate:  mu: +0.838973192  nElectrons: 518.000000
	SubspaceRotationAdjust: set factor to 0.252
ElecMinimize: Iter:  11  F: -2862.477273189855623  |grad|_K:  3.032e-08  alpha:  3.616e-01  linmin: -1.096e-05  t[s]: 158212.47
	FillingsUpdate:  mu: +0.838972778  nElectrons: 518.000000
	SubspaceRotationAdjust: set factor to 0.234
ElecMinimize: Iter:  12  F: -2862.477273265544227  |grad|_K:  2.089e-08  alpha:  4.189e-01  linmin:  2.535e-05  t[s]: 159273.28
	FillingsUpdate:  mu: +0.838973315  nElectrons: 518.000000
	SubspaceRotationAdjust: set factor to 0.19
ElecMinimize: Iter:  13  F: -2862.477273298046384  |grad|_K:  1.342e-08  alpha:  3.837e-01  linmin:  3.738e-05  t[s]: 160325.42
	FillingsUpdate:  mu: +0.838973245  nElectrons: 518.000000
	SubspaceRotationAdjust: set factor to 0.158
ElecMinimize: Iter:  14  F: -2862.477273309940301  |grad|_K:  7.170e-09  alpha:  3.423e-01  linmin:  6.806e-05  t[s]: 161382.29
	FillingsUpdate:  mu: +0.838973168  nElectrons: 518.000000
	SubspaceRotationAdjust: set factor to 0.184
ElecMinimize: Iter:  15  F: -2862.477273313969363  |grad|_K:  4.037e-09  alpha:  4.074e-01  linmin: -2.654e-06  t[s]: 162444.82
	FillingsUpdate:  mu: +0.838973275  nElectrons: 518.000000
	SubspaceRotationAdjust: set factor to 0.181
ElecMinimize: Iter:  16  F: -2862.477273315129878  |grad|_K:  3.053e-09  alpha:  4.832e-01  linmin:  2.308e-04  t[s]: 163508.35
ElecMinimize: Converged (|Delta F|<1.000000e-08 for 2 iters).
Setting wave functions to eigenvectors of Hamiltonian

# Ionic positions in cartesian coordinates:
ion Pt  -0.349852801753038   0.000511014663625   0.000765550199699 1
ion Pt   0.019822569733344   3.687219504083393   3.686998135601046 1
ion Pt   3.705936882172355   0.000573159241123   4.057262449077782 1
ion Pt   3.706440646189444   4.056312370447250   0.000202824344221 1
ion Pt  -0.101582794282274   0.000188130730337   7.414247659064620 1
ion Pt   0.019890495202034   3.686636388776275  11.140808856375187 1
ion Pt   3.706266292211686   0.000327707338501  10.771249849521185 1
ion Pt   3.706500602124160   3.808364573624015   7.413982359781264 1
ion Pt  -0.100965792259557   7.413890715046020   0.000211254329340 1
ion Pt   0.019636612438473  11.140780135000211   3.687158209058087 1
ion Pt   3.706776109223779   7.413835167749390   3.808173236520353 1
ion Pt   3.706560282988573  10.770792408734692   0.000161858865193 1
ion Pt  -0.044082080588386   7.414149356735216   7.414059633334212 1
ion Pt   0.019824155936464  11.140752083503278  11.141018489720690 1
[...]
	FillingsUpdate:  mu: +0.838970402  nElectrons: 518.000000
	SubspaceRotationAdjust: set factor to 0.172
ElecMinimize: Iter:   5  F: -2862.477261041638485  |grad|_K:  1.707e-07  alpha:  4.022e-01  linmin:  1.232e-06  t[s]: 169766.07
	FillingsUpdate:  mu: +0.838972663  nElectrons: 518.000000
	SubspaceRotationAdjust: set factor to 0.161
ElecMinimize: Iter:   6  F: -2862.477263584827597  |grad|_K:  8.088e-08  alpha:  4.424e-01  linmin: -5.850e-06  t[s]: 170822.53
	FillingsUpdate:  mu: +0.838972140  nElectrons: 518.000000
	SubspaceRotationAdjust: set factor to 0.198
ElecMinimize: Iter:   7  F: -2862.477264157259924  |grad|_K:  4.359e-08  alpha:  4.435e-01  linmin: -1.665e-06  t[s]: 171894.94
	FillingsUpdate:  mu: +0.838972336  nElectrons: 518.000000
	SubspaceRotationAdjust: set factor to 0.274
ElecMinimize: Iter:   8  F: -2862.477264361163179  |grad|_K:  3.081e-08  alpha:  5.440e-01  linmin: -5.126e-06  t[s]: 172967.39
	FillingsUpdate:  mu: +0.838972495  nElectrons: 518.000000
	SubspaceRotationAdjust: set factor to 0.369
ElecMinimize: Iter:   9  F: -2862.477264483711224  |grad|_K:  2.710e-08  alpha:  6.557e-01  linmin: -9.839e-07  t[s]: 174040.63
	FillingsUpdate:  mu: +0.838972179  nElectrons: 518.000000
	SubspaceRotationAdjust: set factor to 0.389
ElecMinimize: Iter:  10  F: -2862.477264573112279  |grad|_K:  2.531e-08  alpha:  6.173e-01  linmin:  3.505e-06  t[s]: 175096.16
	FillingsUpdate:  mu: +0.838972703  nElectrons: 518.000000
	SubspaceRotationAdjust: set factor to 0.279
ElecMinimize: Iter:  11  F: -2862.477264610074144  |grad|_K:  2.019e-08  alpha:  2.930e-01  linmin:  3.690e-06  t[s]: 176152.62
	FillingsUpdate:  mu: +0.838972511  nElectrons: 518.000000
	SubspaceRotationAdjust: set factor to 0.2
ElecMinimize: Iter:  12  F: -2862.477264631757862  |grad|_K:  1.099e-08  alpha:  2.734e-01  linmin:  1.525e-05  t[s]: 177204.28
	FillingsUpdate:  mu: +0.838972613  nElectrons: 518.000000
	SubspaceRotationAdjust: set factor to 0.23
ElecMinimize: Iter:  13  F: -2862.477264642159298  |grad|_K:  6.333e-09  alpha:  4.468e-01  linmin:  9.324e-05  t[s]: 178251.84
	FillingsUpdate:  mu: +0.838972629  nElectrons: 518.000000
	SubspaceRotationAdjust: set factor to 0.268
ElecMinimize: Iter:  14  F: -2862.477264645290688  |grad|_K:  3.975e-09  alpha:  4.210e-01  linmin: -5.031e-05  t[s]: 179304.65
	FillingsUpdate:  mu: +0.838972588  nElectrons: 518.000000
	SubspaceRotationAdjust: set factor to 0.267
ElecMinimize: Iter:  15  F: -2862.477264646758613  |grad|_K:  3.643e-09  alpha:  5.065e-01  linmin:  4.505e-05  t[s]: 180357.31
ElecMinimize: Converged (|Delta F|<1.000000e-08 for 2 iters).
Setting wave functions to eigenvectors of Hamiltonian
IonicMinimize: 	Wolfe criterion not satisfied: alpha: 1  (E-E0)/|gdotd0|: 0.133102  gdotd/gdotd0: -1.29986 (taking cubic step)

-------- Electronic minimization -----------
	FillingsUpdate:  mu: +0.838970361  nElectrons: 518.000000
ElecMinimize: Iter:   0  F: -2862.477254457434356  |grad|_K:  4.698e-07  alpha:  1.000e+00
	FillingsUpdate:  mu: +0.838974236  nElectrons: 518.000000
	SubspaceRotationAdjust: set factor to 0.269
ElecMinimize: Iter:   1  F: -2862.477271242200459  |grad|_K:  2.356e-07  alpha:  3.856e-01  linmin:  1.218e-06  t[s]: 182363.58
	FillingsUpdate:  mu: +0.838968853  nElectrons: 518.000000
	SubspaceRotationAdjust: set factor to 0.205
ElecMinimize: Iter:   2  F: -2862.477276382848686  |grad|_K:  2.257e-07  alpha:  4.696e-01  linmin:  9.457e-07  t[s]: 183430.32
	FillingsUpdate:  mu: +0.838973893  nElectrons: 518.000000
	SubspaceRotationAdjust: set factor to 0.185
ElecMinimize: Iter:   3  F: -2862.477281025795492  |grad|_K:  1.898e-07  alpha:  4.623e-01  linmin: -8.151e-06  t[s]: 184492.17
	FillingsUpdate:  mu: +0.838973115  nElectrons: 518.000000
	SubspaceRotationAdjust: set factor to 0.22
ElecMinimize: Iter:   4  F: -2862.477285018547263  |grad|_K:  1.398e-07  alpha:  5.621e-01  linmin: -4.085e-07  t[s]: 185550.19
	FillingsUpdate:  mu: +0.838972248  nElectrons: 518.000000
	SubspaceRotationAdjust: set factor to 0.222
ElecMinimize: Iter:   5  F: -2862.477286703564914  |grad|_K:  8.435e-08  alpha:  4.374e-01  linmin:  3.986e-06  t[s]: 186600.85
	FillingsUpdate:  mu: +0.838973560  nElectrons: 518.000000
	SubspaceRotationAdjust: set factor to 0.178
ElecMinimize: Iter:   6  F: -2862.477287259477635  |grad|_K:  5.343e-08  alpha:  3.962e-01  linmin:  7.223e-06  t[s]: 187650.98
	FillingsUpdate:  mu: +0.838972673  nElectrons: 518.000000
	SubspaceRotationAdjust: set factor to 0.175
ElecMinimize: Iter:   7  F: -2862.477287446359242  |grad|_K:  2.750e-08  alpha:  3.316e-01  linmin: -1.296e-05  t[s]: 188703.77
	FillingsUpdate:  mu: +0.838972765  nElectrons: 518.000000
	SubspaceRotationAdjust: set factor to 0.241
ElecMinimize: Iter:   8  F: -2862.477287516053821  |grad|_K:  1.854e-08  alpha:  4.658e-01  linmin: -3.340e-05  t[s]: 189749.57
	FillingsUpdate:  mu: +0.838973002  nElectrons: 518.000000
	SubspaceRotationAdjust: set factor to 0.256
ElecMinimize: Iter:   9  F: -2862.477287551399513  |grad|_K:  1.577e-08  alpha:  5.195e-01  linmin: -4.485e-05  t[s]: 190810.89
	FillingsUpdate:  mu: +0.838972687  nElectrons: 518.000000
	SubspaceRotationAdjust: set factor to 0.243
ElecMinimize: Iter:  10  F: -2862.477287574806724  |grad|_K:  1.426e-08  alpha:  4.741e-01  linmin:  3.447e-05  t[s]: 191862.65
	FillingsUpdate:  mu: +0.838972904  nElectrons: 518.000000
	SubspaceRotationAdjust: set factor to 0.235
ElecMinimize: Iter:  11  F: -2862.477287592713310  |grad|_K:  9.762e-09  alpha:  4.502e-01  linmin: -7.489e-06  t[s]: 192921.42
	FillingsUpdate:  mu: +0.838972799  nElectrons: 518.000000
	SubspaceRotationAdjust: set factor to 0.244
ElecMinimize: Iter:  12  F: -2862.477287601251192  |grad|_K:  5.358e-09  alpha:  4.486e-01  linmin: -2.586e-05  t[s]: 193980.18
	FillingsUpdate:  mu: +0.838972765  nElectrons: 518.000000
	SubspaceRotationAdjust: set factor to 0.202
ElecMinimize: Iter:  13  F: -2862.477287603499917  |grad|_K:  3.391e-09  alpha:  3.905e-01  linmin: -2.096e-06  t[s]: 195029.94
ElecMinimize: Converged (|Delta F|<1.000000e-08 for 2 iters).
Setting wave functions to eigenvectors of Hamiltonian

# Ionic positions in cartesian coordinates:
ion Pt  -0.350331486498988   0.000451128242925   0.000628163625149 1
ion Pt   0.021366124207336   3.685421806118442   3.685402479716755 1
ion Pt   3.705998980671567   0.000509421220016   4.057808025730255 1
ion Pt   3.706378451422154   4.056796890934641   0.000170133195483 1
ion Pt  -0.100654217322336   0.000204670169524   7.414246791480696 1
ion Pt   0.021438109837910   3.685022133481901  11.142445237751430 1
ion Pt   3.706218833098554   0.000375035668463  10.770802929476467 1
ion Pt   3.706456596367191   3.807325664095512   7.414048482917829 1
ion Pt  -0.100184241365795   7.413821700612552   0.000337623285883 1
ion Pt   0.021314638698891  11.142441852363964   3.685454528529666 1
ion Pt   3.706680549961999   7.413784613094053   3.807264079800548 1
ion Pt   3.706483541222444  10.770340132812347   0.000180682075205 1
ion Pt  -0.047278602430773   7.414029497451501   7.414003847111782 1
ion Pt   0.021366320678129  11.142440253275049  11.142655827673591 1
ion Pt   3.706564663424480   7.413500288431779  11.020529572317875 1
ion Pt   3.706661975216910  11.020110858749840   7.414192362478050 1
ion Pt   7.763562132095502   0.000433174799574   0.000338464237796 1
ion Pt   7.391416422606194   3.684752868313459   3.684995001640583 1
ion Pt  11.119774582171067   0.000231272043632   3.807653942201860 1
ion Pt  11.120043426132058   3.807262012558500   0.000470751723423 1
ion Pt   7.513129515014487   0.000376062262385   7.414168904872337 1
ion Pt   7.391447241553185   3.684630573618603  11.142660768484586 1
ion Pt  11.119873726740282   0.000349384823567  11.020627089998689 1
ion Pt  11.119729757503496   3.754322599537248   7.413822489668605 1
ion Pt   7.513186154865783   7.413463386257178   0.000328157837811 1
ion Pt   7.391211613393151  11.142720609306819   3.685070299722100 1
ion Pt  11.119527853335175   7.414010176586087   3.754208032314722 1
ion Pt  11.119813403395078  11.020173394364155   0.000322395731399 1
ion Pt   7.459914312837154   7.413460124674870   7.413951491467119 1
ion Pt   7.391237983412061  11.142429316929116  11.142874204766176 1
ion Pt  11.119618439337721   7.413476114186235  11.073491780732331 1
ion Pt  11.119176699276714  11.073138449122784   7.414327851213472 1
ion O   3.706947499141238  -0.000309466106701   0.002013606220337 1

# Forces in Cartesian coordinates:
force Pt   0.000304124075295  -0.000000614871920   0.000007681463837 1
force Pt   0.000094139650524  -0.000121991863398  -0.000104208814296 1
force Pt  -0.000015980669812   0.000001100303593  -0.000313669915646 1
force Pt  -0.000035163548704  -0.000312709439165   0.000026761962005 1
force Pt  -0.000086217894552   0.000004357558371  -0.000029485017598 1
force Pt   0.000081383817170  -0.000093255444658   0.000105267278423 1
force Pt  -0.000026372888264   0.000003868507194   0.000321360978731 1
force Pt  -0.000024718957703   0.000094304051182  -0.000021010360512 1
force Pt  -0.000102303694289  -0.000009795021448   0.000039426203479 1
force Pt   0.000102780242670   0.000102808976855  -0.000113787928389 1
force Pt  -0.000032067166459  -0.000010696047168   0.000098604440040 1
force Pt  -0.000032622278483   0.000307022801707   0.000024977729718 1
force Pt   0.000132348483833  -0.000013499466974  -0.000027268218088 1
force Pt   0.000092352292613   0.000092759476040   0.000099408661928 1
force Pt  -0.000027914192436   0.000010472379752  -0.000097395671657 1
force Pt  -0.000032123623908  -0.000097328596573  -0.000025391720229 1
force Pt  -0.000305120157069   0.000005098791803   0.000018434456441 1
force Pt  -0.000100259357403  -0.000094053591852  -0.000092708243081 1
force Pt   0.000026035782797   0.000003370951025   0.000095874209079 1
force Pt   0.000016801172432   0.000105473726886   0.000030472834891 1
force Pt   0.000098906500839  -0.000002926865195  -0.000023785794396 1
force Pt  -0.000090622222788  -0.000085124168013   0.000097266611094 1
force Pt   0.000021145307509  -0.000001723764032  -0.000118258929083 1
force Pt   0.000018552692028  -0.000099984584908  -0.000016913980169 1
force Pt   0.000090940276713   0.000009409815255   0.000033205146074 1
force Pt  -0.000092919976632   0.000094228587270  -0.000102270956934 1
force Pt   0.000029607755578  -0.000010949302656  -0.000096631587927 1
force Pt   0.000022058418790  -0.000108548491416   0.000038189994726 1
force Pt  -0.000124719676727   0.000014458769072  -0.000027756902009 1
force Pt  -0.000083378215137   0.000105707426667   0.000088918796571 1
force Pt   0.000028573423370   0.000012110910634   0.000104139751704 1
force Pt   0.000045091612448   0.000096953368718  -0.000042248242789 1
force O  -0.000004315098492  -0.000006597019505   0.000032166038176 1

# Energy components:
   Eewald =    -2556.2155643952364699
       EH =      393.4115677184832975
     Eloc =    -1201.1304091549525310
      Enl =      -31.4842089746210583
      Exc =     -914.9398723296003482
 Exc_core =      524.5892924150713270
       KE =      923.3660413728065350
-------------------------------------
     Etot =    -2862.4031533480492726
       TS =        0.0741342554504960
-------------------------------------
        F =    -2862.4772876034999172

IonicMinimize: Iter:   6  F: -2862.477287603499917  |grad|_K:  1.019e-04  alpha:  4.457e-01  linmin:  1.964e-02  t[s]: 195175.91

#--- Lowdin population analysis ---
# oxidation-state Pt +0.059 -0.006 +0.059 +0.059 +0.007 -0.006 +0.059 +0.007 +0.007 -0.006 +0.007 +0.059 +0.011 -0.006 +0.007 +0.007 +0.059 -0.006 +0.007 +0.007 +0.007 -0.007 +0.007 +0.011 +0.007 -0.006 +0.011 +0.007 +0.011 -0.007 +0.011 +0.011
# oxidation-state O -0.159


-------- Electronic minimization -----------
	FillingsUpdate:  mu: +0.838972858  nElectrons: 518.000000
ElecMinimize: Iter:   0  F: -2862.477287298931515  |grad|_K:  1.341e-07  alpha:  1.000e+00
	FillingsUpdate:  mu: +0.838971076  nElectrons: 518.000000
	SubspaceRotationAdjust: set factor to 0.171
ElecMinimize: Iter:   1  F: -2862.477288351101834  |grad|_K:  6.562e-08  alpha:  2.964e-01  linmin: -1.438e-06  t[s]: 197065.84
	FillingsUpdate:  mu: +0.838972619  nElectrons: 518.000000
	SubspaceRotationAdjust: set factor to 0.194
ElecMinimize: Iter:   2  F: -2862.477288725577182  |grad|_K:  4.456e-08  alpha:  4.406e-01  linmin: -4.103e-05  t[s]: 198133.04
	FillingsUpdate:  mu: +0.838972355  nElectrons: 518.000000
	SubspaceRotationAdjust: set factor to 0.241
ElecMinimize: Iter:   3  F: -2862.477289041111362  |grad|_K:  4.782e-08  alpha:  8.038e-01  linmin: -2.520e-05  t[s]: 199192.68
	FillingsUpdate:  mu: +0.838972253  nElectrons: 518.000000
	SubspaceRotationAdjust: set factor to 0.27
ElecMinimize: Iter:   4  F: -2862.477289355554149  |grad|_K:  4.113e-08  alpha:  6.957e-01  linmin:  3.714e-06  t[s]: 200256.77
	FillingsUpdate:  mu: +0.838972443  nElectrons: 518.000000
	SubspaceRotationAdjust: set factor to 0.246
ElecMinimize: Iter:   5  F: -2862.477289520883005  |grad|_K:  2.642e-08  alpha:  4.962e-01  linmin: -4.566e-06  t[s]: 201327.10
	FillingsUpdate:  mu: +0.838972199  nElectrons: 518.000000
	SubspaceRotationAdjust: set factor to 0.185
ElecMinimize: Iter:   6  F: -2862.477289571769234  |grad|_K:  1.689e-08  alpha:  3.695e-01  linmin:  5.669e-06  t[s]: 202394.44
	FillingsUpdate:  mu: +0.838972341  nElectrons: 518.000000
	SubspaceRotationAdjust: set factor to 0.172
ElecMinimize: Iter:   7  F: -2862.477289589741758  |grad|_K:  8.007e-09  alpha:  3.214e-01  linmin:  2.660e-05  t[s]: 203443.82
	FillingsUpdate:  mu: +0.838972263  nElectrons: 518.000000
	SubspaceRotationAdjust: set factor to 0.22
ElecMinimize: Iter:   8  F: -2862.477289595750335  |grad|_K:  5.180e-09  alpha:  4.914e-01  linmin:  1.345e-04  t[s]: 204508.12
	FillingsUpdate:  mu: +0.838972294  nElectrons: 518.000000
	SubspaceRotationAdjust: set factor to 0.251
ElecMinimize: Iter:   9  F: -2862.477289598043171  |grad|_K:  3.668e-09  alpha:  4.531e-01  linmin: -9.641e-05  t[s]: 205571.98
ElecMinimize: Converged (|Delta F|<1.000000e-08 for 2 iters).
Setting wave functions to eigenvectors of Hamiltonian

# Ionic positions in cartesian coordinates:
ion Pt  -0.349680373514395   0.000440130305896   0.000628754063490 1
ion Pt   0.022064519904197   3.684579323033755   3.684654115940374 1
ion Pt   3.705963575928447   0.000505049926929   4.057086490640454 1
ion Pt   3.706254391847431   4.056086134191336   0.000256320677315 1
ion Pt  -0.100785356896009   0.000222596560434   7.414143309770055 1
ion Pt   0.022085623368553   3.684315332618744  11.143207837611671 1
ion Pt   3.706133258976089   0.000397630506016  10.771547556763073 1
ion Pt   3.706378906434763   3.807463895209377   7.413989403674014 1
ion Pt  -0.100388986158096   7.413776953712211   0.000486742842563 1
ion Pt   0.022063847818137  11.143196510375216   3.684653244498889 1
ion Pt   3.706567805693763   7.413736538177726   3.807438043675420 1
ion Pt   3.706367664999048  10.771031476798781   0.000264726530372 1
ion Pt  -0.046963884536325   7.413967509385349   7.413907397797654 1
ion Pt   0.022062063121340  11.143155199007980  11.143391084034151 1
ion Pt   3.706474921468277   7.413547138140665  11.020370664672079 1
ion Pt   3.706547428050584  11.019963019703626   7.414102428353235 1
ion Pt   7.762890453371610   0.000460039301263   0.000387968268121 1
ion Pt   7.390686643097866   3.684045315207779   3.684295384179630 1
ion Pt  11.119858431367577   0.000245857982536   3.807834811774113 1
ion Pt  11.120081959871547   3.807471711548798   0.000576166232182 1
ion Pt   7.513314181887571   0.000360983131546   7.414078592038913 1
ion Pt   7.390752075800297   3.683959749773633  11.143388973503040 1
ion Pt  11.119945508959043   0.000338683711672  11.020355611427304 1
ion Pt  11.119780208706899   3.754151296833824   7.413778082259301 1
ion Pt   7.513337310514251   7.413506301745848   0.000441494288227 1
ion Pt   7.390513932498944  11.143438618475139   3.684326831963725 1
ion Pt  11.119636745768455   7.413957998889448   3.754054918787809 1
ion Pt  11.119880255552562  11.019953904099316   0.000465571629439 1
ion Pt   7.459641923307244   7.413527049697382   7.413857266068981 1
ion Pt   7.390589991476472  11.143198165168632  11.143552360103529 1
ion Pt  11.119717057854274   7.413533860734873  11.073675591956011 1
ion Pt  11.119354712030578  11.073300009186930   7.414167334454118 1
ion O   3.706964201429024  -0.000337983142639   0.002130919520754 1

# Forces in Cartesian coordinates:
force Pt   0.000115170966171   0.000000595339855  -0.000002186956180 1
force Pt   0.000024998845843  -0.000047320170114  -0.000030382869585 1
force Pt  -0.000008520352774   0.000001677240648  -0.000119710960120 1
force Pt  -0.000024520632454  -0.000119494580756   0.000013241085064 1
force Pt  -0.000016872223380   0.000003169755166  -0.000013893207903 1
force Pt   0.000014836641753  -0.000024626815129   0.000030992030198 1
force Pt  -0.000019445588697   0.000003438574212   0.000121242982798 1
force Pt  -0.000015546085808   0.000024506506667  -0.000006618807873 1
force Pt  -0.000028517260920  -0.000006962769265   0.000025362770174 1
force Pt   0.000031278348798   0.000031933350794  -0.000036854880136 1
force Pt  -0.000021865363472  -0.000007379397321   0.000028060039210 1
force Pt  -0.000024525485106   0.000114821771372   0.000014526688187 1
force Pt   0.000045348417550  -0.000010630684894  -0.000016301619980 1
force Pt   0.000022036020927   0.000023911054329   0.000027361322866 1
force Pt  -0.000018173714912   0.000005504731680  -0.000028401937155 1
force Pt  -0.000021309285067  -0.000025479640787  -0.000012146659936 1
force Pt  -0.000108393278669   0.000004221070819   0.000008826988148 1
force Pt  -0.000029359515822  -0.000026201530518  -0.000021725455721 1
force Pt   0.000013431904017   0.000002527588705   0.000025711593761 1
force Pt   0.000005806726156   0.000031977392157   0.000018412842783 1
force Pt   0.000028461773716  -0.000002416724985  -0.000010210886744 1
force Pt  -0.000022389151873  -0.000015981390241   0.000025973477305 1
force Pt   0.000010456948264  -0.000001696415505  -0.000042989495820 1
force Pt   0.000011457736372  -0.000023642295603  -0.000009978311114 1
force Pt   0.000022485600294   0.000004984048652   0.000020615655299 1
force Pt  -0.000025007515958   0.000026307903728  -0.000028243700099 1
force Pt   0.000018217430434  -0.000009175497926  -0.000018475317482 1
force Pt   0.000011678861754  -0.000033061287518   0.000023706327373 1
force Pt  -0.000041281870657   0.000010667930518  -0.000016002824206 1
force Pt  -0.000017708430115   0.000033021521532   0.000020988586055 1
force Pt   0.000017360980259   0.000009341060568   0.000025568912940 1
force Pt   0.000032697201145   0.000022771506824  -0.000029861758683 1
force O   0.000004777985089  -0.000006692149400   0.000018751518413 1

# Energy components:
   Eewald =    -2556.2222568549905191
       EH =      393.4045766639754902
     Eloc =    -1201.1166824630809060
      Enl =      -31.4842804771895786
      Exc =     -914.9397996383054306
 Exc_core =      524.5892922543235954
       KE =      923.3659916230835734
-------------------------------------
     Etot =    -2862.4031588921843650
       TS =        0.0741307058589697
-------------------------------------
        F =    -2862.4772895980431713

IonicMinimize: Iter:   7  F: -2862.477289598043171  |grad|_K:  3.572e-05  alpha:  1.000e+00  linmin: -7.769e-01  t[s]: 205717.46
IonicMinimize: Converged (|grad|_K<1.000000e-04).

#--- Lowdin population analysis ---
# oxidation-state Pt +0.059 -0.006 +0.059 +0.059 +0.007 -0.006 +0.059 +0.007 +0.007 -0.006 +0.007 +0.059 +0.011 -0.006 +0.007 +0.007 +0.059 -0.006 +0.007 +0.007 +0.007 -0.007 +0.007 +0.011 +0.007 -0.006 +0.011 +0.007 +0.011 -0.007 +0.010 +0.011
# oxidation-state O -0.159


Dumping 'Pt32O_tet.Ecomponents' ... done
End date and time: Tue Jan 30 20:55:24 2024  (Duration: 2-9:10:58.14)
Done!
