--------------------------------------------------------------------------
[[59354,1],0]: A high-performance Open MPI point-to-point messaging module
was unable to find any relevant network interfaces:

Module: OpenFabrics (openib)
  Host: node3216

Another transport will be used instead, although this may result in
lower performance.
--------------------------------------------------------------------------

*************** JDFTx 1.7.0  ***************

Start date and time: Sun Jan 28 11:40:55 2024
Executable jdftx with command-line: -i /home/cam559/Valla_project/Pd/Pd32.in
Running on hosts (process indices):  node3216.physics.cornell.edu (0-9)
Divided in process groups (process indices):  0 (0)  1 (1)  2 (2)  3 (3)  4 (4)  5 (5)  6 (6)  7 (7)  8 (8)  9 (9)
Resource initialization completed at t[s]:      0.00
Run totals: 10 processes, 40 threads, 0 GPUs


Input parsed successfully to the following command list (including defaults):

basis kpoint-dependent
coords-type Cartesian
core-overlap-check vector
coulomb-interaction Periodic
davidson-band-ratio 1.1
dump End Ecomponents
dump-name Pd32.$VAR
elec-cutoff 20 100
elec-eigen-algo Davidson
elec-ex-corr gga-PBE
elec-smearing Fermi 0.004
electronic-minimize  \
	dirUpdateScheme      FletcherReeves \
	linminMethod         DirUpdateRecommended \
	nIterations          100 \
	history              15 \
	knormThreshold       0 \
	energyDiffThreshold  1e-08 \
	nEnergyDiff          2 \
	alphaTstart          1 \
	alphaTmin            1e-10 \
	updateTestStepSize   yes \
	alphaTreduceFactor   0.1 \
	alphaTincreaseFactor 3 \
	nAlphaAdjustMax      3 \
	wolfeEnergy          0.0001 \
	wolfeGradient        0.9 \
	fdTest               no
exchange-regularization WignerSeitzTruncated
fluid None
fluid-ex-corr lda-TF lda-PZ
fluid-gummel-loop 10 1.000000e-05
fluid-minimize  \
	dirUpdateScheme      PolakRibiere \
	linminMethod         DirUpdateRecommended \
	nIterations          100 \
	history              15 \
	knormThreshold       0 \
	energyDiffThreshold  0 \
	nEnergyDiff          2 \
	alphaTstart          1 \
	alphaTmin            1e-10 \
	updateTestStepSize   yes \
	alphaTreduceFactor   0.1 \
	alphaTincreaseFactor 3 \
	nAlphaAdjustMax      3 \
	wolfeEnergy          0.0001 \
	wolfeGradient        0.9 \
	fdTest               no
fluid-solvent H2O 55.338 ScalarEOS \
	epsBulk 78.4 \
	pMol 0.92466 \
	epsInf 1.77 \
	Pvap 1.06736e-10 \
	sigmaBulk 4.62e-05 \
	Rvdw 2.61727 \
	Res 1.42 \
	tauNuc 343133 \
	poleEl 15 7 1
forces-output-coords Positions
initial-state Pd32.$VAR
ion Pd   0.001000000000000   0.000000000000000   0.000000000000000 1
ion Pd   0.000000000000000   3.676517000000000   3.675517000000001 1
ion Pd   3.675517000000001   0.000000000000000   3.676517000000000 1
ion Pd   3.675517000000001   3.675517000000001   0.000000000000000 1
ion Pd   0.000000000000000   0.000000000000000   7.351035000000001 1
ion Pd   0.000000000000000   3.675517000000001  11.026552000000002 1
ion Pd   3.675517000000001   0.000000000000000  11.026552000000002 1
ion Pd   3.675517000000001   3.675517000000001   7.351035000000001 1
ion Pd   0.000000000000000   7.351035000000001   0.000000000000000 1
ion Pd   0.000000000000000  11.026552000000002   3.675517000000001 1
ion Pd   3.675517000000001   7.351035000000001   3.675517000000001 1
ion Pd   3.675517000000001  11.026552000000002   0.000000000000000 1
ion Pd   0.000000000000000   7.351035000000001   7.351035000000001 1
ion Pd   0.000000000000000  11.026552000000002  11.026552000000002 1
ion Pd   3.675517000000001   7.351035000000001  11.026552000000002 1
ion Pd   3.675517000000001  11.026552000000002   7.351035000000001 1
ion Pd   7.351035000000001   0.000000000000000   0.000000000000000 1
ion Pd   7.351035000000001   3.675517000000001   3.675517000000001 1
ion Pd  11.026552000000002   0.000000000000000   3.675517000000001 1
ion Pd  11.026552000000002   3.675517000000001   0.000000000000000 1
ion Pd   7.351035000000001   0.000000000000000   7.351035000000001 1
ion Pd   7.351035000000001   3.675517000000001  11.026552000000002 1
ion Pd  11.026552000000002   0.000000000000000  11.026552000000002 1
ion Pd  11.026552000000002   3.675517000000001   7.351035000000001 1
ion Pd   7.351035000000001   7.351035000000001   0.000000000000000 1
ion Pd   7.351035000000001  11.026552000000002   3.675517000000001 1
ion Pd  11.026552000000002   7.351035000000001   3.675517000000001 1
ion Pd  11.026552000000002  11.026552000000002   0.000000000000000 1
ion Pd   7.351035000000001   7.351035000000001   7.351035000000001 1
ion Pd   7.351035000000001  11.026552000000002  11.026552000000002 1
ion Pd  11.026552000000002   7.351035000000001  11.026552000000002 1
ion Pd  11.026552000000002  11.026552000000002   7.351035000000001 1
ion-species GBRV/$ID_pbe.uspp
ion-width 0
ionic-minimize  \
	dirUpdateScheme      L-BFGS \
	linminMethod         DirUpdateRecommended \
	nIterations          30 \
	history              15 \
	knormThreshold       0.0001 \
	energyDiffThreshold  1e-05 \
	nEnergyDiff          2 \
	alphaTstart          1 \
	alphaTmin            1e-10 \
	updateTestStepSize   yes \
	alphaTreduceFactor   0.1 \
	alphaTincreaseFactor 3 \
	nAlphaAdjustMax      3 \
	wolfeEnergy          0.0001 \
	wolfeGradient        0.9 \
	fdTest               no
kpoint   0.000000000000   0.000000000000   0.000000000000  1.00000000000000
kpoint-folding 4 4 4 
latt-move-scale 1 1 1
latt-scale 1 1 1 
lattice  \
	  14.702069000000000    0.000000000000000    0.000000000000000  \
	   0.000000000000000   14.702069000000000    0.000000000000000  \
	   0.000000000000000    0.000000000000000   14.702069000000000 
lattice-minimize  \
	dirUpdateScheme      L-BFGS \
	linminMethod         DirUpdateRecommended \
	nIterations          0 \
	history              15 \
	knormThreshold       0 \
	energyDiffThreshold  1e-06 \
	nEnergyDiff          2 \
	alphaTstart          1 \
	alphaTmin            1e-10 \
	updateTestStepSize   yes \
	alphaTreduceFactor   0.1 \
	alphaTincreaseFactor 3 \
	nAlphaAdjustMax      3 \
	wolfeEnergy          0.0001 \
	wolfeGradient        0.9 \
	fdTest               no
lcao-params -1 1e-06 0.004
pcm-variant GLSSA13
spintype no-spin
subspace-rotation-factor 1 yes
symmetries automatic
symmetry-threshold 0.0001



---------- Setting up symmetries ----------

Found 48 point-group symmetries of the bravais lattice
Found 1 space-group symmetries with basis
Applied RMS atom displacement 0 bohrs to make symmetries exact.

---------- Initializing the Grid ----------
R = 
[      14.7021            0            0  ]
[            0      14.7021            0  ]
[            0            0      14.7021  ]
unit cell volume = 3177.86
G =
[   0.427367          0          0  ]
[          0   0.427367          0  ]
[          0          0   0.427367  ]
Minimum fftbox size, Smin = [  68  68  68  ]
Chosen fftbox size, S = [  70  70  70  ]

---------- Initializing tighter grid for wavefunction operations ----------
R = 
[      14.7021            0            0  ]
[            0      14.7021            0  ]
[            0            0      14.7021  ]
unit cell volume = 3177.86
G =
[   0.427367          0          0  ]
[          0   0.427367          0  ]
[          0          0   0.427367  ]
Minimum fftbox size, Smin = [  60  60  60  ]
Chosen fftbox size, S = [  60  60  60  ]

---------- Exchange Correlation functional ----------
Initalized PBE GGA exchange.
Initalized PBE GGA correlation.

---------- Setting up pseudopotentials ----------
Width of ionic core gaussian charges (only for fluid interactions / plotting) set to 0

Reading pseudopotential file '/home/cam559/JDFTx/build/pseudopotentials/GBRV/pd_pbe.uspp':
  Title: Pd.  Created by USPP 7.3.6 on 31-3-15
  Reference state energy: -99.095797.  16 valence electrons in orbitals:
    |410>  occupation: 6  eigenvalue: -2.075344
    |420>  occupation: 9.5  eigenvalue: -0.331049
    |500>  occupation: 0  eigenvalue: -0.255738
    |510>  occupation: 0  eigenvalue: -0.109005
  lMax: 2  lLocal: 3  QijEcut: 6
  6 projectors sampled on a log grid with 717 points:
    l: 0  eig: -0.255738  rCut: 2.5
    l: 0  eig: 1.000000  rCut: 2.5
    l: 1  eig: -2.075343  rCut: 1.53
    l: 1  eig: -0.109006  rCut: 1.53
    l: 2  eig: -0.331048  rCut: 1.63
    l: 2  eig: 1.500000  rCut: 1.63
  Partial core density with radius 1
  Transforming core density to a uniform radial grid of dG=0.02 with 1301 points.
  Transforming local potential to a uniform radial grid of dG=0.02 with 1301 points.
  Transforming nonlocal projectors to a uniform radial grid of dG=0.02 with 432 points.
  Transforming density augmentations to a uniform radial grid of dG=0.02 with 1301 points.
  Transforming atomic orbitals to a uniform radial grid of dG=0.02 with 432 points.
  Core radius for overlap checks: 2.50 bohrs.

Initialized 1 species with 32 total atoms.

Folded 1 k-points by 4x4x4 to 64 k-points.

---------- Setting up k-points, bands, fillings ----------
Adding inversion symmetry to k-mesh for non-inversion-symmetric unit cell.
Reduced to 36 k-points under symmetry. 
Computing the number of bands and number of electrons
Calculating initial fillings.
nElectrons: 512.000000   nBands: 384   nStates: 36

----- Setting up reduced wavefunction bases (one per k-point) -----
average nbasis = 13570.359 , ideal nbasis = 13576.079

---------- Setting up ewald sum ----------
Optimum gaussian width for ewald sums = 3.291775 bohr.
Real space sum over 729 unit cells with max indices [  4  4  4  ]
Reciprocal space sum over 4913 terms with max indices [  8  8  8  ]

---------- Allocating electronic variables ----------
Initializing wave functions:  linear combination of atomic orbitals
Pd pseudo-atom occupations:   s ( 0 )  p ( 6 0 )  d ( 10 )
	FillingsUpdate:  mu: +0.579156220  nElectrons: 512.000000
LCAOMinimize: Iter:   0  F: -3066.0487178617008794  |grad|_K:  1.342e-03  alpha:  1.000e+00
	FillingsUpdate:  mu: +0.691454288  nElectrons: 512.000000
LCAOMinimize: Iter:   1  F: -3068.6600631502883516  |grad|_K:  1.724e-05  alpha:  5.164e-01  linmin: -2.755e-02  cgtest:  1.713e-01  t[s]:    562.95
LCAOMinimize: Encountered beta<0, resetting CG.
	FillingsUpdate:  mu: +0.691458349  nElectrons: 512.000000
LCAOMinimize: Iter:   2  F: -3068.6601040277710126  |grad|_K:  5.868e-06  alpha:  5.173e-02  linmin:  2.496e-03  cgtest: -1.005e-02  t[s]:    742.87
	FillingsUpdate:  mu: +0.691527407  nElectrons: 512.000000
LCAOMinimize: Iter:   3  F: -3068.6601182189433530  |grad|_K:  5.353e-06  alpha:  1.550e-01  linmin: -1.977e-05  cgtest:  5.384e-03  t[s]:    919.71
	FillingsUpdate:  mu: +0.691725118  nElectrons: 512.000000
LCAOMinimize: Iter:   4  F: -3068.6601425618459871  |grad|_K:  2.780e-06  alpha:  3.185e-01  linmin:  9.297e-05  cgtest: -1.333e-02  t[s]:   1097.41
	FillingsUpdate:  mu: +0.691730009  nElectrons: 512.000000
LCAOMinimize: Iter:   5  F: -3068.6601452332592999  |grad|_K:  1.433e-06  alpha:  1.296e-01  linmin: -9.244e-05  cgtest:  2.192e-03  t[s]:   1279.22
	FillingsUpdate:  mu: +0.691714291  nElectrons: 512.000000
LCAOMinimize: Iter:   6  F: -3068.6601458874652053  |grad|_K:  1.557e-06  alpha:  1.194e-01  linmin: -8.238e-07  cgtest: -3.828e-04  t[s]:   1457.77
	FillingsUpdate:  mu: +0.691664729  nElectrons: 512.000000
LCAOMinimize: Iter:   7  F: -3068.6601470773957772  |grad|_K:  8.087e-07  alpha:  1.842e-01  linmin:  1.654e-04  cgtest:  3.561e-04  t[s]:   1632.02
	FillingsUpdate:  mu: +0.691655994  nElectrons: 512.000000
LCAOMinimize: Iter:   8  F: -3068.6601472456463853  |grad|_K:  1.131e-07  alpha:  9.641e-02  linmin:  4.056e-04  cgtest:  4.013e-03  t[s]:   1808.14
	FillingsUpdate:  mu: +0.691655725  nElectrons: 512.000000
LCAOMinimize: Iter:   9  F: -3068.6601472489883236  |grad|_K:  3.692e-08  alpha:  1.004e-01  linmin: -3.107e-02  cgtest:  1.520e-01  t[s]:   1982.61
LCAOMinimize: Converged (|Delta F|<1.000000e-06 for 2 iters).


---- Citations for features of the code used in this run ----

   Software package:
      R. Sundararaman, K. Letchworth-Weaver, K.A. Schwarz, D. Gunceler, Y. Ozhabes and T.A. Arias, 'JDFTx: software for joint density-functional theory', SoftwareX 6, 278 (2017)

   gga-PBE exchange-correlation functional:
      J.P. Perdew, K. Burke and M. Ernzerhof, Phys. Rev. Lett. 77, 3865 (1996)

   Pseudopotentials:
      KF Garrity, JW Bennett, KM Rabe and D Vanderbilt, Comput. Mater. Sci. 81, 446 (2014)

   Total energy minimization with Auxiliary Hamiltonian:
      C. Freysoldt, S. Boeck, and J. Neugebauer, Phys. Rev. B 79, 241103(R) (2009)

This list may not be complete. Please suggest additional citations or
report any other bugs at https://github.com/shankar1729/jdftx/issues

Initialization completed successfully at t[s]:   2114.93


-------- Electronic minimization -----------
	FillingsUpdate:  mu: +0.691655725  nElectrons: 512.000000
ElecMinimize: Iter:   0  F: -3068.660147248987869  |grad|_K:  6.508e-05  alpha:  1.000e+00
	FillingsUpdate:  mu: +0.705086558  nElectrons: 512.000000
	SubspaceRotationAdjust: set factor to 1
ElecMinimize: Iter:   1  F: -3068.941426250850782  |grad|_K:  3.031e-05  alpha:  3.498e-01  linmin:  3.322e-04  t[s]:   3177.62
	FillingsUpdate:  mu: +0.691572894  nElectrons: 512.000000
	SubspaceRotationAdjust: set factor to 1.23
ElecMinimize: Iter:   2  F: -3069.012692751589839  |grad|_K:  1.428e-05  alpha:  4.210e-01  linmin:  2.582e-04  t[s]:   3937.70
	FillingsUpdate:  mu: +0.691529121  nElectrons: 512.000000
	SubspaceRotationAdjust: set factor to 1.74
ElecMinimize: Iter:   3  F: -3069.027931300418459  |grad|_K:  9.536e-06  alpha:  4.122e-01  linmin:  1.004e-04  t[s]:   4694.23
	FillingsUpdate:  mu: +0.692866279  nElectrons: 512.000000
	SubspaceRotationAdjust: set factor to 0.972
ElecMinimize: Iter:   4  F: -3069.032456570437262  |grad|_K:  1.689e-05  alpha:  2.664e-01  linmin: -1.263e-05  t[s]:   5451.40
	FillingsUpdate:  mu: +0.692515700  nElectrons: 512.000000
	SubspaceRotationAdjust: set factor to 0.873
ElecMinimize: Iter:   5  F: -3069.033693533782298  |grad|_K:  7.228e-06  alpha:  2.034e-02  linmin: -7.677e-04  t[s]:   6222.12
	FillingsUpdate:  mu: +0.692450735  nElectrons: 512.000000
	SubspaceRotationAdjust: set factor to 0.556
ElecMinimize: Iter:   6  F: -3069.034449133610906  |grad|_K:  5.652e-06  alpha:  4.906e-02  linmin: -1.445e-05  t[s]:   6977.10
	FillingsUpdate:  mu: +0.692462035  nElectrons: 512.000000
	SubspaceRotationAdjust: set factor to 0.336
ElecMinimize: Iter:   7  F: -3069.035240405846253  |grad|_K:  6.302e-06  alpha:  1.309e-01  linmin:  5.281e-05  t[s]:   7731.05
	FillingsUpdate:  mu: +0.692146766  nElectrons: 512.000000
	SubspaceRotationAdjust: set factor to 0.396
ElecMinimize: Iter:   8  F: -3069.035718530352824  |grad|_K:  3.270e-06  alpha:  6.420e-02  linmin: -1.527e-05  t[s]:   8495.47
	FillingsUpdate:  mu: +0.692162236  nElectrons: 512.000000
	SubspaceRotationAdjust: set factor to 0.4
ElecMinimize: Iter:   9  F: -3069.035905752585677  |grad|_K:  2.421e-06  alpha:  9.123e-02  linmin:  2.337e-06  t[s]:   9264.30
	FillingsUpdate:  mu: +0.692354715  nElectrons: 512.000000
	SubspaceRotationAdjust: set factor to 0.324
ElecMinimize: Iter:  10  F: -3069.036038306395767  |grad|_K:  2.098e-06  alpha:  1.190e-01  linmin:  1.744e-06  t[s]:  10026.10
	FillingsUpdate:  mu: +0.692476395  nElectrons: 512.000000
	SubspaceRotationAdjust: set factor to 0.331
ElecMinimize: Iter:  11  F: -3069.036111478817929  |grad|_K:  1.212e-06  alpha:  8.737e-02  linmin: -2.156e-06  t[s]:  10783.25
	FillingsUpdate:  mu: +0.692525112  nElectrons: 512.000000
	SubspaceRotationAdjust: set factor to 0.367
ElecMinimize: Iter:  12  F: -3069.036140996996892  |grad|_K:  9.704e-07  alpha:  1.055e-01  linmin: -2.367e-06  t[s]:  11556.21
	FillingsUpdate:  mu: +0.692541707  nElectrons: 512.000000
	SubspaceRotationAdjust: set factor to 0.278
ElecMinimize: Iter:  13  F: -3069.036168330942928  |grad|_K:  1.027e-06  alpha:  1.524e-01  linmin: -2.389e-06  t[s]:  12317.66
	FillingsUpdate:  mu: +0.692519817  nElectrons: 512.000000
	SubspaceRotationAdjust: set factor to 0.322
ElecMinimize: Iter:  14  F: -3069.036192319434122  |grad|_K:  8.188e-07  alpha:  1.194e-01  linmin: -1.895e-06  t[s]:  13084.73
	FillingsUpdate:  mu: +0.692485498  nElectrons: 512.000000
	SubspaceRotationAdjust: set factor to 0.307
ElecMinimize: Iter:  15  F: -3069.036211532732978  |grad|_K:  8.354e-07  alpha:  1.504e-01  linmin: -3.450e-06  t[s]:  13852.59
	FillingsUpdate:  mu: +0.692456063  nElectrons: 512.000000
	SubspaceRotationAdjust: set factor to 0.337
ElecMinimize: Iter:  16  F: -3069.036232100618236  |grad|_K:  7.952e-07  alpha:  1.545e-01  linmin: -3.670e-06  t[s]:  14619.36
	FillingsUpdate:  mu: +0.692461652  nElectrons: 512.000000
	SubspaceRotationAdjust: set factor to 0.384
ElecMinimize: Iter:  17  F: -3069.036248298251849  |grad|_K:  7.160e-07  alpha:  1.342e-01  linmin: -1.786e-06  t[s]:  15383.03
	FillingsUpdate:  mu: +0.692506810  nElectrons: 512.000000
	SubspaceRotationAdjust: set factor to 0.344
ElecMinimize: Iter:  18  F: -3069.036263671601773  |grad|_K:  7.654e-07  alpha:  1.572e-01  linmin: -1.828e-06  t[s]:  16141.52
	FillingsUpdate:  mu: +0.692548951  nElectrons: 512.000000
	SubspaceRotationAdjust: set factor to 0.514
ElecMinimize: Iter:  19  F: -3069.036276938733863  |grad|_K:  5.350e-07  alpha:  1.189e-01  linmin: -6.970e-07  t[s]:  16898.06
	FillingsUpdate:  mu: +0.692556248  nElectrons: 512.000000
	SubspaceRotationAdjust: set factor to 0.472
ElecMinimize: Iter:  20  F: -3069.036282761866914  |grad|_K:  4.255e-07  alpha:  1.068e-01  linmin: -1.153e-07  t[s]:  17663.55
	FillingsUpdate:  mu: +0.692538858  nElectrons: 512.000000
	SubspaceRotationAdjust: set factor to 0.345
ElecMinimize: Iter:  21  F: -3069.036288422711095  |grad|_K:  4.234e-07  alpha:  1.643e-01  linmin:  3.835e-07  t[s]:  18424.60
	FillingsUpdate:  mu: +0.692520125  nElectrons: 512.000000
	SubspaceRotationAdjust: set factor to 0.63
ElecMinimize: Iter:  22  F: -3069.036291590968631  |grad|_K:  2.050e-07  alpha:  9.288e-02  linmin: -2.340e-07  t[s]:  19188.57
	FillingsUpdate:  mu: +0.692513713  nElectrons: 512.000000
	SubspaceRotationAdjust: set factor to 0.546
ElecMinimize: Iter:  23  F: -3069.036292626748946  |grad|_K:  2.013e-07  alpha:  1.294e-01  linmin:  3.039e-08  t[s]:  19948.28
	FillingsUpdate:  mu: +0.692504906  nElectrons: 512.000000
	SubspaceRotationAdjust: set factor to 0.508
ElecMinimize: Iter:  24  F: -3069.036293944773206  |grad|_K:  1.524e-07  alpha:  1.709e-01  linmin: -1.363e-07  t[s]:  20721.79
	FillingsUpdate:  mu: +0.692503124  nElectrons: 512.000000
	SubspaceRotationAdjust: set factor to 0.458
ElecMinimize: Iter:  25  F: -3069.036294465879564  |grad|_K:  1.246e-07  alpha:  1.179e-01  linmin: -3.879e-08  t[s]:  21482.03
	FillingsUpdate:  mu: +0.692502633  nElectrons: 512.000000
	SubspaceRotationAdjust: set factor to 0.382
ElecMinimize: Iter:  26  F: -3069.036295040536061  |grad|_K:  1.039e-07  alpha:  1.944e-01  linmin: -4.121e-08  t[s]:  22241.94
	FillingsUpdate:  mu: +0.692500645  nElectrons: 512.000000
	SubspaceRotationAdjust: set factor to 0.395
ElecMinimize: Iter:  27  F: -3069.036295325889569  |grad|_K:  8.514e-08  alpha:  1.388e-01  linmin: -9.796e-08  t[s]:  23004.26
	FillingsUpdate:  mu: +0.692494833  nElectrons: 512.000000
	SubspaceRotationAdjust: set factor to 0.329
ElecMinimize: Iter:  28  F: -3069.036295646903909  |grad|_K:  7.960e-08  alpha:  2.325e-01  linmin: -2.749e-07  t[s]:  23766.71
	FillingsUpdate:  mu: +0.692491504  nElectrons: 512.000000
	SubspaceRotationAdjust: set factor to 0.35
ElecMinimize: Iter:  29  F: -3069.036295807655279  |grad|_K:  5.628e-08  alpha:  1.333e-01  linmin: -7.499e-08  t[s]:  24534.85
	FillingsUpdate:  mu: +0.692489959  nElectrons: 512.000000
	SubspaceRotationAdjust: set factor to 0.316
ElecMinimize: Iter:  30  F: -3069.036295947575582  |grad|_K:  5.616e-08  alpha:  2.327e-01  linmin:  8.043e-07  t[s]:  25298.54
	FillingsUpdate:  mu: +0.692490605  nElectrons: 512.000000
	SubspaceRotationAdjust: set factor to 0.442
ElecMinimize: Iter:  31  F: -3069.036296031249549  |grad|_K:  3.399e-08  alpha:  1.401e-01  linmin:  3.249e-08  t[s]:  26061.47
	FillingsUpdate:  mu: +0.692492573  nElectrons: 512.000000
	SubspaceRotationAdjust: set factor to 0.43
ElecMinimize: Iter:  32  F: -3069.036296070863500  |grad|_K:  3.196e-08  alpha:  1.809e-01  linmin:  2.943e-07  t[s]:  26816.83
	FillingsUpdate:  mu: +0.692494762  nElectrons: 512.000000
	SubspaceRotationAdjust: set factor to 0.602
ElecMinimize: Iter:  33  F: -3069.036296099080118  |grad|_K:  2.044e-08  alpha:  1.459e-01  linmin: -7.764e-07  t[s]:  27571.34
	FillingsUpdate:  mu: +0.692495751  nElectrons: 512.000000
	SubspaceRotationAdjust: set factor to 0.479
ElecMinimize: Iter:  34  F: -3069.036296112616583  |grad|_K:  2.163e-08  alpha:  1.748e-01  linmin:  2.831e-06  t[s]:  28335.59
	FillingsUpdate:  mu: +0.692496597  nElectrons: 512.000000
	SubspaceRotationAdjust: set factor to 0.671
ElecMinimize: Iter:  35  F: -3069.036296123960710  |grad|_K:  1.366e-08  alpha:  1.319e-01  linmin:  1.317e-06  t[s]:  29102.16
	FillingsUpdate:  mu: +0.692497005  nElectrons: 512.000000
	SubspaceRotationAdjust: set factor to 0.467
ElecMinimize: Iter:  36  F: -3069.036296130860137  |grad|_K:  1.638e-08  alpha:  2.022e-01  linmin:  3.372e-06  t[s]:  29857.60
	FillingsUpdate:  mu: +0.692497436  nElectrons: 512.000000
	SubspaceRotationAdjust: set factor to 0.738
ElecMinimize: Iter:  37  F: -3069.036296135644079  |grad|_K:  9.032e-09  alpha:  1.031e-01  linmin: -9.223e-07  t[s]:  30613.57
ElecMinimize: Converged (|Delta F|<1.000000e-08 for 2 iters).
Setting wave functions to eigenvectors of Hamiltonian

# Ionic positions in cartesian coordinates:
ion Pd   0.001000000000000   0.000000000000000   0.000000000000000 1
ion Pd   0.000000000000000   3.676517000000000   3.675517000000001 1
ion Pd   3.675517000000001   0.000000000000000   3.676517000000000 1
ion Pd   3.675517000000001   3.675517000000001   0.000000000000000 1
ion Pd   0.000000000000000   0.000000000000000   7.351035000000001 1
ion Pd   0.000000000000000   3.675517000000001  11.026552000000002 1
ion Pd   3.675517000000001   0.000000000000000  11.026552000000002 1
ion Pd   3.675517000000001   3.675517000000001   7.351035000000001 1
ion Pd   0.000000000000000   7.351035000000001   0.000000000000000 1
ion Pd   0.000000000000000  11.026552000000002   3.675517000000001 1
ion Pd   3.675517000000001   7.351035000000001   3.675517000000001 1
ion Pd   3.675517000000001  11.026552000000002   0.000000000000000 1
ion Pd   0.000000000000000   7.351035000000001   7.351035000000001 1
ion Pd   0.000000000000000  11.026552000000002  11.026552000000002 1
ion Pd   3.675517000000001   7.351035000000001  11.026552000000002 1
ion Pd   3.675517000000001  11.026552000000002   7.351035000000001 1
ion Pd   7.351035000000001   0.000000000000000   0.000000000000000 1
ion Pd   7.351035000000001   3.675517000000001   3.675517000000001 1
ion Pd  11.026552000000002   0.000000000000000   3.675517000000001 1
ion Pd  11.026552000000002   3.675517000000001   0.000000000000000 1
ion Pd   7.351035000000001   0.000000000000000   7.351035000000001 1
ion Pd   7.351035000000001   3.675517000000001  11.026552000000002 1
ion Pd  11.026552000000002   0.000000000000000  11.026552000000002 1
ion Pd  11.026552000000002   3.675517000000001   7.351035000000001 1
ion Pd   7.351035000000001   7.351035000000001   0.000000000000000 1
ion Pd   7.351035000000001  11.026552000000002   3.675517000000001 1
ion Pd  11.026552000000002   7.351035000000001   3.675517000000001 1
ion Pd  11.026552000000002  11.026552000000002   0.000000000000000 1
ion Pd   7.351035000000001   7.351035000000001   7.351035000000001 1
ion Pd   7.351035000000001  11.026552000000002  11.026552000000002 1
ion Pd  11.026552000000002   7.351035000000001  11.026552000000002 1
ion Pd  11.026552000000002  11.026552000000002   7.351035000000001 1

# Forces in Cartesian coordinates:
force Pd  -0.000086039408685   0.000013673508655   0.000027143002843 1
force Pd   0.000002139253243  -0.000104204469805   0.000000364522975 1
force Pd  -0.000000557340740   0.000014361526526  -0.000086527457683 1
force Pd   0.000015161987313  -0.000005277773831   0.000010181653393 1
force Pd  -0.000010606042418   0.000014103931664  -0.000000435153265 1
force Pd   0.000000340024949   0.000000892196576  -0.000000906223879 1
force Pd   0.000016245535405   0.000002570987442  -0.000014686220077 1
force Pd   0.000001894628476   0.000011746089535   0.000016635064730 1
force Pd   0.000001335214481   0.000013130401370  -0.000018888989369 1
force Pd   0.000002730674586   0.000003111631861  -0.000000062495098 1
force Pd   0.000013101741722   0.000012386572227   0.000003143231533 1
force Pd   0.000012167468010   0.000004853739161   0.000011603201891 1
force Pd   0.000001149248859   0.000012685588812   0.000019128796557 1
force Pd   0.000001020517975  -0.000003193489179  -0.000000422225541 1
force Pd  -0.000000683016070  -0.000002269949969  -0.000005292717140 1
force Pd  -0.000001144054814  -0.000012188881065   0.000015190506330 1
force Pd  -0.000016918975593   0.000003468493047   0.000010435702972 1
force Pd  -0.000002650568218  -0.000004817801091   0.000000387124951 1
force Pd   0.000027461362362   0.000015013121420  -0.000015136071644 1
force Pd   0.000011707536921  -0.000018523867235  -0.000004759568549 1
force Pd   0.000008351674605   0.000003912807221   0.000016434214221 1
force Pd  -0.000001028813319  -0.000004007305724  -0.000000779173809 1
force Pd   0.000010758565639   0.000003246668305   0.000012984588561 1
force Pd  -0.000001445176749  -0.000001459199872   0.000005081186562 1
force Pd  -0.000003604182249  -0.000003184024889  -0.000005030503545 1
force Pd  -0.000003287155477   0.000002700675221  -0.000000157448653 1
force Pd  -0.000012735517829   0.000011804277981   0.000000469234901 1
force Pd   0.000014797242729   0.000017997341592  -0.000003368871069 1
force Pd  -0.000001637673417  -0.000003628959700   0.000005387758232 1
force Pd  -0.000001673172521   0.000003712769137  -0.000000388915933 1
force Pd   0.000001149979964  -0.000002876547431  -0.000000804657223 1
force Pd   0.000001594545763   0.000000992638713   0.000003612691047 1

# Energy components:
   Eewald =    -2554.6873653039106102
       EH =      566.9044980124569975
     Eloc =    -1183.4488986571377609
      Enl =     -458.3999040244104890
      Exc =     -502.0343754532995035
 Exc_core =      110.2408924763499556
       KE =      952.4729729229600252
-------------------------------------
     Etot =    -3068.9521800269922096
       TS =        0.0841161086519364
-------------------------------------
        F =    -3069.0362961356440792

IonicMinimize: Iter:   0  F: -3069.036296135644079  |grad|_K:  1.895e-05  t[s]:  30731.05
IonicMinimize: Converged (|grad|_K<1.000000e-04).

#--- Lowdin population analysis ---
# oxidation-state Pd +0.006 +0.006 +0.006 +0.006 +0.006 +0.006 +0.006 +0.006 +0.006 +0.007 +0.006 +0.006 +0.006 +0.006 +0.006 +0.006 +0.006 +0.006 +0.006 +0.006 +0.006 +0.006 +0.006 +0.006 +0.006 +0.006 +0.006 +0.006 +0.006 +0.006 +0.006 +0.006


Dumping 'Pd32.Ecomponents' ... done
End date and time: Sun Jan 28 20:14:57 2024  (Duration: 0-8:34:01.95)
Done!
