--------------------------------------------------------------------------
[[30652,1],1]: A high-performance Open MPI point-to-point messaging module
was unable to find any relevant network interfaces:

Module: OpenFabrics (openib)
  Host: node3217

Another transport will be used instead, although this may result in
lower performance.
--------------------------------------------------------------------------

*************** JDFTx 1.7.0  ***************

Start date and time: Sun Jan 28 11:41:08 2024
Executable jdftx with command-line: -i /home/cam559/Valla_project/Pd/Pd32O_oct.in
Running on hosts (process indices):  node3217.physics.cornell.edu (0-9)
Divided in process groups (process indices):  0 (0)  1 (1)  2 (2)  3 (3)  4 (4)  5 (5)  6 (6)  7 (7)  8 (8)  9 (9)
Resource initialization completed at t[s]:      0.00
Run totals: 10 processes, 40 threads, 0 GPUs


Input parsed successfully to the following command list (including defaults):

basis kpoint-dependent
coords-type Cartesian
core-overlap-check vector
coulomb-interaction Periodic
davidson-band-ratio 1.1
dump End Ecomponents
dump-name Pd32O_tet.$VAR
elec-cutoff 20 100
elec-eigen-algo Davidson
elec-ex-corr gga-PBE
elec-smearing Fermi 0.004
electronic-minimize  \
	dirUpdateScheme      FletcherReeves \
	linminMethod         DirUpdateRecommended \
	nIterations          100 \
	history              15 \
	knormThreshold       0 \
	energyDiffThreshold  1e-08 \
	nEnergyDiff          2 \
	alphaTstart          1 \
	alphaTmin            1e-10 \
	updateTestStepSize   yes \
	alphaTreduceFactor   0.1 \
	alphaTincreaseFactor 3 \
	nAlphaAdjustMax      3 \
	wolfeEnergy          0.0001 \
	wolfeGradient        0.9 \
	fdTest               no
exchange-regularization WignerSeitzTruncated
fluid None
fluid-ex-corr lda-TF lda-PZ
fluid-gummel-loop 10 1.000000e-05
fluid-minimize  \
	dirUpdateScheme      PolakRibiere \
	linminMethod         DirUpdateRecommended \
	nIterations          100 \
	history              15 \
	knormThreshold       0 \
	energyDiffThreshold  0 \
	nEnergyDiff          2 \
	alphaTstart          1 \
	alphaTmin            1e-10 \
	updateTestStepSize   yes \
	alphaTreduceFactor   0.1 \
	alphaTincreaseFactor 3 \
	nAlphaAdjustMax      3 \
	wolfeEnergy          0.0001 \
	wolfeGradient        0.9 \
	fdTest               no
fluid-solvent H2O 55.338 ScalarEOS \
	epsBulk 78.4 \
	pMol 0.92466 \
	epsInf 1.77 \
	Pvap 1.06736e-10 \
	sigmaBulk 4.62e-05 \
	Rvdw 2.61727 \
	Res 1.42 \
	tauNuc 343133 \
	poleEl 15 7 1
forces-output-coords Positions
initial-state Pd32O_tet.$VAR
ion Pd   0.001000000000000   0.000000000000000   0.000000000000000 1
ion Pd   0.000000000000000   3.676517000000000   3.675517000000001 1
ion Pd   3.675517000000001   0.000000000000000   3.676517000000000 1
ion Pd   3.675517000000001   3.675517000000001   0.000000000000000 1
ion Pd   0.000000000000000   0.000000000000000   7.351035000000001 1
ion Pd   0.000000000000000   3.675517000000001  11.026552000000002 1
ion Pd   3.675517000000001   0.000000000000000  11.026552000000002 1
ion Pd   3.675517000000001   3.675517000000001   7.351035000000001 1
ion Pd   0.000000000000000   7.351035000000001   0.000000000000000 1
ion Pd   0.000000000000000  11.026552000000002   3.675517000000001 1
ion Pd   3.675517000000001   7.351035000000001   3.675517000000001 1
ion Pd   3.675517000000001  11.026552000000002   0.000000000000000 1
ion Pd   0.000000000000000   7.351035000000001   7.351035000000001 1
ion Pd   0.000000000000000  11.026552000000002  11.026552000000002 1
ion Pd   3.675517000000001   7.351035000000001  11.026552000000002 1
ion Pd   3.675517000000001  11.026552000000002   7.351035000000001 1
ion Pd   7.351035000000001   0.000000000000000   0.000000000000000 1
ion Pd   7.351035000000001   3.675517000000001   3.675517000000001 1
ion Pd  11.026552000000002   0.000000000000000   3.675517000000001 1
ion Pd  11.026552000000002   3.675517000000001   0.000000000000000 1
ion Pd   7.351035000000001   0.000000000000000   7.351035000000001 1
ion Pd   7.351035000000001   3.675517000000001  11.026552000000002 1
ion Pd  11.026552000000002   0.000000000000000  11.026552000000002 1
ion Pd  11.026552000000002   3.675517000000001   7.351035000000001 1
ion Pd   7.351035000000001   7.351035000000001   0.000000000000000 1
ion Pd   7.351035000000001  11.026552000000002   3.675517000000001 1
ion Pd  11.026552000000002   7.351035000000001   3.675517000000001 1
ion Pd  11.026552000000002  11.026552000000002   0.000000000000000 1
ion Pd   7.351035000000001   7.351035000000001   7.351035000000001 1
ion Pd   7.351035000000001  11.026552000000002  11.026552000000002 1
ion Pd  11.026552000000002   7.351035000000001  11.026552000000002 1
ion Pd  11.026552000000002  11.026552000000002   7.351035000000001 1
ion O   3.674517000000000   0.000000000000000   0.000000000000000 1
ion-species GBRV/$ID_pbe.uspp
ion-width 0
ionic-minimize  \
	dirUpdateScheme      L-BFGS \
	linminMethod         DirUpdateRecommended \
	nIterations          30 \
	history              15 \
	knormThreshold       0.0001 \
	energyDiffThreshold  1e-06 \
	nEnergyDiff          2 \
	alphaTstart          1 \
	alphaTmin            1e-10 \
	updateTestStepSize   yes \
	alphaTreduceFactor   0.1 \
	alphaTincreaseFactor 3 \
	nAlphaAdjustMax      3 \
	wolfeEnergy          0.0001 \
	wolfeGradient        0.9 \
	fdTest               no
kpoint   0.000000000000   0.000000000000   0.000000000000  1.00000000000000
kpoint-folding 4 4 4 
latt-move-scale 1 1 1
latt-scale 1 1 1 
lattice  \
	  14.702069000000000    0.000000000000000    0.000000000000000  \
	   0.000000000000000   14.702069000000000    0.000000000000000  \
	   0.000000000000000    0.000000000000000   14.702069000000000 
lattice-minimize  \
	dirUpdateScheme      L-BFGS \
	linminMethod         DirUpdateRecommended \
	nIterations          0 \
	history              15 \
	knormThreshold       0 \
	energyDiffThreshold  1e-06 \
	nEnergyDiff          2 \
	alphaTstart          1 \
	alphaTmin            1e-10 \
	updateTestStepSize   yes \
	alphaTreduceFactor   0.1 \
	alphaTincreaseFactor 3 \
	nAlphaAdjustMax      3 \
	wolfeEnergy          0.0001 \
	wolfeGradient        0.9 \
	fdTest               no
lcao-params -1 1e-06 0.004
pcm-variant GLSSA13
spintype no-spin
subspace-rotation-factor 1 yes
symmetries automatic
symmetry-threshold 0.0001



---------- Setting up symmetries ----------

Found 48 point-group symmetries of the bravais lattice
Found 1 space-group symmetries with basis
Applied RMS atom displacement 0 bohrs to make symmetries exact.

---------- Initializing the Grid ----------
R = 
[      14.7021            0            0  ]
[            0      14.7021            0  ]
[            0            0      14.7021  ]
unit cell volume = 3177.86
G =
[   0.427367          0          0  ]
[          0   0.427367          0  ]
[          0          0   0.427367  ]
Minimum fftbox size, Smin = [  68  68  68  ]
Chosen fftbox size, S = [  70  70  70  ]

---------- Initializing tighter grid for wavefunction operations ----------
R = 
[      14.7021            0            0  ]
[            0      14.7021            0  ]
[            0            0      14.7021  ]
unit cell volume = 3177.86
G =
[   0.427367          0          0  ]
[          0   0.427367          0  ]
[          0          0   0.427367  ]
Minimum fftbox size, Smin = [  60  60  60  ]
Chosen fftbox size, S = [  60  60  60  ]

---------- Exchange Correlation functional ----------
Initalized PBE GGA exchange.
Initalized PBE GGA correlation.

---------- Setting up pseudopotentials ----------
Width of ionic core gaussian charges (only for fluid interactions / plotting) set to 0

Reading pseudopotential file '/home/cam559/JDFTx/build/pseudopotentials/GBRV/pd_pbe.uspp':
  Title: Pd.  Created by USPP 7.3.6 on 31-3-15
  Reference state energy: -99.095797.  16 valence electrons in orbitals:
    |410>  occupation: 6  eigenvalue: -2.075344
    |420>  occupation: 9.5  eigenvalue: -0.331049
    |500>  occupation: 0  eigenvalue: -0.255738
    |510>  occupation: 0  eigenvalue: -0.109005
  lMax: 2  lLocal: 3  QijEcut: 6
  6 projectors sampled on a log grid with 717 points:
    l: 0  eig: -0.255738  rCut: 2.5
    l: 0  eig: 1.000000  rCut: 2.5
    l: 1  eig: -2.075343  rCut: 1.53
    l: 1  eig: -0.109006  rCut: 1.53
    l: 2  eig: -0.331048  rCut: 1.63
    l: 2  eig: 1.500000  rCut: 1.63
  Partial core density with radius 1
  Transforming core density to a uniform radial grid of dG=0.02 with 1301 points.
  Transforming local potential to a uniform radial grid of dG=0.02 with 1301 points.
  Transforming nonlocal projectors to a uniform radial grid of dG=0.02 with 432 points.
  Transforming density augmentations to a uniform radial grid of dG=0.02 with 1301 points.
  Transforming atomic orbitals to a uniform radial grid of dG=0.02 with 432 points.
  Core radius for overlap checks: 2.50 bohrs.

Reading pseudopotential file '/home/cam559/JDFTx/build/pseudopotentials/GBRV/o_pbe.uspp':
  Title: O.  Created by USPP 7.3.6 on 3-2-2014
  Reference state energy: -15.894388.  6 valence electrons in orbitals:
    |200>  occupation: 2  eigenvalue: -0.878823
    |210>  occupation: 4  eigenvalue: -0.332131
  lMax: 2  lLocal: 2  QijEcut: 6
  5 projectors sampled on a log grid with 511 points:
    l: 0  eig: -0.878823  rCut: 1.25
    l: 0  eig: 0.000000  rCut: 1.25
    l: 1  eig: -0.332132  rCut: 1.25
    l: 1  eig: 0.000000  rCut: 1.25
    l: 2  eig: 1.000000  rCut: 1.25
  Partial core density with radius 0.7
  Transforming core density to a uniform radial grid of dG=0.02 with 1301 points.
  Transforming local potential to a uniform radial grid of dG=0.02 with 1301 points.
  Transforming nonlocal projectors to a uniform radial grid of dG=0.02 with 432 points.
  Transforming density augmentations to a uniform radial grid of dG=0.02 with 1301 points.
  Transforming atomic orbitals to a uniform radial grid of dG=0.02 with 432 points.
  Core radius for overlap checks: 1.25 bohrs.

Initialized 2 species with 33 total atoms.

Folded 1 k-points by 4x4x4 to 64 k-points.

---------- Setting up k-points, bands, fillings ----------
Adding inversion symmetry to k-mesh for non-inversion-symmetric unit cell.
Reduced to 36 k-points under symmetry. 
Computing the number of bands and number of electrons
Calculating initial fillings.
nElectrons: 518.000000   nBands: 388   nStates: 36

----- Setting up reduced wavefunction bases (one per k-point) -----
average nbasis = 13570.359 , ideal nbasis = 13576.079

---------- Setting up ewald sum ----------
Optimum gaussian width for ewald sums = 3.274936 bohr.
Real space sum over 729 unit cells with max indices [  4  4  4  ]
Reciprocal space sum over 4913 terms with max indices [  8  8  8  ]

---------- Allocating electronic variables ----------
Initializing wave functions:  linear combination of atomic orbitals
Pd pseudo-atom occupations:   s ( 0 )  p ( 6 0 )  d ( 10 )
O pseudo-atom occupations:   s ( 2 )  p ( 4 )
	FillingsUpdate:  mu: +0.605264590  nElectrons: 518.000000
LCAOMinimize: Iter:   0  F: -3081.5851496744753604  |grad|_K:  1.501e-03  alpha:  1.000e+00
	FillingsUpdate:  mu: +0.724932801  nElectrons: 518.000000
LCAOMinimize: Iter:   1  F: -3083.9204174486685588  |grad|_K:  1.366e-03  alpha:  3.697e-01  linmin:  6.884e-03  cgtest: -8.415e-02  t[s]:    445.43
	FillingsUpdate:  mu: +0.759012700  nElectrons: 518.000000
LCAOMinimize: Iter:   2  F: -3084.0597713018364630  |grad|_K:  1.199e-03  alpha:  1.112e-01  linmin:  9.384e-02  cgtest: -4.859e-01  t[s]:    588.23
	FillingsUpdate:  mu: +0.775195823  nElectrons: 518.000000
LCAOMinimize: Iter:   3  F: -3084.0929515611160241  |grad|_K:  1.181e-03  alpha:  3.844e-02  linmin:  4.311e-04  cgtest:  9.978e-01  t[s]:    731.16
LCAOMinimize: Encountered beta<0, resetting CG.
	FillingsUpdate:  mu: +0.752292273  nElectrons: 518.000000
LCAOMinimize: Iter:   4  F: -3084.3488525621501140  |grad|_K:  8.541e-04  alpha:  9.301e-02  linmin:  1.721e-01  cgtest: -4.803e-01  t[s]:    873.86
	FillingsUpdate:  mu: +0.754227239  nElectrons: 518.000000
LCAOMinimize: Iter:   5  F: -3084.3501585045032698  |grad|_K:  9.030e-04  alpha:  9.247e-03  linmin:  4.878e-04  cgtest:  9.902e-01  t[s]:   1015.05
LCAOMinimize: 	Predicted alpha/alphaT>3.000000, increasing alphaT to 2.774000e-02.
	FillingsUpdate:  mu: +0.709257161  nElectrons: 518.000000
LCAOMinimize: Iter:   6  F: -3084.4727766443443215  |grad|_K:  2.258e-04  alpha:  5.418e-02  linmin: -5.020e-02  cgtest: -2.401e-02  t[s]:   1192.73
LCAOMinimize: 	Predicted alpha/alphaT>3.000000, increasing alphaT to 1.625440e-01.
	FillingsUpdate:  mu: +0.707448731  nElectrons: 518.000000
LCAOMinimize: Iter:   7  F: -3084.5015516754538112  |grad|_K:  9.869e-05  alpha:  1.995e-01  linmin:  3.708e-03  cgtest:  2.243e-01  t[s]:   1375.16
	FillingsUpdate:  mu: +0.706052905  nElectrons: 518.000000
LCAOMinimize: Iter:   8  F: -3084.5031511956872237  |grad|_K:  4.649e-05  alpha:  5.929e-02  linmin: -1.167e-02  cgtest:  3.277e-02  t[s]:   1515.62
LCAOMinimize: 	Predicted alpha/alphaT>3.000000, increasing alphaT to 1.778799e-01.
	FillingsUpdate:  mu: +0.703973202  nElectrons: 518.000000
LCAOMinimize: Iter:   9  F: -3084.5048414720627079  |grad|_K:  3.949e-05  alpha:  2.830e-01  linmin:  4.600e-04  cgtest: -4.741e-02  t[s]:   1700.93
	FillingsUpdate:  mu: +0.703139859  nElectrons: 518.000000
LCAOMinimize: Iter:  10  F: -3084.5053240551083036  |grad|_K:  5.405e-06  alpha:  1.134e-01  linmin: -3.617e-03  cgtest:  7.209e-02  t[s]:   1851.06
	FillingsUpdate:  mu: +0.703171820  nElectrons: 518.000000
LCAOMinimize: Iter:  11  F: -3084.5053348137648754  |grad|_K:  4.894e-06  alpha:  1.351e-01  linmin:  3.393e-04  cgtest: -2.733e-03  t[s]:   1994.41
	FillingsUpdate:  mu: +0.703146648  nElectrons: 518.000000
LCAOMinimize: Iter:  12  F: -3084.5053402799308060  |grad|_K:  1.521e-06  alpha:  8.387e-02  linmin: -6.938e-05  cgtest:  1.012e-02  t[s]:   2139.13
	FillingsUpdate:  mu: +0.703132788  nElectrons: 518.000000
LCAOMinimize: Iter:  13  F: -3084.5053416385521814  |grad|_K:  1.657e-06  alpha:  2.155e-01  linmin: -5.569e-05  cgtest:  1.329e-03  t[s]:   2279.44
	FillingsUpdate:  mu: +0.703137901  nElectrons: 518.000000
LCAOMinimize: Iter:  14  F: -3084.5053428676828844  |grad|_K:  1.622e-06  alpha:  1.642e-01  linmin:  2.642e-06  cgtest: -9.835e-04  t[s]:   2422.15
	FillingsUpdate:  mu: +0.703135235  nElectrons: 518.000000
LCAOMinimize: Iter:  15  F: -3084.5053434635283338  |grad|_K:  4.290e-07  alpha:  8.318e-02  linmin: -5.655e-05  cgtest:  2.417e-03  t[s]:   2568.22
	FillingsUpdate:  mu: +0.703135932  nElectrons: 518.000000
LCAOMinimize: Iter:  16  F: -3084.5053435226868714  |grad|_K:  1.722e-07  alpha:  1.179e-01  linmin:  1.152e-03  cgtest: -4.426e-03  t[s]:   2717.74
LCAOMinimize: Converged (|Delta F|<1.000000e-06 for 2 iters).


---- Citations for features of the code used in this run ----

   Software package:
      R. Sundararaman, K. Letchworth-Weaver, K.A. Schwarz, D. Gunceler, Y. Ozhabes and T.A. Arias, 'JDFTx: software for joint density-functional theory', SoftwareX 6, 278 (2017)

   gga-PBE exchange-correlation functional:
      J.P. Perdew, K. Burke and M. Ernzerhof, Phys. Rev. Lett. 77, 3865 (1996)

   Pseudopotentials:
      KF Garrity, JW Bennett, KM Rabe and D Vanderbilt, Comput. Mater. Sci. 81, 446 (2014)

   Total energy minimization with Auxiliary Hamiltonian:
      C. Freysoldt, S. Boeck, and J. Neugebauer, Phys. Rev. B 79, 241103(R) (2009)

This list may not be complete. Please suggest additional citations or
report any other bugs at https://github.com/shankar1729/jdftx/issues

Initialization completed successfully at t[s]:   2824.67


-------- Electronic minimization -----------
	FillingsUpdate:  mu: +0.703135932  nElectrons: 518.000000
ElecMinimize: Iter:   0  F: -3084.505343522685507  |grad|_K:  6.762e-05  alpha:  1.000e+00
	FillingsUpdate:  mu: +0.715227094  nElectrons: 518.000000
	SubspaceRotationAdjust: set factor to 1
ElecMinimize: Iter:   1  F: -3084.819977796651528  |grad|_K:  3.174e-05  alpha:  3.586e-01  linmin:  3.209e-04  t[s]:   3727.57
	FillingsUpdate:  mu: +0.703581240  nElectrons: 518.000000
	SubspaceRotationAdjust: set factor to 0.914
ElecMinimize: Iter:   2  F: -3084.895815569065235  |grad|_K:  1.931e-05  alpha:  4.030e-01  linmin:  2.088e-04  t[s]:   4380.95
	FillingsUpdate:  mu: +0.701682803  nElectrons: 518.000000
	SubspaceRotationAdjust: set factor to 0.665
ElecMinimize: Iter:   3  F: -3084.902258605190582  |grad|_K:  1.725e-05  alpha:  9.310e-02  linmin: -3.384e-05  t[s]:   5047.12
	FillingsUpdate:  mu: +0.702065845  nElectrons: 518.000000
	SubspaceRotationAdjust: set factor to 0.842
ElecMinimize: Iter:   4  F: -3084.914719120421069  |grad|_K:  1.004e-05  alpha:  2.218e-01  linmin:  1.287e-04  t[s]:   5707.32
	FillingsUpdate:  mu: +0.702917469  nElectrons: 518.000000
	SubspaceRotationAdjust: set factor to 0.718
ElecMinimize: Iter:   5  F: -3084.919152971829135  |grad|_K:  8.789e-06  alpha:  2.461e-01  linmin:  2.456e-05  t[s]:   6355.10
	FillingsUpdate:  mu: +0.702408524  nElectrons: 518.000000
	SubspaceRotationAdjust: set factor to 0.587
ElecMinimize: Iter:   6  F: -3084.921298476670017  |grad|_K:  6.343e-06  alpha:  1.439e-01  linmin: -1.354e-05  t[s]:   7017.11
	FillingsUpdate:  mu: +0.702437307  nElectrons: 518.000000
	SubspaceRotationAdjust: set factor to 0.401
ElecMinimize: Iter:   7  F: -3084.922160259784050  |grad|_K:  3.483e-06  alpha:  1.105e-01  linmin:  1.633e-06  t[s]:   7679.59
	FillingsUpdate:  mu: +0.702596795  nElectrons: 518.000000
	SubspaceRotationAdjust: set factor to 0.489
ElecMinimize: Iter:   8  F: -3084.922770510227565  |grad|_K:  2.098e-06  alpha:  2.625e-01  linmin:  1.678e-05  t[s]:   8338.61
	FillingsUpdate:  mu: +0.702614220  nElectrons: 518.000000
	SubspaceRotationAdjust: set factor to 0.366
ElecMinimize: Iter:   9  F: -3084.922910374705680  |grad|_K:  1.389e-06  alpha:  1.660e-01  linmin: -2.965e-07  t[s]:   8998.14
	FillingsUpdate:  mu: +0.702857950  nElectrons: 518.000000
	SubspaceRotationAdjust: set factor to 0.473
ElecMinimize: Iter:  10  F: -3084.922995487851949  |grad|_K:  7.548e-07  alpha:  2.293e-01  linmin: -2.230e-06  t[s]:   9654.82
	FillingsUpdate:  mu: +0.702884095  nElectrons: 518.000000
	SubspaceRotationAdjust: set factor to 0.431
ElecMinimize: Iter:  11  F: -3084.923033025389486  |grad|_K:  6.120e-07  alpha:  3.423e-01  linmin: -2.248e-06  t[s]:  10313.71
	FillingsUpdate:  mu: +0.702835423  nElectrons: 518.000000
	SubspaceRotationAdjust: set factor to 0.4
ElecMinimize: Iter:  12  F: -3084.923046808306026  |grad|_K:  4.775e-07  alpha:  1.913e-01  linmin: -1.116e-06  t[s]:  10967.63
	FillingsUpdate:  mu: +0.702873445  nElectrons: 518.000000
	SubspaceRotationAdjust: set factor to 0.471
ElecMinimize: Iter:  13  F: -3084.923059956098314  |grad|_K:  3.712e-07  alpha:  2.993e-01  linmin: -2.645e-06  t[s]:  11627.09
	FillingsUpdate:  mu: +0.702921012  nElectrons: 518.000000
	SubspaceRotationAdjust: set factor to 0.542
ElecMinimize: Iter:  14  F: -3084.923068688701733  |grad|_K:  2.956e-07  alpha:  3.285e-01  linmin: -1.147e-06  t[s]:  12274.71
	FillingsUpdate:  mu: +0.702915587  nElectrons: 518.000000
	SubspaceRotationAdjust: set factor to 0.444
ElecMinimize: Iter:  15  F: -3084.923072238855184  |grad|_K:  2.783e-07  alpha:  2.110e-01  linmin: -2.669e-07  t[s]:  12934.40
	FillingsUpdate:  mu: +0.702934899  nElectrons: 518.000000
	SubspaceRotationAdjust: set factor to 0.442
ElecMinimize: Iter:  16  F: -3084.923075612799948  |grad|_K:  1.541e-07  alpha:  2.264e-01  linmin:  2.676e-07  t[s]:  13588.42
	FillingsUpdate:  mu: +0.702910658  nElectrons: 518.000000
	SubspaceRotationAdjust: set factor to 0.532
ElecMinimize: Iter:  17  F: -3084.923077100217142  |grad|_K:  9.843e-08  alpha:  3.258e-01  linmin:  1.388e-07  t[s]:  14243.50
	FillingsUpdate:  mu: +0.702896186  nElectrons: 518.000000
	SubspaceRotationAdjust: set factor to 0.438
ElecMinimize: Iter:  18  F: -3084.923077562170420  |grad|_K:  8.796e-08  alpha:  2.479e-01  linmin: -9.202e-08  t[s]:  14905.54
	FillingsUpdate:  mu: +0.702900616  nElectrons: 518.000000
	SubspaceRotationAdjust: set factor to 0.346
ElecMinimize: Iter:  19  F: -3084.923077822326377  |grad|_K:  4.815e-08  alpha:  1.750e-01  linmin: -4.744e-08  t[s]:  15569.17
	FillingsUpdate:  mu: +0.702901282  nElectrons: 518.000000
	SubspaceRotationAdjust: set factor to 0.406
ElecMinimize: Iter:  20  F: -3084.923077950019433  |grad|_K:  2.990e-08  alpha:  2.860e-01  linmin:  2.191e-07  t[s]:  16225.59
	FillingsUpdate:  mu: +0.702895863  nElectrons: 518.000000
	SubspaceRotationAdjust: set factor to 0.514
ElecMinimize: Iter:  21  F: -3084.923078012960559  |grad|_K:  2.130e-08  alpha:  3.662e-01  linmin: -9.061e-07  t[s]:  16883.27
	FillingsUpdate:  mu: +0.702894289  nElectrons: 518.000000
	SubspaceRotationAdjust: set factor to 0.435
ElecMinimize: Iter:  22  F: -3084.923078037567848  |grad|_K:  2.082e-08  alpha:  2.805e-01  linmin:  2.721e-07  t[s]:  17539.70
	FillingsUpdate:  mu: +0.702891592  nElectrons: 518.000000
	SubspaceRotationAdjust: set factor to 0.392
ElecMinimize: Iter:  23  F: -3084.923078055762289  |grad|_K:  1.444e-08  alpha:  2.185e-01  linmin:  5.663e-08  t[s]:  18193.00
	FillingsUpdate:  mu: +0.702892850  nElectrons: 518.000000
	SubspaceRotationAdjust: set factor to 0.472
ElecMinimize: Iter:  24  F: -3084.923078068729865  |grad|_K:  9.621e-09  alpha:  3.200e-01  linmin: -1.304e-06  t[s]:  18854.42
	FillingsUpdate:  mu: +0.702892753  nElectrons: 518.000000
	SubspaceRotationAdjust: set factor to 0.506
ElecMinimize: Iter:  25  F: -3084.923078075491048  |grad|_K:  7.383e-09  alpha:  3.727e-01  linmin:  1.197e-07  t[s]:  19508.93
	FillingsUpdate:  mu: +0.702892090  nElectrons: 518.000000
	SubspaceRotationAdjust: set factor to 0.471
ElecMinimize: Iter:  26  F: -3084.923078078836625  |grad|_K:  6.378e-09  alpha:  3.088e-01  linmin:  1.679e-06  t[s]:  20180.78
ElecMinimize: Converged (|Delta F|<1.000000e-08 for 2 iters).
Setting wave functions to eigenvectors of Hamiltonian

# Ionic positions in cartesian coordinates:
ion Pd   0.001000000000000   0.000000000000000   0.000000000000000 1
ion Pd   0.000000000000000   3.676517000000000   3.675517000000001 1
ion Pd   3.675517000000001   0.000000000000000   3.676517000000000 1
ion Pd   3.675517000000001   3.675517000000001   0.000000000000000 1
ion Pd   0.000000000000000   0.000000000000000   7.351035000000001 1
ion Pd   0.000000000000000   3.675517000000001  11.026552000000002 1
ion Pd   3.675517000000001   0.000000000000000  11.026552000000002 1
ion Pd   3.675517000000001   3.675517000000001   7.351035000000001 1
ion Pd   0.000000000000000   7.351035000000001   0.000000000000000 1
ion Pd   0.000000000000000  11.026552000000002   3.675517000000001 1
ion Pd   3.675517000000001   7.351035000000001   3.675517000000001 1
ion Pd   3.675517000000001  11.026552000000002   0.000000000000000 1
ion Pd   0.000000000000000   7.351035000000001   7.351035000000001 1
ion Pd   0.000000000000000  11.026552000000002  11.026552000000002 1
ion Pd   3.675517000000001   7.351035000000001  11.026552000000002 1
ion Pd   3.675517000000001  11.026552000000002   7.351035000000001 1
ion Pd   7.351035000000001   0.000000000000000   0.000000000000000 1
ion Pd   7.351035000000001   3.675517000000001   3.675517000000001 1
ion Pd  11.026552000000002   0.000000000000000   3.675517000000001 1
ion Pd  11.026552000000002   3.675517000000001   0.000000000000000 1
ion Pd   7.351035000000001   0.000000000000000   7.351035000000001 1
ion Pd   7.351035000000001   3.675517000000001  11.026552000000002 1
ion Pd  11.026552000000002   0.000000000000000  11.026552000000002 1
ion Pd  11.026552000000002   3.675517000000001   7.351035000000001 1
ion Pd   7.351035000000001   7.351035000000001   0.000000000000000 1
ion Pd   7.351035000000001  11.026552000000002   3.675517000000001 1
ion Pd  11.026552000000002   7.351035000000001   3.675517000000001 1
ion Pd  11.026552000000002  11.026552000000002   0.000000000000000 1
ion Pd   7.351035000000001   7.351035000000001   7.351035000000001 1
ion Pd   7.351035000000001  11.026552000000002  11.026552000000002 1
ion Pd  11.026552000000002   7.351035000000001  11.026552000000002 1
ion Pd  11.026552000000002  11.026552000000002   7.351035000000001 1
ion O   3.674517000000000   0.000000000000000   0.000000000000000 1

# Forces in Cartesian coordinates:
force Pd  -0.067152418837091   0.000015053972816   0.000031154769262 1
force Pd  -0.004436571338492   0.004333297742932   0.004433275699476 1
force Pd   0.000022639691146   0.000014884671301   0.066574135760971 1
force Pd   0.000038342082083   0.066788744820397   0.000017399989847 1
force Pd  -0.000721985622029   0.000013488270057  -0.000001285986903 1
force Pd  -0.004441070410560   0.004439236406457  -0.004439133962568 1
force Pd   0.000039807439271  -0.000000056671382  -0.066803777520958 1
force Pd   0.000000221489280   0.000716757643426   0.000014127834011 1
force Pd  -0.000705080476921   0.000013422308093  -0.000016026304583 1
force Pd  -0.004439317004879  -0.004435049446559   0.004435920959342 1
force Pd   0.000016017494594   0.000013540107127   0.000702383366124 1
force Pd   0.000039928761934  -0.066792062862393   0.000019266150410 1
force Pd   0.000428189371583   0.000013316830783   0.000015920558008 1
force Pd  -0.004440873496182  -0.004441529023363  -0.004438725915579 1
force Pd   0.000000875124398  -0.000000118806362  -0.000703307629473 1
force Pd   0.000000455775577  -0.000717112413427   0.000014672010833 1
force Pd   0.066691067305521  -0.000000285604934   0.000021298349558 1
force Pd   0.004433735815255   0.004431761645080   0.004430335480553 1
force Pd   0.000026703301481   0.000013427551588   0.000684994056386 1
force Pd   0.000011176541369   0.000682703192798  -0.000000507312844 1
force Pd   0.000711475587768   0.000000082822228   0.000013978027756 1
force Pd   0.004435315039880   0.004433722143645  -0.004433208753107 1
force Pd   0.000011329431820   0.000000104359817  -0.000685924896415 1
force Pd   0.000000639386029  -0.000429598420080  -0.000000080143418 1
force Pd   0.000694488906135   0.000000011952630  -0.000001091399905 1
force Pd   0.004433085400689  -0.004434076329743   0.004429935773576 1
force Pd  -0.000015480610556   0.000013369150219  -0.000427794300860 1
force Pd   0.000010719057876  -0.000683023527222  -0.000000449334950 1
force Pd  -0.000426529367104   0.000000201828756   0.000000702632747 1
force Pd   0.004435419176807  -0.004433845636196  -0.004433382457107 1
force Pd  -0.000000219810418   0.000000146499416   0.000428209895929 1
force Pd   0.000000329099882   0.000429042279637   0.000000112265541 1
force O   0.000298670135905   0.000001122881234   0.000118377963332 1

# Energy components:
   Eewald =    -2572.3933924534321704
       EH =      571.4276402412813241
     Eloc =    -1192.8805393215209278
      Enl =     -456.2424183661396455
      Exc =     -506.0235654379258676
 Exc_core =      110.3059417064372951
       KE =      960.9615699462059411
-------------------------------------
     Etot =    -3084.8447636850942217
       TS =        0.0783143937425570
-------------------------------------
        F =    -3084.9230780788366246

IonicMinimize: Iter:   0  F: -3084.923078078836625  |grad|_K:  1.659e-02  t[s]:  20278.30

#--- Lowdin population analysis ---
# oxidation-state Pd +0.043 -0.004 +0.043 +0.043 -0.001 -0.004 +0.043 -0.001 -0.001 -0.004 -0.001 +0.043 +0.006 -0.004 -0.001 -0.001 +0.043 -0.004 -0.001 -0.001 -0.001 -0.004 -0.001 +0.006 -0.001 -0.004 +0.006 -0.001 +0.006 -0.004 +0.006 +0.006
# oxidation-state O -0.018


-------- Electronic minimization -----------
	FillingsUpdate:  mu: +0.736127085  nElectrons: 518.000000
ElecMinimize: Iter:   0  F: -3083.509569244432896  |grad|_K:  1.637e-04  alpha:  1.000e+00
	FillingsUpdate:  mu: +0.742062673  nElectrons: 518.000000
	SubspaceRotationAdjust: set factor to 0.277
ElecMinimize: Iter:   1  F: -3084.657205906530635  |grad|_K:  9.382e-05  alpha:  2.302e-01  linmin:  4.903e-03  t[s]:  21360.61
	FillingsUpdate:  mu: +0.706333176  nElectrons: 518.000000
	SubspaceRotationAdjust: set factor to 0.324
ElecMinimize: Iter:   2  F: -3084.852705231656273  |grad|_K:  2.643e-05  alpha:  1.205e-01  linmin:  1.177e-04  t[s]:  22019.03
	FillingsUpdate:  mu: +0.702406541  nElectrons: 518.000000
	SubspaceRotationAdjust: set factor to 0.328
ElecMinimize: Iter:   3  F: -3084.893081824530327  |grad|_K:  1.459e-05  alpha:  3.026e-01  linmin:  5.410e-04  t[s]:  22667.51
	FillingsUpdate:  mu: +0.704886987  nElectrons: 518.000000
	SubspaceRotationAdjust: set factor to 0.264
ElecMinimize: Iter:   4  F: -3084.911832605635482  |grad|_K:  1.621e-05  alpha:  4.670e-01  linmin:  3.575e-04  t[s]:  23329.35
	FillingsUpdate:  mu: +0.702834316  nElectrons: 518.000000
	SubspaceRotationAdjust: set factor to 0.235
ElecMinimize: Iter:   5  F: -3084.926819350092046  |grad|_K:  1.232e-05  alpha:  3.085e-01  linmin:  1.840e-06  t[s]:  23979.77
	FillingsUpdate:  mu: +0.702447228  nElectrons: 518.000000
	SubspaceRotationAdjust: set factor to 0.299
ElecMinimize: Iter:   6  F: -3084.938433462604280  |grad|_K:  7.935e-06  alpha:  3.973e-01  linmin: -4.258e-05  t[s]:  24624.85
	FillingsUpdate:  mu: +0.703245435  nElectrons: 518.000000
	SubspaceRotationAdjust: set factor to 0.268
ElecMinimize: Iter:   7  F: -3084.942919048750355  |grad|_K:  6.032e-06  alpha:  3.684e-01  linmin:  1.573e-04  t[s]:  25287.11
	FillingsUpdate:  mu: +0.702727766  nElectrons: 518.000000
	SubspaceRotationAdjust: set factor to 0.192
ElecMinimize: Iter:   8  F: -3084.944589147412898  |grad|_K:  3.377e-06  alpha:  2.413e-01  linmin:  7.821e-09  t[s]:  25944.71
	FillingsUpdate:  mu: +0.702712425  nElectrons: 518.000000
	SubspaceRotationAdjust: set factor to 0.268
ElecMinimize: Iter:   9  F: -3084.945336185826363  |grad|_K:  1.893e-06  alpha:  3.407e-01  linmin:  9.209e-07  t[s]:  26597.11
	FillingsUpdate:  mu: +0.702780542  nElectrons: 518.000000
	SubspaceRotationAdjust: set factor to 0.258
ElecMinimize: Iter:  10  F: -3084.945568860689036  |grad|_K:  1.165e-06  alpha:  3.378e-01  linmin:  4.621e-06  t[s]:  27259.18
	FillingsUpdate:  mu: +0.702713118  nElectrons: 518.000000
	SubspaceRotationAdjust: set factor to 0.237
ElecMinimize: Iter:  11  F: -3084.945651805685429  |grad|_K:  7.564e-07  alpha:  3.177e-01  linmin:  4.341e-06  t[s]:  27932.87
	FillingsUpdate:  mu: +0.702753509  nElectrons: 518.000000
	SubspaceRotationAdjust: set factor to 0.291
ElecMinimize: Iter:  12  F: -3084.945690941852263  |grad|_K:  5.343e-07  alpha:  3.558e-01  linmin:  4.729e-06  t[s]:  28587.83
	FillingsUpdate:  mu: +0.702740295  nElectrons: 518.000000
	SubspaceRotationAdjust: set factor to 0.368
ElecMinimize: Iter:  13  F: -3084.945714465197398  |grad|_K:  3.937e-07  alpha:  4.287e-01  linmin:  3.270e-06  t[s]:  29255.82
	FillingsUpdate:  mu: +0.702723130  nElectrons: 518.000000
	SubspaceRotationAdjust: set factor to 0.39
ElecMinimize: Iter:  14  F: -3084.945729232738813  |grad|_K:  3.641e-07  alpha:  4.957e-01  linmin:  6.323e-07  t[s]:  29916.04
	FillingsUpdate:  mu: +0.702753426  nElectrons: 518.000000
	SubspaceRotationAdjust: set factor to 0.302
ElecMinimize: Iter:  15  F: -3084.945735432790570  |grad|_K:  2.927e-07  alpha:  2.433e-01  linmin: -3.012e-07  t[s]:  30567.93
	FillingsUpdate:  mu: +0.702737403  nElectrons: 518.000000
	SubspaceRotationAdjust: set factor to 0.277
ElecMinimize: Iter:  16  F: -3084.945740881194979  |grad|_K:  1.643e-07  alpha:  3.306e-01  linmin: -1.620e-07  t[s]:  31215.08
	FillingsUpdate:  mu: +0.702738168  nElectrons: 518.000000
	SubspaceRotationAdjust: set factor to 0.322
ElecMinimize: Iter:  17  F: -3084.945742856482411  |grad|_K:  9.893e-08  alpha:  3.803e-01  linmin: -3.182e-07  t[s]:  31871.65
	FillingsUpdate:  mu: +0.702741698  nElectrons: 518.000000
	SubspaceRotationAdjust: set factor to 0.36
ElecMinimize: Iter:  18  F: -3084.945743464727911  |grad|_K:  5.726e-08  alpha:  3.231e-01  linmin:  6.518e-08  t[s]:  32520.54
	FillingsUpdate:  mu: +0.702737608  nElectrons: 518.000000
	SubspaceRotationAdjust: set factor to 0.291
ElecMinimize: Iter:  19  F: -3084.945743673935795  |grad|_K:  4.518e-08  alpha:  3.323e-01  linmin:  2.964e-07  t[s]:  33171.73
	FillingsUpdate:  mu: +0.702739959  nElectrons: 518.000000
	SubspaceRotationAdjust: set factor to 0.245
ElecMinimize: Iter:  20  F: -3084.945743765709267  |grad|_K:  2.729e-08  alpha:  2.334e-01  linmin:  6.175e-07  t[s]:  33825.73
	FillingsUpdate:  mu: +0.702738874  nElectrons: 518.000000
	SubspaceRotationAdjust: set factor to 0.35
ElecMinimize: Iter:  21  F: -3084.945743828267496  |grad|_K:  1.775e-08  alpha:  4.342e-01  linmin: -3.123e-06  t[s]:  34489.69
	FillingsUpdate:  mu: +0.702738367  nElectrons: 518.000000
	SubspaceRotationAdjust: set factor to 0.385
ElecMinimize: Iter:  22  F: -3084.945743855105320  |grad|_K:  1.485e-08  alpha:  4.428e-01  linmin:  1.851e-07  t[s]:  35138.62
	FillingsUpdate:  mu: +0.702739086  nElectrons: 518.000000
	SubspaceRotationAdjust: set factor to 0.326
ElecMinimize: Iter:  23  F: -3084.945743868285717  |grad|_K:  1.241e-08  alpha:  3.102e-01  linmin:  1.838e-06  t[s]:  35790.57
	FillingsUpdate:  mu: +0.702738097  nElectrons: 518.000000
	SubspaceRotationAdjust: set factor to 0.259
ElecMinimize: Iter:  24  F: -3084.945743875479366  |grad|_K:  7.807e-09  alpha:  2.451e-01  linmin: -1.741e-06  t[s]:  36453.34
	FillingsUpdate:  mu: +0.702738376  nElectrons: 518.000000
	SubspaceRotationAdjust: set factor to 0.308
ElecMinimize: Iter:  25  F: -3084.945743879363818  |grad|_K:  3.989e-09  alpha:  3.185e-01  linmin:  1.971e-07  t[s]:  37118.42
ElecMinimize: Converged (|Delta F|<1.000000e-08 for 2 iters).
Setting wave functions to eigenvectors of Hamiltonian

# Ionic positions in cartesian coordinates:
ion Pd  -0.066152451698971   0.000015033356490   0.000031109144262 1
ion Pd  -0.004436604200372   3.680850277126606   3.679950230074478 1
ion Pd   3.675539606829266   0.000014864054974   3.743091090135971 1
ion Pd   3.675555309220203   3.742305724204071   0.000017354364847 1
ion Pd  -0.000722018483909   0.000013467653730   7.351033668388099 1
ion Pd  -0.004441103272441   3.679956215790132  11.022112820412435 1
ion Pd   3.675556774577391  -0.000000077287709  10.959748176854044 1
ion Pd   3.675517188627401   3.676233737027100   7.351049082209014 1
ion Pd  -0.000705113338801   7.351048401691768  -0.000016071929583 1
ion Pd  -0.004439349866760  11.022116929937118   3.679952875334344 1
ion Pd   3.675532984632714   7.351048519490801   3.676219337741125 1
ion Pd   3.675556895900054  10.959759916521282   0.000019220525410 1
ion Pd   0.000428156509703   7.351048296214457   7.351050874933009 1
ion Pd  -0.004440906358062  11.022110450360314  11.022113228459423 1
ion Pd   3.675517842262519   7.351034860577313  11.025848646745530 1
ion Pd   3.675517422913698  11.025834866970248   7.351049626385835 1
ion Pd   7.417726034443642  -0.000000306221261   0.000021252724559 1
ion Pd   7.355468702953377   3.679948741028754   3.679947289855554 1
ion Pd  11.026578670439603   0.000013406935261   3.676201948431387 1
ion Pd  11.026563143679493   3.676199682576473  -0.000000552937844 1
ion Pd   7.351746442725888   0.000000062205902   7.351048932402757 1
ion Pd   7.355470282178000   3.679950701527320  11.022118745621894 1
ion Pd  11.026563296569943   0.000000083743490  11.025866029478587 1
ion Pd  11.026552606524151   3.675087380963594   7.351034874231583 1
ion Pd   7.351729456044256   7.351034991336305  -0.000001137024905 1
ion Pd   7.355468052538809  11.022117903053934   3.679946890148577 1
ion Pd  11.026536486527567   7.351048348533895   3.675089160074141 1
ion Pd  11.026562686195998  11.025868955856454  -0.000000494959950 1
ion Pd   7.350608437771018   7.351035181212430   7.351035657007748 1
ion Pd   7.355470386314929  11.022118133747480  11.022118571917897 1
ion Pd  11.026551747327703   7.351035125883091  11.026980164270931 1
ion Pd  11.026552296238004  11.026981021663312   7.351035066640543 1
ion O   3.674815637274025   0.000001102264907   0.000118332338332 1

# Forces in Cartesian coordinates:
force Pd  -0.044768482922817   0.000011926762148   0.000015926720930 1
force Pd  -0.003465552654428   0.003388700079719   0.003476170868675 1
force Pd   0.000004795967012   0.000010386851807   0.044526494995921 1
force Pd   0.000016262553625   0.044661623040446   0.000007776263841 1
force Pd  -0.003099686524020   0.000010736185505  -0.000000474330202 1
force Pd  -0.003467436196837   0.003478660568364  -0.003477992159526 1
force Pd   0.000016139658639   0.000000879152843  -0.044653429842791 1
force Pd  -0.000000007506204   0.003097661560084   0.000012207771704 1
force Pd  -0.003084554820440   0.000009762074607  -0.000012521128343 1
force Pd  -0.003466649543451  -0.003476864774040   0.003476269739635 1
force Pd   0.000011653196849   0.000010961534726   0.003086023963740 1
force Pd   0.000017351563050  -0.044661779696719   0.000007006351393 1
force Pd   0.000233649198856   0.000010717608841   0.000011839317166 1
force Pd  -0.003467289476569  -0.003479208230957  -0.003476857126871 1
force Pd   0.000001106973604  -0.000000629248783  -0.003083891111809 1
force Pd   0.000000037657552  -0.003096465578204   0.000009041118799 1
force Pd   0.044541542466763  -0.000000638897281   0.000011353978452 1
force Pd   0.003467013836815   0.003476109808061   0.003475362717523 1
force Pd   0.000015211567662   0.000010528043549   0.003074272095596 1
force Pd   0.000005151408614   0.003072537298946  -0.000000620878023 1
force Pd   0.003096093920371  -0.000000059763950   0.000009122977724 1
force Pd   0.003467318884091   0.003477022767917  -0.003474013021213 1
force Pd   0.000006948370281   0.000000180531088  -0.003072250708871 1
force Pd   0.000000116619769  -0.000235691865554  -0.000000531252465 1
force Pd   0.003080882625911   0.000000465708306  -0.000000898325989 1
force Pd   0.003466381794264  -0.003476239262032   0.003475689306022 1
force Pd  -0.000012257490262   0.000010817091740  -0.000235442511881 1
force Pd   0.000004426086190  -0.003071320983050  -0.000000136436624 1
force Pd  -0.000232279486338  -0.000000054093171   0.000000692390869 1
force Pd   0.003467462224188  -0.003476782990374  -0.003475093951272 1
force Pd  -0.000001278998558  -0.000000116380164   0.000235655553650 1
force Pd  -0.000000295532107   0.000236652859879  -0.000000274612374 1
force O   0.000147461578636   0.000000046706472   0.000054150627898 1

# Energy components:
   Eewald =    -2574.7520607245287465
       EH =      569.2315826662261316
     Eloc =    -1188.2711746212330581
      Enl =     -456.2295692487703604
      Exc =     -505.9854355932145609
 Exc_core =      110.3059402179863042
       KE =      960.8348485769313356
-------------------------------------
     Etot =    -3084.8658687266024572
       TS =        0.0798751527613671
-------------------------------------
        F =    -3084.9457438793638175

IonicMinimize: Iter:   1  F: -3084.945743879363818  |grad|_K:  1.117e-02  alpha:  1.000e+00  linmin: -9.964e-01  t[s]:  37217.28

#--- Lowdin population analysis ---
# oxidation-state Pd +0.045 -0.004 +0.045 +0.045 -0.000 -0.004 +0.045 -0.000 -0.000 -0.004 -0.000 +0.045 +0.006 -0.004 -0.000 -0.000 +0.044 -0.004 -0.000 -0.000 -0.000 -0.004 -0.000 +0.006 -0.000 -0.004 +0.006 -0.000 +0.006 -0.004 +0.006 +0.006
# oxidation-state O -0.045


-------- Electronic minimization -----------
	FillingsUpdate:  mu: +0.789216265  nElectrons: 518.000000
ElecMinimize: Iter:   0  F: -3081.537757757587315  |grad|_K:  2.484e-04  alpha:  1.000e+00
	FillingsUpdate:  mu: +0.770150492  nElectrons: 518.000000
	SubspaceRotationAdjust: set factor to 0.19
ElecMinimize: Iter:   1  F: -3084.380128287390107  |grad|_K:  1.120e-04  alpha:  2.683e-01  linmin:  2.443e-02  t[s]:  38314.04
	FillingsUpdate:  mu: +0.705974189  nElectrons: 518.000000
	SubspaceRotationAdjust: set factor to 0.265
ElecMinimize: Iter:   2  F: -3084.733382448168413  |grad|_K:  3.549e-05  alpha:  1.627e-01  linmin: -2.006e-04  t[s]:  38963.31
	FillingsUpdate:  mu: +0.703826634  nElectrons: 518.000000
	SubspaceRotationAdjust: set factor to 0.233
ElecMinimize: Iter:   3  F: -3084.810076006940562  |grad|_K:  2.347e-05  alpha:  3.165e-01  linmin:  2.595e-04  t[s]:  39621.75
	FillingsUpdate:  mu: +0.706919954  nElectrons: 518.000000
	SubspaceRotationAdjust: set factor to 0.231
ElecMinimize: Iter:   4  F: -3084.851556004291069  |grad|_K:  2.444e-05  alpha:  3.943e-01  linmin:  1.310e-04  t[s]:  40276.66
	FillingsUpdate:  mu: +0.703453208  nElectrons: 518.000000
	SubspaceRotationAdjust: set factor to 0.313
ElecMinimize: Iter:   5  F: -3084.900826742044956  |grad|_K:  2.131e-05  alpha:  4.312e-01  linmin: -2.090e-04  t[s]:  40929.77
	FillingsUpdate:  mu: +0.703473139  nElectrons: 518.000000
	SubspaceRotationAdjust: set factor to 0.3
ElecMinimize: Iter:   6  F: -3084.936087297488029  |grad|_K:  1.855e-05  alpha:  3.971e-01  linmin: -2.583e-04  t[s]:  41582.89
	FillingsUpdate:  mu: +0.703226812  nElectrons: 518.000000
	SubspaceRotationAdjust: set factor to 0.221
ElecMinimize: Iter:   7  F: -3084.952738422536640  |grad|_K:  1.193e-05  alpha:  2.372e-01  linmin: -1.284e-04  t[s]:  42241.75
	FillingsUpdate:  mu: +0.702627214  nElectrons: 518.000000
	SubspaceRotationAdjust: set factor to 0.271
ElecMinimize: Iter:   8  F: -3084.961289621871856  |grad|_K:  7.040e-06  alpha:  3.087e-01  linmin: -1.053e-04  t[s]:  42897.96
	FillingsUpdate:  mu: +0.702410054  nElectrons: 518.000000
	SubspaceRotationAdjust: set factor to 0.25
ElecMinimize: Iter:   9  F: -3084.964077078037462  |grad|_K:  4.153e-06  alpha:  2.906e-01  linmin: -4.526e-05  t[s]:  43556.36
	FillingsUpdate:  mu: +0.702625155  nElectrons: 518.000000
	SubspaceRotationAdjust: set factor to 0.201
ElecMinimize: Iter:  10  F: -3084.964914184150075  |grad|_K:  2.524e-06  alpha:  2.519e-01  linmin:  6.305e-06  t[s]:  44223.27
	FillingsUpdate:  mu: +0.702565162  nElectrons: 518.000000
	SubspaceRotationAdjust: set factor to 0.298
ElecMinimize: Iter:  11  F: -3084.965292015341220  |grad|_K:  1.388e-06  alpha:  3.085e-01  linmin: -7.170e-08  t[s]:  44881.97
	FillingsUpdate:  mu: +0.702489471  nElectrons: 518.000000
	SubspaceRotationAdjust: set factor to 0.297
ElecMinimize: Iter:  12  F: -3084.965434434775943  |grad|_K:  1.061e-06  alpha:  3.842e-01  linmin:  6.397e-06  t[s]:  45536.83
	FillingsUpdate:  mu: +0.702564113  nElectrons: 518.000000
	SubspaceRotationAdjust: set factor to 0.309
ElecMinimize: Iter:  13  F: -3084.965497283586046  |grad|_K:  8.423e-07  alpha:  2.903e-01  linmin:  1.724e-06  t[s]:  46203.98
	FillingsUpdate:  mu: +0.702553489  nElectrons: 518.000000
	SubspaceRotationAdjust: set factor to 0.37
ElecMinimize: Iter:  14  F: -3084.965559827953712  |grad|_K:  6.245e-07  alpha:  4.585e-01  linmin:  4.273e-06  t[s]:  46856.77
	FillingsUpdate:  mu: +0.702550943  nElectrons: 518.000000
	SubspaceRotationAdjust: set factor to 0.433
ElecMinimize: Iter:  15  F: -3084.965594015582610  |grad|_K:  4.656e-07  alpha:  4.561e-01  linmin: -2.685e-07  t[s]:  47527.15
	FillingsUpdate:  mu: +0.702575373  nElectrons: 518.000000
	SubspaceRotationAdjust: set factor to 0.391
ElecMinimize: Iter:  16  F: -3084.965606898618262  |grad|_K:  3.898e-07  alpha:  3.090e-01  linmin: -8.306e-07  t[s]:  48184.90
	FillingsUpdate:  mu: +0.702553353  nElectrons: 518.000000
	SubspaceRotationAdjust: set factor to 0.262
ElecMinimize: Iter:  17  F: -3084.965612593187871  |grad|_K:  2.530e-07  alpha:  1.949e-01  linmin: -4.175e-07  t[s]:  48852.59
	FillingsUpdate:  mu: +0.702561794  nElectrons: 518.000000
	SubspaceRotationAdjust: set factor to 0.323
ElecMinimize: Iter:  18  F: -3084.965616169825353  |grad|_K:  1.267e-07  alpha:  2.905e-01  linmin:  4.083e-07  t[s]:  49515.83
	FillingsUpdate:  mu: +0.702563696  nElectrons: 518.000000
	SubspaceRotationAdjust: set factor to 0.382
ElecMinimize: Iter:  19  F: -3084.965617316143835  |grad|_K:  8.310e-08  alpha:  3.716e-01  linmin: -9.494e-09  t[s]:  50181.65
	FillingsUpdate:  mu: +0.702557105  nElectrons: 518.000000
	SubspaceRotationAdjust: set factor to 0.324
ElecMinimize: Iter:  20  F: -3084.965617691784701  |grad|_K:  7.044e-08  alpha:  2.827e-01  linmin:  3.946e-07  t[s]:  50842.89
	FillingsUpdate:  mu: +0.702559388  nElectrons: 518.000000
	SubspaceRotationAdjust: set factor to 0.322
ElecMinimize: Iter:  21  F: -3084.965617950782871  |grad|_K:  4.695e-08  alpha:  2.716e-01  linmin: -3.414e-07  t[s]:  51501.62
	FillingsUpdate:  mu: +0.702557816  nElectrons: 518.000000
	SubspaceRotationAdjust: set factor to 0.402
ElecMinimize: Iter:  22  F: -3084.965618122457727  |grad|_K:  3.247e-08  alpha:  4.062e-01  linmin:  2.326e-06  t[s]:  52158.55
	FillingsUpdate:  mu: +0.702556475  nElectrons: 518.000000
	SubspaceRotationAdjust: set factor to 0.454
ElecMinimize: Iter:  23  F: -3084.965618203891609  |grad|_K:  2.206e-08  alpha:  4.037e-01  linmin:  2.724e-06  t[s]:  52810.84
	FillingsUpdate:  mu: +0.702557132  nElectrons: 518.000000
	SubspaceRotationAdjust: set factor to 0.388
ElecMinimize: Iter:  24  F: -3084.965618233913119  |grad|_K:  1.818e-08  alpha:  3.232e-01  linmin:  1.446e-06  t[s]:  53462.86
	FillingsUpdate:  mu: +0.702556130  nElectrons: 518.000000
	SubspaceRotationAdjust: set factor to 0.247
ElecMinimize: Iter:  25  F: -3084.965618244770667  |grad|_K:  1.077e-08  alpha:  1.674e-01  linmin:  1.642e-06  t[s]:  54122.32
	FillingsUpdate:  mu: +0.702556547  nElectrons: 518.000000
	SubspaceRotationAdjust: set factor to 0.341
ElecMinimize: Iter:  26  F: -3084.965618251396791  |grad|_K:  5.348e-09  alpha:  2.713e-01  linmin: -2.981e-05  t[s]:  54782.80
	FillingsUpdate:  mu: +0.702556749  nElectrons: 518.000000
	SubspaceRotationAdjust: set factor to 0.357
ElecMinimize: Iter:  27  F: -3084.965618253403136  |grad|_K:  3.948e-09  alpha:  3.250e-01  linmin: -1.726e-05  t[s]:  55442.15
ElecMinimize: Converged (|Delta F|<1.000000e-08 for 2 iters).
Setting wave functions to eigenvectors of Hamiltonian

# Ionic positions in cartesian coordinates:
ion Pd  -0.165828269729891   0.000049384517752   0.000046489242177 1
ion Pd  -0.014258652180738   3.690467833536619   3.689848920883286 1
ion Pd   3.675507434201674   0.000039868703555   3.842823229723380 1
ion Pd   3.675552806464054   3.842305724162080   0.000018815328499 1
ion Pd  -0.018481875500867   0.000044559376244   7.351034205188193 1
ion Pd  -0.014262717458006   3.689854246293207  11.012218727060704 1
ion Pd   3.675549437307164   0.000005638351444  10.859841916944697 1
ion Pd   3.675516380383275   3.693994949334511   7.351087833739100 1
ion Pd  -0.018415266191506   7.351073467308293  -0.000051562789934 1
ion Pd  -0.014260797946511  11.012218680677215   3.689844882993103 1
ion Pd   3.675562824642030   7.351080904157570   3.693946167322638 1
ion Pd   3.675556947251718  10.859768002855859   0.000010615132706 1
ion Pd   0.000733358081104   7.351079743514117   7.351082321816747 1
ion Pd  -0.014262129831489  11.012215179107505  11.012225241088009 1
ion Pd   3.675522330032688   7.351031134242380  11.008137975305967 1
ion Pd   3.675516254792535  11.008082169454820   7.351066690862414 1
ion Pd   7.517230647543926  -0.000003632905685   0.000034738433201 1
ion Pd   7.365307606947479   3.689851179664885   3.689848958703933 1
ion Pd  11.026601646775900   0.000043339937808   3.693901953700725 1
ion Pd  11.026564928409593   3.693894915791285  -0.000003102942277 1
ion Pd   7.369512163166081  -0.000000591971510   7.351068437247307 1
ion Pd   7.365306764329401   3.689853538734278  11.012233631884042 1
ion Pd  11.026576111493871   0.000000901535515  11.008181490113115 1
ion Pd  11.026551434042119   3.674772863728482   7.351031714465766 1
ion Pd   7.369445190472379   7.351037882174178  -0.000003840521754 1
ion Pd   7.365304726415807  11.012220950119900   3.689851745562594 1
ion Pd  11.026501014644477   7.351080285238575   3.674771293155599 1
ion Pd  11.026561112899206  11.008182271828524  -0.000000117680473 1
ion Pd   7.350307080529488   7.351034234162414   7.351038131973165 1
ion Pd   7.365307494135162  11.012217077581138  11.012227049137413 1
ion Pd  11.026544055314165   7.351033934816599  11.027298249190551 1
ion Pd  11.026549354759412  11.027303112728665   7.351033010613982 1
ion O   3.674929603804340  -0.000001748758185   0.000136187121459 1

# Forces in Cartesian coordinates:
force Pd  -0.018384580711169   0.000003504204492   0.000005908117706 1
force Pd  -0.001620481445328   0.001591524702056   0.001643980248964 1
force Pd   0.000005450321051   0.000004258844888   0.018111298431494 1
force Pd   0.000008469994835   0.018172690589816  -0.000000948677106 1
force Pd  -0.004014266528643   0.000003741112002   0.000006783800440 1
force Pd  -0.001620281724943   0.001645722993115  -0.001643607952734 1
force Pd   0.000009337951995   0.000000367502651  -0.018183264399924 1
force Pd   0.000000228452326   0.004052976521219   0.000004363126345 1
force Pd  -0.004011580257682   0.000004355013737  -0.000001485773003 1
force Pd  -0.001619854199696  -0.001644246365916   0.001642581769506 1
force Pd   0.000004163958270   0.000002206600418   0.004047117691897 1
force Pd   0.000011300177670  -0.018170765704215   0.000007537017981 1
force Pd  -0.001115609208841   0.000004098480313   0.000003620615843 1
force Pd  -0.001620311484095  -0.001642199587632  -0.001642920921703 1
force Pd   0.000001827333025   0.000001353250156  -0.004044904150932 1
force Pd   0.000001531937052  -0.004049182673336   0.000007174303161 1
force Pd   0.018258225038836   0.000001147856128   0.000005514527985 1
force Pd   0.001617593395849   0.001641991972499   0.001642241971220 1
force Pd   0.000005394877278   0.000004139835575   0.004015464281095 1
force Pd   0.000001937155185   0.004020089342105   0.000001061346399 1
force Pd   0.004011641621400   0.000000364658746   0.000001049809430 1
force Pd   0.001620215703177   0.001643191642845  -0.001639870533094 1
force Pd   0.000004696666967  -0.000000076789694  -0.004013505496951 1
force Pd   0.000000640264159   0.001113190214277   0.000001297388184 1
force Pd   0.004008689633715  -0.000000748663981  -0.000002136863632 1
force Pd   0.001617267954344  -0.001639218503558   0.001642656552860 1
force Pd  -0.000002886856277   0.000004407335075   0.001109210871870 1
force Pd   0.000004384060116  -0.004016304648437  -0.000000504831681 1
force Pd   0.001115950209796   0.000000222934177   0.000001477748938 1
force Pd   0.001620635935900  -0.001643080972844  -0.001641150652981 1
force Pd  -0.000000772648516  -0.000000104108656  -0.001109575133426 1
force Pd   0.000000297820468  -0.001109496291031  -0.000000741736341 1
force O   0.000081640042262   0.000000004303197   0.000024136340077 1

# Energy components:
   Eewald =    -2577.0869285275748553
       EH =      567.0609560180350854
     Eloc =    -1183.7019997844713544
      Enl =     -456.2073320592227788
      Exc =     -505.9448447486798841
 Exc_core =      110.3059423205808827
       KE =      960.6905286938608697
-------------------------------------
     Etot =    -3084.8836780874721626
       TS =        0.0819401659307763
-------------------------------------
        F =    -3084.9656182534031359

IonicMinimize: Iter:   2  F: -3084.965618253403136  |grad|_K:  4.774e-03  alpha:  7.106e-01  linmin: -9.964e-01  t[s]:  55539.72

#--- Lowdin population analysis ---
# oxidation-state Pd +0.047 -0.004 +0.047 +0.047 +0.001 -0.004 +0.047 +0.001 +0.001 -0.004 +0.001 +0.047 +0.007 -0.004 +0.001 +0.001 +0.047 -0.004 +0.001 +0.001 +0.001 -0.004 +0.001 +0.007 +0.001 -0.004 +0.007 +0.001 +0.007 -0.004 +0.007 +0.007
# oxidation-state O -0.080


-------- Electronic minimization -----------
	FillingsUpdate:  mu: +0.775754335  nElectrons: 518.000000
ElecMinimize: Iter:   0  F: -3082.452339448285329  |grad|_K:  2.181e-04  alpha:  1.000e+00
	FillingsUpdate:  mu: +0.775414558  nElectrons: 518.000000
	SubspaceRotationAdjust: set factor to 0.213
ElecMinimize: Iter:   1  F: -3084.414775917452971  |grad|_K:  1.196e-04  alpha:  2.374e-01  linmin:  1.653e-02  t[s]:  56635.05
	FillingsUpdate:  mu: +0.704671935  nElectrons: 518.000000
	SubspaceRotationAdjust: set factor to 0.404
ElecMinimize: Iter:   2  F: -3084.800545531288208  |grad|_K:  3.181e-05  alpha:  1.508e-01  linmin: -3.771e-04  t[s]:  57293.93
	FillingsUpdate:  mu: +0.703295920  nElectrons: 518.000000
	SubspaceRotationAdjust: set factor to 0.303
ElecMinimize: Iter:   3  F: -3084.860931408327815  |grad|_K:  2.301e-05  alpha:  3.097e-01  linmin:  1.781e-04  t[s]:  57961.43
	FillingsUpdate:  mu: +0.706430760  nElectrons: 518.000000
	SubspaceRotationAdjust: set factor to 0.272
ElecMinimize: Iter:   4  F: -3084.890086512072230  |grad|_K:  2.393e-05  alpha:  2.867e-01  linmin:  8.883e-05  t[s]:  58630.13
	FillingsUpdate:  mu: +0.703850778  nElectrons: 518.000000
	SubspaceRotationAdjust: set factor to 0.418
ElecMinimize: Iter:   5  F: -3084.932827728021039  |grad|_K:  1.890e-05  alpha:  3.880e-01  linmin: -1.908e-04  t[s]:  59291.14
	FillingsUpdate:  mu: +0.702937535  nElectrons: 518.000000
	SubspaceRotationAdjust: set factor to 0.354
ElecMinimize: Iter:   6  F: -3084.952314400316482  |grad|_K:  1.675e-05  alpha:  2.821e-01  linmin: -5.539e-05  t[s]:  59963.05
	FillingsUpdate:  mu: +0.702836713  nElectrons: 518.000000
	SubspaceRotationAdjust: set factor to 0.253
ElecMinimize: Iter:   7  F: -3084.963480022614476  |grad|_K:  9.837e-06  alpha:  2.033e-01  linmin:  4.418e-05  t[s]:  60624.60
	FillingsUpdate:  mu: +0.702513674  nElectrons: 518.000000
	SubspaceRotationAdjust: set factor to 0.303
ElecMinimize: Iter:   8  F: -3084.969395513611744  |grad|_K:  5.089e-06  alpha:  3.185e-01  linmin: -7.396e-05  t[s]:  61285.71
	FillingsUpdate:  mu: +0.702358853  nElectrons: 518.000000
	SubspaceRotationAdjust: set factor to 0.273
ElecMinimize: Iter:   9  F: -3084.971001211924431  |grad|_K:  3.086e-06  alpha:  3.211e-01  linmin: -2.458e-05  t[s]:  61947.02
	FillingsUpdate:  mu: +0.702523221  nElectrons: 518.000000
	SubspaceRotationAdjust: set factor to 0.191
ElecMinimize: Iter:  10  F: -3084.971410886852027  |grad|_K:  1.861e-06  alpha:  2.237e-01  linmin: -1.413e-06  t[s]:  62602.06
	FillingsUpdate:  mu: +0.702449586  nElectrons: 518.000000
	SubspaceRotationAdjust: set factor to 0.268
ElecMinimize: Iter:  11  F: -3084.971626027501770  |grad|_K:  9.216e-07  alpha:  3.229e-01  linmin: -4.888e-06  t[s]:  63266.11
	FillingsUpdate:  mu: +0.702421878  nElectrons: 518.000000
	SubspaceRotationAdjust: set factor to 0.302
ElecMinimize: Iter:  12  F: -3084.971689294351563  |grad|_K:  6.489e-07  alpha:  3.874e-01  linmin:  8.151e-06  t[s]:  63916.62
	FillingsUpdate:  mu: +0.702465887  nElectrons: 518.000000
	SubspaceRotationAdjust: set factor to 0.32
ElecMinimize: Iter:  13  F: -3084.971714334747503  |grad|_K:  5.301e-07  alpha:  3.094e-01  linmin:  6.869e-07  t[s]:  64570.80
	FillingsUpdate:  mu: +0.702443594  nElectrons: 518.000000
	SubspaceRotationAdjust: set factor to 0.342
ElecMinimize: Iter:  14  F: -3084.971736423147831  |grad|_K:  4.322e-07  alpha:  4.088e-01  linmin:  2.662e-06  t[s]:  65225.62
	FillingsUpdate:  mu: +0.702459374  nElectrons: 518.000000
	SubspaceRotationAdjust: set factor to 0.379
ElecMinimize: Iter:  15  F: -3084.971751019831572  |grad|_K:  3.241e-07  alpha:  4.064e-01  linmin:  3.667e-08  t[s]:  65891.13
	FillingsUpdate:  mu: +0.702456987  nElectrons: 518.000000
	SubspaceRotationAdjust: set factor to 0.403
ElecMinimize: Iter:  16  F: -3084.971759255149664  |grad|_K:  2.107e-07  alpha:  4.076e-01  linmin:  1.042e-07  t[s]:  66542.80
	FillingsUpdate:  mu: +0.702455983  nElectrons: 518.000000
	SubspaceRotationAdjust: set factor to 0.383
ElecMinimize: Iter:  17  F: -3084.971762512988789  |grad|_K:  1.334e-07  alpha:  3.817e-01  linmin: -2.262e-07  t[s]:  67193.14
	FillingsUpdate:  mu: +0.702455204  nElectrons: 518.000000
	SubspaceRotationAdjust: set factor to 0.398
ElecMinimize: Iter:  18  F: -3084.971763575511886  |grad|_K:  8.489e-08  alpha:  3.103e-01  linmin:  2.103e-07  t[s]:  67839.42
	FillingsUpdate:  mu: +0.702459503  nElectrons: 518.000000
	SubspaceRotationAdjust: set factor to 0.322
ElecMinimize: Iter:  19  F: -3084.971763944177383  |grad|_K:  6.890e-08  alpha:  2.660e-01  linmin:  1.146e-08  t[s]:  68498.81
	FillingsUpdate:  mu: +0.702454340  nElectrons: 518.000000
	SubspaceRotationAdjust: set factor to 0.297
ElecMinimize: Iter:  20  F: -3084.971764144998360  |grad|_K:  3.918e-08  alpha:  2.201e-01  linmin: -1.315e-06  t[s]:  69151.77
	FillingsUpdate:  mu: +0.702454437  nElectrons: 518.000000
	SubspaceRotationAdjust: set factor to 0.402
ElecMinimize: Iter:  21  F: -3084.971764263867044  |grad|_K:  2.599e-08  alpha:  4.049e-01  linmin:  1.028e-05  t[s]:  69809.04
	FillingsUpdate:  mu: +0.702455231  nElectrons: 518.000000
	SubspaceRotationAdjust: set factor to 0.445
ElecMinimize: Iter:  22  F: -3084.971764318082478  |grad|_K:  2.033e-08  alpha:  4.203e-01  linmin:  4.994e-07  t[s]:  70462.66
	FillingsUpdate:  mu: +0.702453486  nElectrons: 518.000000
	SubspaceRotationAdjust: set factor to 0.356
ElecMinimize: Iter:  23  F: -3084.971764338341018  |grad|_K:  1.765e-08  alpha:  2.570e-01  linmin:  2.495e-07  t[s]:  71116.62
	FillingsUpdate:  mu: +0.702454006  nElectrons: 518.000000
	SubspaceRotationAdjust: set factor to 0.259
ElecMinimize: Iter:  24  F: -3084.971764350680587  |grad|_K:  1.043e-08  alpha:  2.088e-01  linmin:  4.231e-06  t[s]:  71771.44
	FillingsUpdate:  mu: +0.702454042  nElectrons: 518.000000
	SubspaceRotationAdjust: set factor to 0.293
ElecMinimize: Iter:  25  F: -3084.971764357636403  |grad|_K:  5.577e-09  alpha:  3.311e-01  linmin: -6.907e-06  t[s]:  72435.98
	FillingsUpdate:  mu: +0.702454006  nElectrons: 518.000000
	SubspaceRotationAdjust: set factor to 0.328
ElecMinimize: Iter:  26  F: -3084.971764359976078  |grad|_K:  3.542e-09  alpha:  3.526e-01  linmin: -1.563e-06  t[s]:  73085.15
ElecMinimize: Converged (|Delta F|<1.000000e-08 for 2 iters).
Setting wave functions to eigenvectors of Hamiltonian

# Ionic positions in cartesian coordinates:
ion Pd  -0.243291831927569   0.000066243009850   0.000056144524791 1
ion Pd  -0.023001939570392   3.699072205803019   3.698772850210006 1
ion Pd   3.675509030265115   0.000059105661209   3.919134641928479 1
ion Pd   3.675565990242807   3.918866957997597  -0.000005791083774 1
ion Pd  -0.049338468810671   0.000063709593693   7.351080426021254 1
ion Pd  -0.022999681809808   3.698782886812533  11.003305117117055 1
ion Pd   3.675565305575819   0.000009803850255  10.783255305184559 1
ion Pd   3.675517259797968   3.725111906472435   7.351112724982016 1
ion Pd  -0.049257840685324   7.351094941223326  -0.000054361567736 1
ion Pd  -0.022996805714681  11.003295132520480   3.698754772565440 1
ion Pd   3.675581499302986   7.351090294548279   3.725030120099690 1
ion Pd   3.675587767402699  10.783225408666523   0.000036780640955 1
ion Pd  -0.006973853680917   7.351101533897859   7.351098226100562 1
ion Pd  -0.022999387856832  11.003312996254527  11.003317510728206 1
ion Pd   3.675534576353387   7.351039052709686  10.977074510758525 1
ion Pd   3.675525341124128  10.976993047713485   7.351103052452619 1
ion Pd   7.594313365267575   0.000003234775576   0.000051941434918 1
ion Pd   7.374039690298964   3.698764711851513   3.698765534141736 1
ion Pd  11.026614786112782   0.000064833959544   3.724788785686391 1
ion Pd  11.026565918720785   3.724813141272077   0.000003746767985 1
ion Pd   7.400364357248233   0.000001518808111   7.351066018494768 1
ion Pd   7.374053653553358   3.698772946767737  11.003340814839351 1
ion Pd  11.026598337326986   0.000000522883965  10.977313274197964 1
ion Pd  11.026554459008072   3.682462803145961   7.351039471709983 1
ion Pd   7.400281624304430   7.351033801019661  -0.000017423811241 1
ion Pd   7.374034716620030  11.003329777004730   3.698772422530951 1
ion Pd  11.026488199909043   7.351104193710904   3.682432208452896 1
ion Pd  11.026577689233156  10.977291794385373  -0.000002759041502 1
ion Pd   7.358015584417050   7.351035197618951   7.351047892479607 1
ion Pd   7.374057217608797  11.003299052639393  11.003324110265723 1
ion Pd  11.026536796764004   7.351032736507036  11.019634708439529 1
ion Pd  11.026549942184337  11.019640292019066   7.351027482766590 1
ion O   3.675175701413725  -0.000003785104317   0.000171739981740 1

# Forces in Cartesian coordinates:
force Pd  -0.003092793832095   0.000000307983320  -0.000004931060939 1
force Pd   0.000004842212850   0.000001604865742   0.000018707571778 1
force Pd   0.000003203574538  -0.000000735975531   0.003112518506785 1
force Pd  -0.000000266647000   0.003131417349927  -0.000001208818340 1
force Pd  -0.001864398389186  -0.000001737632608  -0.000000031531092 1
force Pd   0.000005204363818   0.000020085807365  -0.000014864100750 1
force Pd   0.000002611420979   0.000000741630131  -0.003130389569318 1
force Pd   0.000002631623062   0.001905032283382  -0.000003693372100 1
force Pd  -0.001866476450123  -0.000001375585145   0.000003962264157 1
force Pd   0.000005105573535  -0.000017294827166   0.000019139553022 1
force Pd   0.000000122913901  -0.000002246054299   0.001904273970060 1
force Pd   0.000003923062277  -0.003129631706128   0.000002644193035 1
force Pd  -0.002013236030714  -0.000001311633298  -0.000002268527523 1
force Pd   0.000005895642189  -0.000016083054568  -0.000015035997160 1
force Pd   0.000002381337121   0.000001356679648  -0.001901120731214 1
force Pd   0.000002847756969  -0.001901811115148  -0.000001035488186 1
force Pd   0.003070783235948  -0.000000276403893   0.000004280370343 1
force Pd  -0.000005077798273   0.000019412208405   0.000018148578908 1
force Pd  -0.000006527115534  -0.000002715719276   0.001928944028244 1
force Pd  -0.000006040996887   0.001932421290548   0.000002824623757 1
force Pd   0.001867464767152   0.000001118184354  -0.000001004163456 1
force Pd  -0.000001952464216   0.000017451471343  -0.000017582906895 1
force Pd  -0.000008391971280   0.000002100585980  -0.001925817233569 1
force Pd  -0.000002918044712   0.002014678647508   0.000000475428586 1
force Pd   0.001869549931747   0.000000549907353   0.000002134635882 1
force Pd  -0.000004297800592  -0.000016036970732   0.000018087939371 1
force Pd   0.000000199703121  -0.000001780796502   0.002010079857998 1
force Pd  -0.000005346275183  -0.001929163696114   0.000000262086545 1
force Pd   0.002013703653558   0.000000829370471  -0.000001728610263 1
force Pd  -0.000001905694295  -0.000018177283221  -0.000016962889144 1
force Pd  -0.000001831924607   0.000001323389058  -0.002009961765928 1
force Pd  -0.000002162660570  -0.002011074010729  -0.000000970277960 1
force O   0.000025796147824   0.000000577858670   0.000002611572848 1

# Energy components:
   Eewald =    -2577.8358105214429088
       EH =      566.3827116365204120
     Eloc =    -1182.2394538698340511
      Enl =     -456.1896526585956053
      Exc =     -505.9257348304453217
 Exc_core =      110.3059498769045348
       KE =      960.6133387938693886
-------------------------------------
     Etot =    -3084.8886515730232531
       TS =        0.0831127869530349
-------------------------------------
        F =    -3084.9717643599760777

IonicMinimize: Iter:   3  F: -3084.971764359976078  |grad|_K:  1.127e-03  alpha:  1.000e+00  linmin: -8.991e-01  t[s]:  73184.53

#--- Lowdin population analysis ---
# oxidation-state Pd +0.048 -0.004 +0.048 +0.048 +0.002 -0.004 +0.048 +0.002 +0.002 -0.004 +0.002 +0.048 +0.007 -0.004 +0.002 +0.002 +0.048 -0.004 +0.002 +0.002 +0.002 -0.004 +0.002 +0.007 +0.002 -0.004 +0.007 +0.002 +0.007 -0.004 +0.007 +0.007
# oxidation-state O -0.102


-------- Electronic minimization -----------
	FillingsUpdate:  mu: +0.710662672  nElectrons: 518.000000
ElecMinimize: Iter:   0  F: -3084.639730719984527  |grad|_K:  7.831e-05  alpha:  1.000e+00
	FillingsUpdate:  mu: +0.719497896  nElectrons: 518.000000
	SubspaceRotationAdjust: set factor to 0.202
ElecMinimize: Iter:   1  F: -3084.901352823373600  |grad|_K:  3.966e-05  alpha:  2.309e-01  linmin:  6.641e-03  t[s]:  74277.11
	FillingsUpdate:  mu: +0.702512369  nElectrons: 518.000000
	SubspaceRotationAdjust: set factor to 0.239
ElecMinimize: Iter:   2  F: -3084.949905687796218  |grad|_K:  1.041e-05  alpha:  1.645e-01  linmin:  2.611e-04  t[s]:  74937.76
	FillingsUpdate:  mu: +0.702342643  nElectrons: 518.000000
	SubspaceRotationAdjust: set factor to 0.258
ElecMinimize: Iter:   3  F: -3084.956933112827755  |grad|_K:  6.744e-06  alpha:  3.378e-01  linmin:  8.961e-06  t[s]:  75598.88
	FillingsUpdate:  mu: +0.702945011  nElectrons: 518.000000
	SubspaceRotationAdjust: set factor to 0.277
ElecMinimize: Iter:   4  F: -3084.962033092471302  |grad|_K:  7.664e-06  alpha:  5.840e-01  linmin:  4.342e-05  t[s]:  76258.73
	FillingsUpdate:  mu: +0.702299552  nElectrons: 518.000000
	SubspaceRotationAdjust: set factor to 0.25
ElecMinimize: Iter:   5  F: -3084.966283981902052  |grad|_K:  6.440e-06  alpha:  3.781e-01  linmin:  6.016e-07  t[s]:  76911.48
	FillingsUpdate:  mu: +0.702484770  nElectrons: 518.000000
	SubspaceRotationAdjust: set factor to 0.25
ElecMinimize: Iter:   6  F: -3084.969731167643658  |grad|_K:  5.151e-06  alpha:  4.327e-01  linmin:  4.055e-05  t[s]:  77574.55
	FillingsUpdate:  mu: +0.702444021  nElectrons: 518.000000
	SubspaceRotationAdjust: set factor to 0.269
ElecMinimize: Iter:   7  F: -3084.971549484703701  |grad|_K:  2.671e-06  alpha:  3.580e-01  linmin: -9.737e-07  t[s]:  78230.57
	FillingsUpdate:  mu: +0.702366419  nElectrons: 518.000000
	SubspaceRotationAdjust: set factor to 0.253
ElecMinimize: Iter:   8  F: -3084.972075879832573  |grad|_K:  1.583e-06  alpha:  3.837e-01  linmin: -7.852e-06  t[s]:  78887.42
	FillingsUpdate:  mu: +0.702465281  nElectrons: 518.000000
	SubspaceRotationAdjust: set factor to 0.173
ElecMinimize: Iter:   9  F: -3084.972205304124600  |grad|_K:  1.014e-06  alpha:  2.685e-01  linmin: -1.313e-06  t[s]:  79546.45
	FillingsUpdate:  mu: +0.702416389  nElectrons: 518.000000
	SubspaceRotationAdjust: set factor to 0.208
ElecMinimize: Iter:  10  F: -3084.972263782088703  |grad|_K:  4.623e-07  alpha:  2.956e-01  linmin:  1.781e-06  t[s]:  80200.35
	FillingsUpdate:  mu: +0.702413572  nElectrons: 518.000000
	SubspaceRotationAdjust: set factor to 0.268
ElecMinimize: Iter:  11  F: -3084.972281862861109  |grad|_K:  3.019e-07  alpha:  4.399e-01  linmin:  6.850e-06  t[s]:  80859.81
	FillingsUpdate:  mu: +0.702435582  nElectrons: 518.000000
	SubspaceRotationAdjust: set factor to 0.259
ElecMinimize: Iter:  12  F: -3084.972288715253853  |grad|_K:  2.747e-07  alpha:  3.909e-01  linmin:  2.260e-06  t[s]:  81527.23
	FillingsUpdate:  mu: +0.702421970  nElectrons: 518.000000
	SubspaceRotationAdjust: set factor to 0.289
ElecMinimize: Iter:  13  F: -3084.972294477272044  |grad|_K:  2.180e-07  alpha:  3.971e-01  linmin:  1.281e-06  t[s]:  82180.17
	FillingsUpdate:  mu: +0.702432674  nElectrons: 518.000000
	SubspaceRotationAdjust: set factor to 0.316
ElecMinimize: Iter:  14  F: -3084.972299221045887  |grad|_K:  1.794e-07  alpha:  5.189e-01  linmin:  1.222e-07  t[s]:  82841.53
	FillingsUpdate:  mu: +0.702432623  nElectrons: 518.000000
	SubspaceRotationAdjust: set factor to 0.348
ElecMinimize: Iter:  15  F: -3084.972301750472980  |grad|_K:  1.227e-07  alpha:  4.086e-01  linmin: -6.295e-08  t[s]:  83496.17
	FillingsUpdate:  mu: +0.702430773  nElectrons: 518.000000
	SubspaceRotationAdjust: set factor to 0.377
ElecMinimize: Iter:  16  F: -3084.972302891059371  |grad|_K:  7.329e-08  alpha:  3.938e-01  linmin: -2.283e-06  t[s]:  84152.75
	FillingsUpdate:  mu: +0.702435459  nElectrons: 518.000000
	SubspaceRotationAdjust: set factor to 0.296
ElecMinimize: Iter:  17  F: -3084.972303193913376  |grad|_K:  6.239e-08  alpha:  2.930e-01  linmin: -2.906e-06  t[s]:  84811.13
	FillingsUpdate:  mu: +0.702431213  nElectrons: 518.000000
	SubspaceRotationAdjust: set factor to 0.272
ElecMinimize: Iter:  18  F: -3084.972303359768375  |grad|_K:  3.432e-08  alpha:  2.215e-01  linmin: -1.710e-06  t[s]:  85470.11
	FillingsUpdate:  mu: +0.702431102  nElectrons: 518.000000
	SubspaceRotationAdjust: set factor to 0.367
ElecMinimize: Iter:  19  F: -3084.972303454225312  |grad|_K:  2.385e-08  alpha:  4.183e-01  linmin:  7.676e-06  t[s]:  86132.58
	FillingsUpdate:  mu: +0.702431502  nElectrons: 518.000000
	SubspaceRotationAdjust: set factor to 0.456
ElecMinimize: Iter:  20  F: -3084.972303500244379  |grad|_K:  1.915e-08  alpha:  4.257e-01  linmin:  7.945e-06  t[s]:  86794.31
	FillingsUpdate:  mu: +0.702429872  nElectrons: 518.000000
	SubspaceRotationAdjust: set factor to 0.378
ElecMinimize: Iter:  21  F: -3084.972303524335530  |grad|_K:  1.871e-08  alpha:  3.438e-01  linmin:  6.138e-06  t[s]:  87471.19
	FillingsUpdate:  mu: +0.702430577  nElectrons: 518.000000
	SubspaceRotationAdjust: set factor to 0.261
ElecMinimize: Iter:  22  F: -3084.972303536088475  |grad|_K:  1.112e-08  alpha:  1.773e-01  linmin: -7.120e-07  t[s]:  88130.63
	FillingsUpdate:  mu: +0.702430207  nElectrons: 518.000000
	SubspaceRotationAdjust: set factor to 0.292
ElecMinimize: Iter:  23  F: -3084.972303544930583  |grad|_K:  6.649e-09  alpha:  3.818e-01  linmin:  2.371e-05  t[s]:  88801.54
	FillingsUpdate:  mu: +0.702430186  nElectrons: 518.000000
	SubspaceRotationAdjust: set factor to 0.311
ElecMinimize: Iter:  24  F: -3084.972303547569027  |grad|_K:  4.237e-09  alpha:  3.431e-01  linmin:  1.460e-05  t[s]:  89456.04
ElecMinimize: Converged (|Delta F|<1.000000e-08 for 2 iters).
Setting wave functions to eigenvectors of Hamiltonian

# Ionic positions in cartesian coordinates:
ion Pd  -0.264137662489118   0.000069108660279   0.000018811001688 1
ion Pd  -0.023286642046055   3.699397588144939   3.699231748482040 1
ion Pd   3.675525219298507   0.000054286997922   3.940160142826460 1
ion Pd   3.675558292878178   3.940018253084232  -0.000017652656256 1
ion Pd  -0.064432061994592   0.000052578824456   7.351082132170947 1
ion Pd  -0.023280949140938   3.699250740350284  11.002874094702177 1
ion Pd   3.675577031352675   0.000015552260341  10.762118375919522 1
ion Pd   3.675534809226310   3.740496223767775   7.351088538940697 1
ion Pd  -0.064364511619356   7.351086018556981  -0.000027163593202 1
ion Pd  -0.023278965362499  11.002846281966562   3.699215283246336 1
ion Pd   3.675582083102973   7.351075354545648   3.740407641823573 1
ion Pd   3.675609577062509  10.762088353372098   0.000052535700921 1
ion Pd  -0.021200310748599   7.351093491528131   7.351082781168759 1
ion Pd  -0.023275903462022  11.002874480215278  11.002885864580268 1
ion Pd   3.675551086022216   7.351048588609355  10.961720516620405 1
ion Pd   3.675544641806480  10.961632816558010   7.351096161792954 1
ion Pd   7.615048618362080   0.000001518631564   0.000079755677799 1
ion Pd   7.374322743814543   3.699228721688452   3.699220918294614 1
ion Pd  11.026567276442337   0.000046983616120   3.740329616501999 1
ion Pd  11.026522216124453   3.740379391309235   0.000023306361915 1
ion Pd   7.415479760317259   0.000009352885817   7.351058098147128 1
ion Pd   7.374358444642680   3.699223399795101  11.002891554904474 1
ion Pd  11.026539935486928   0.000015126618826  10.961795672273350 1
ion Pd  11.026533736365019   3.696697693549123   7.351042764239393 1
ion Pd   7.415410080374086   7.351037714926162  -0.000003339218270 1
ion Pd   7.374323019958762  11.002890797279854   3.699227812203711 1
ion Pd  11.026488531156279   7.351093022073528   3.696633585896474 1
ion Pd  11.026539233526886  10.961749875422223  -0.000001058845264 1
ion Pd   7.372244224246026   7.351040959058672   7.351036311545419 1
ion Pd   7.374362466210151  11.002843972423015  11.002878345450199 1
ion Pd  11.026522871274359   7.351041813184684  11.005433805579365 1
ion Pd  11.026534265765914  11.005432073379586   7.351020332791925 1
ion O   3.675325842045604  -0.000000133284216   0.000174705468511 1

# Forces in Cartesian coordinates:
force Pd  -0.000221825523876  -0.000000412884943  -0.000003469878230 1
force Pd   0.000294409039755  -0.000300601495299  -0.000294482683388 1
force Pd  -0.000003066500955  -0.000001166121717   0.000196657039540 1
force Pd  -0.000004844550273   0.000198558951720  -0.000002170142265 1
force Pd  -0.000438162313911  -0.000001397297594   0.000000183311963 1
force Pd   0.000295127947193  -0.000293178480528   0.000294249818342 1
force Pd  -0.000002498800485   0.000001121858676  -0.000200694525661 1
force Pd  -0.000001861653280   0.000448958099787  -0.000000450984077 1
force Pd  -0.000439642403900   0.000000125381339   0.000003391433083 1
force Pd   0.000295034121570   0.000295642547437  -0.000295094983122 1
force Pd  -0.000005218077512  -0.000001083602136   0.000450645987459 1
force Pd  -0.000003197018403  -0.000198500516447   0.000001182513440 1
force Pd  -0.000597043449479  -0.000000294480159  -0.000000372858721 1
force Pd   0.000295176046577   0.000295162730156   0.000295301388356 1
force Pd  -0.000001461747995   0.000001170999710  -0.000450626077897 1
force Pd  -0.000002328389451  -0.000448894391866  -0.000000757047554 1
force Pd   0.000223250574203   0.000000366031051   0.000000030264235 1
force Pd  -0.000296056565131  -0.000293105902795  -0.000293610644034 1
force Pd   0.000000898272760  -0.000001161471967   0.000436628772064 1
force Pd   0.000001647316183   0.000437146382014   0.000001123963077 1
force Pd   0.000437611875214   0.000001395199148   0.000000988973573 1
force Pd  -0.000295989109036  -0.000293193342676   0.000294423338642 1
force Pd   0.000000130075941   0.000001141699849  -0.000436121341429 1
force Pd   0.000003977601319   0.000619265520204   0.000001043164286 1
force Pd   0.000439540822106   0.000000055564316   0.000000607784945 1
force Pd  -0.000296074147261   0.000292943747246  -0.000292612223314 1
force Pd   0.000005882582114  -0.000001800769501   0.000617932053770 1
force Pd   0.000001799199331  -0.000437068109027   0.000000403215941 1
force Pd   0.000596875526768   0.000000509798240   0.000000311309061 1
force Pd  -0.000295521842613   0.000293740756856   0.000294000277329 1
force Pd   0.000004771219240   0.000001975632074  -0.000616999080403 1
force Pd   0.000003856668510  -0.000618861049902   0.000001681623395 1
force O   0.000004451185703   0.000000872110804  -0.000003340695033 1

# Energy components:
   Eewald =    -2577.8704699820591486
       EH =      566.3597463000112384
     Eloc =    -1182.1738757344594433
      Enl =     -456.1849870323603682
      Exc =     -505.9219763539500150
 Exc_core =      110.3059513441785953
       KE =      960.5966011381940461
-------------------------------------
     Etot =    -3084.8890103204448678
       TS =        0.0832932271240900
-------------------------------------
        F =    -3084.9723035475690267

IonicMinimize: Iter:   4  F: -3084.972303547569027  |grad|_K:  2.645e-04  alpha:  1.000e+00  linmin: -7.281e-01  t[s]:  89553.11

#--- Lowdin population analysis ---
# oxidation-state Pd +0.049 -0.004 +0.049 +0.049 +0.002 -0.004 +0.049 +0.002 +0.002 -0.004 +0.002 +0.049 +0.007 -0.004 +0.002 +0.002 +0.049 -0.004 +0.002 +0.002 +0.002 -0.004 +0.002 +0.007 +0.002 -0.004 +0.007 +0.002 +0.007 -0.004 +0.007 +0.007
# oxidation-state O -0.107


-------- Electronic minimization -----------
	FillingsUpdate:  mu: +0.702425697  nElectrons: 518.000000
ElecMinimize: Iter:   0  F: -3084.972285218619618  |grad|_K:  5.738e-07  alpha:  1.000e+00
	FillingsUpdate:  mu: +0.702425829  nElectrons: 518.000000
	SubspaceRotationAdjust: set factor to 0.352
ElecMinimize: Iter:   1  F: -3084.972309494377896  |grad|_K:  3.274e-07  alpha:  3.834e-01  linmin: -1.880e-06  t[s]:  90702.35
	FillingsUpdate:  mu: +0.702410661  nElectrons: 518.000000
	SubspaceRotationAdjust: set factor to 0.37
ElecMinimize: Iter:   2  F: -3084.972320720263724  |grad|_K:  3.476e-07  alpha:  5.446e-01  linmin:  8.633e-06  t[s]:  91369.50
	FillingsUpdate:  mu: +0.702436309  nElectrons: 518.000000
	SubspaceRotationAdjust: set factor to 0.313
ElecMinimize: Iter:   3  F: -3084.972328906116218  |grad|_K:  3.498e-07  alpha:  3.524e-01  linmin:  8.085e-08  t[s]:  92032.40
	FillingsUpdate:  mu: +0.702414007  nElectrons: 518.000000
	SubspaceRotationAdjust: set factor to 0.236
ElecMinimize: Iter:   4  F: -3084.972335289336115  |grad|_K:  2.219e-07  alpha:  2.712e-01  linmin:  3.182e-06  t[s]:  92689.26
	FillingsUpdate:  mu: +0.702419577  nElectrons: 518.000000
	SubspaceRotationAdjust: set factor to 0.252
ElecMinimize: Iter:   5  F: -3084.972338740245050  |grad|_K:  1.141e-07  alpha:  3.645e-01  linmin: -1.903e-06  t[s]:  93351.09
	FillingsUpdate:  mu: +0.702421709  nElectrons: 518.000000
	SubspaceRotationAdjust: set factor to 0.261
ElecMinimize: Iter:   6  F: -3084.972339687778003  |grad|_K:  5.359e-08  alpha:  3.787e-01  linmin: -5.505e-06  t[s]:  94020.33
	FillingsUpdate:  mu: +0.702418401  nElectrons: 518.000000
	SubspaceRotationAdjust: set factor to 0.198
ElecMinimize: Iter:   7  F: -3084.972339867819755  |grad|_K:  3.742e-08  alpha:  3.252e-01  linmin: -1.285e-07  t[s]:  94689.12
	FillingsUpdate:  mu: +0.702420867  nElectrons: 518.000000
	SubspaceRotationAdjust: set factor to 0.169
ElecMinimize: Iter:   8  F: -3084.972339940511574  |grad|_K:  1.876e-08  alpha:  2.709e-01  linmin: -4.663e-06  t[s]:  95352.94
	FillingsUpdate:  mu: +0.702420614  nElectrons: 518.000000
	SubspaceRotationAdjust: set factor to 0.251
ElecMinimize: Iter:   9  F: -3084.972339969917357  |grad|_K:  1.184e-08  alpha:  4.313e-01  linmin: -1.934e-05  t[s]:  96019.42
	FillingsUpdate:  mu: +0.702420108  nElectrons: 518.000000
	SubspaceRotationAdjust: set factor to 0.256
ElecMinimize: Iter:  10  F: -3084.972339983863549  |grad|_K:  1.059e-08  alpha:  5.171e-01  linmin:  1.126e-05  t[s]:  96680.21
	FillingsUpdate:  mu: +0.702420952  nElectrons: 518.000000
	SubspaceRotationAdjust: set factor to 0.246
ElecMinimize: Iter:  11  F: -3084.972339992919842  |grad|_K:  1.006e-08  alpha:  4.144e-01  linmin:  8.696e-07  t[s]:  97341.75
	FillingsUpdate:  mu: +0.702420469  nElectrons: 518.000000
	SubspaceRotationAdjust: set factor to 0.23
ElecMinimize: Iter:  12  F: -3084.972340001236716  |grad|_K:  7.181e-09  alpha:  4.356e-01  linmin:  9.130e-06  t[s]:  98001.14
ElecMinimize: Converged (|Delta F|<1.000000e-08 for 2 iters).
Setting wave functions to eigenvectors of Hamiltonian

# Ionic positions in cartesian coordinates:
ion Pd  -0.267749384534487   0.000065671580776  -0.000013251583470 1
ion Pd  -0.020565917413730   3.696606286702008   3.696502062169725 1
ion Pd   3.675492865365876   0.000043668968257   3.943484060993964 1
ion Pd   3.675510212159449   3.943361265944050  -0.000039093866251 1
ion Pd  -0.068533431266689   0.000040123661976   7.351084599898241 1
ion Pd  -0.020553096173336   3.696533915895716  11.005599683351358 1
ion Pd   3.675551365016898   0.000026833421478  10.758753597204322 1
ion Pd   3.675514835533765   3.744691164765280   7.351086601215943 1
ion Pd  -0.068479043504878   7.351088802932845   0.000004752752868 1
ion Pd  -0.020551975105116  11.005587206809642   3.696478989860499 1
ion Pd   3.675530015179307   7.351066206888601   3.744618970300124 1
ion Pd   3.675576461146928  10.758745667372908   0.000063834081599 1
ion Pd  -0.026377805363425   7.351092043740569   7.351080805567464 1
ion Pd  -0.020547891671052  11.005610162157287  11.005622324680640 1
ion Pd   3.675535485134304   7.351060045083051  10.957508283938077 1
ion Pd   3.675519941335171  10.957437736895169   7.351089832130487 1
ion Pd   7.618672157814760   0.000005585882751   0.000078685378363 1
ion Pd   7.371585672670595   3.696512679236940   3.696500220825980 1
ion Pd  11.026580420651618   0.000037407040899   3.744384028562105 1
ion Pd  11.026542150826026   3.744437872756092   0.000033416940648 1
ion Pd   7.419574201640367   0.000023148379250   7.351068955718513 1
ion Pd   7.371620757305673   3.696507519825588  11.005620637500289 1
ion Pd  11.026545985010172   0.000025862359734  10.957745279745765 1
ion Pd  11.026575632126445   3.702099709309191   7.351053194409996 1
ion Pd   7.419522203953306   7.351038152616115   0.000001595357352 1
ion Pd   7.371585341978790  11.005604212524117   3.696517335239264 1
ion Pd  11.026547510195439   7.351076565009583   3.702023758621872 1
ion Pd  11.026560542719112  10.957691385159931   0.000002875634864 1
ion Pd   7.377420158288944   7.351045904013453   7.351040463250263 1
ion Pd   7.371629535546248  11.005566113012204  11.005602658122411 1
ion Pd  11.026572091255117   7.351061346857841  11.000053029251431 1
ion Pd  11.026574523539272  11.000033168954122   7.351037765766972 1
ion O   3.675367478639172   0.000008564242607   0.000142046978355 1

# Forces in Cartesian coordinates:
force Pd   0.000003794899682  -0.000000370521943  -0.000002582552561 1
force Pd   0.000086628201399  -0.000092919304951  -0.000089631579648 1
force Pd   0.000002833437432  -0.000000277634192   0.000015862246969 1
force Pd   0.000000808812623   0.000018239836938  -0.000000540682149 1
force Pd  -0.000030647145574  -0.000000747848218  -0.000000029418125 1
force Pd   0.000085597107947  -0.000088668952349   0.000089036194910 1
force Pd   0.000001632112519   0.000000038933102  -0.000017924138808 1
force Pd   0.000002142459106   0.000013117625158  -0.000001340066210 1
force Pd  -0.000029245514913  -0.000001015831752   0.000000745708408 1
force Pd   0.000085740912992   0.000091247975335  -0.000089258021763 1
force Pd   0.000001401316301  -0.000001737559518   0.000012645378525 1
force Pd   0.000002141952260  -0.000017249012589   0.000000398623672 1
force Pd   0.000036396164367  -0.000000963319498  -0.000000805293907 1
force Pd   0.000087132970645   0.000089427572865   0.000089850945519 1
force Pd   0.000001811555072   0.000000761372180  -0.000012465312207 1
force Pd   0.000002168134315  -0.000012699054721  -0.000000106338132 1
force Pd  -0.000000911439336   0.000000102710366   0.000000958248836 1
force Pd  -0.000086201443863  -0.000088321982645  -0.000088670585813 1
force Pd  -0.000005394749891  -0.000001128648724   0.000047824341378 1
force Pd  -0.000003462189578   0.000047072626821  -0.000000468461557 1
force Pd   0.000031214186185   0.000000606031734  -0.000000389083258 1
force Pd  -0.000085270096329  -0.000088102653778   0.000089687770127 1
force Pd  -0.000003460446574   0.000001031977068  -0.000047515468797 1
force Pd  -0.000003510355309  -0.000034868770338   0.000000740430313 1
force Pd   0.000029909893898   0.000000022670887   0.000000914777284 1
force Pd  -0.000084677610335   0.000088520214605  -0.000087856906550 1
force Pd  -0.000002569193908  -0.000000718033608  -0.000033623829777 1
force Pd  -0.000004381055860  -0.000046600185703   0.000001000413128 1
force Pd  -0.000034356527166   0.000000021771134   0.000000022710441 1
force Pd  -0.000086163375606   0.000090171659308   0.000090085895164 1
force Pd  -0.000003058613030  -0.000000202658512   0.000035913556117 1
force Pd  -0.000003408713532   0.000035223444803  -0.000000167498465 1
force O   0.000008064105203   0.000000467349683  -0.000002596467053 1

# Energy components:
   Eewald =    -2577.8917550109290460
       EH =      566.3397588069166204
     Eloc =    -1182.1310254498580434
      Enl =     -456.1840861522275077
      Exc =     -505.9210300382380865
 Exc_core =      110.3059513475506606
       KE =      960.5931446287891049
-------------------------------------
     Etot =    -3084.8890418679966388
       TS =        0.0832981332399936
-------------------------------------
        F =    -3084.9723400012367165

IonicMinimize: Iter:   5  F: -3084.972340001236716  |grad|_K:  4.597e-05  alpha:  1.000e+00  linmin: -5.565e-01  t[s]:  98096.61
IonicMinimize: Converged (|grad|_K<1.000000e-04).

#--- Lowdin population analysis ---
# oxidation-state Pd +0.049 -0.004 +0.049 +0.049 +0.002 -0.004 +0.049 +0.002 +0.002 -0.004 +0.002 +0.049 +0.007 -0.004 +0.002 +0.002 +0.049 -0.004 +0.002 +0.002 +0.002 -0.004 +0.002 +0.007 +0.002 -0.004 +0.007 +0.002 +0.007 -0.004 +0.007 +0.007
# oxidation-state O -0.108


Dumping 'Pd32O_tet.Ecomponents' ... done
End date and time: Mon Jan 29 14:57:35 2024  (Duration: 1-3:16:26.50)
Done!
