--------------------------------------------------------------------------
[[37925,1],0]: A high-performance Open MPI point-to-point messaging module
was unable to find any relevant network interfaces:

Module: OpenFabrics (openib)
  Host: node3218

Another transport will be used instead, although this may result in
lower performance.
--------------------------------------------------------------------------

*************** JDFTx 1.7.0  ***************

Start date and time: Sun Jan 28 11:41:22 2024
Executable jdftx with command-line: -i /home/cam559/Valla_project/Pd/Pd32O_tet.in
Running on hosts (process indices):  node3218.physics.cornell.edu (0-9)
Divided in process groups (process indices):  0 (0)  1 (1)  2 (2)  3 (3)  4 (4)  5 (5)  6 (6)  7 (7)  8 (8)  9 (9)
Resource initialization completed at t[s]:      0.00
Run totals: 10 processes, 40 threads, 0 GPUs


Input parsed successfully to the following command list (including defaults):

basis kpoint-dependent
coords-type Cartesian
core-overlap-check vector
coulomb-interaction Periodic
davidson-band-ratio 1.1
dump End Ecomponents
dump-name Pd32O_tet.$VAR
elec-cutoff 20 100
elec-eigen-algo Davidson
elec-ex-corr gga-PBE
elec-smearing Fermi 0.004
electronic-minimize  \
	dirUpdateScheme      FletcherReeves \
	linminMethod         DirUpdateRecommended \
	nIterations          100 \
	history              15 \
	knormThreshold       0 \
	energyDiffThreshold  1e-08 \
	nEnergyDiff          2 \
	alphaTstart          1 \
	alphaTmin            1e-10 \
	updateTestStepSize   yes \
	alphaTreduceFactor   0.1 \
	alphaTincreaseFactor 3 \
	nAlphaAdjustMax      3 \
	wolfeEnergy          0.0001 \
	wolfeGradient        0.9 \
	fdTest               no
exchange-regularization WignerSeitzTruncated
fluid None
fluid-ex-corr lda-TF lda-PZ
fluid-gummel-loop 10 1.000000e-05
fluid-minimize  \
	dirUpdateScheme      PolakRibiere \
	linminMethod         DirUpdateRecommended \
	nIterations          100 \
	history              15 \
	knormThreshold       0 \
	energyDiffThreshold  0 \
	nEnergyDiff          2 \
	alphaTstart          1 \
	alphaTmin            1e-10 \
	updateTestStepSize   yes \
	alphaTreduceFactor   0.1 \
	alphaTincreaseFactor 3 \
	nAlphaAdjustMax      3 \
	wolfeEnergy          0.0001 \
	wolfeGradient        0.9 \
	fdTest               no
fluid-solvent H2O 55.338 ScalarEOS \
	epsBulk 78.4 \
	pMol 0.92466 \
	epsInf 1.77 \
	Pvap 1.06736e-10 \
	sigmaBulk 4.62e-05 \
	Rvdw 2.61727 \
	Res 1.42 \
	tauNuc 343133 \
	poleEl 15 7 1
forces-output-coords Positions
initial-state Pd32O_tet.$VAR
ion Pd   0.001000000000000   0.000000000000000   0.000000000000000 1
ion Pd   0.000000000000000   3.676517000000000   3.675517000000001 1
ion Pd   3.675517000000001   0.000000000000000   3.676517000000000 1
ion Pd   3.675517000000001   3.675517000000001   0.000000000000000 1
ion Pd   0.000000000000000   0.000000000000000   7.351035000000001 1
ion Pd   0.000000000000000   3.675517000000001  11.026552000000002 1
ion Pd   3.675517000000001   0.000000000000000  11.026552000000002 1
ion Pd   3.675517000000001   3.675517000000001   7.351035000000001 1
ion Pd   0.000000000000000   7.351035000000001   0.000000000000000 1
ion Pd   0.000000000000000  11.026552000000002   3.675517000000001 1
ion Pd   3.675517000000001   7.351035000000001   3.675517000000001 1
ion Pd   3.675517000000001  11.026552000000002   0.000000000000000 1
ion Pd   0.000000000000000   7.351035000000001   7.351035000000001 1
ion Pd   0.000000000000000  11.026552000000002  11.026552000000002 1
ion Pd   3.675517000000001   7.351035000000001  11.026552000000002 1
ion Pd   3.675517000000001  11.026552000000002   7.351035000000001 1
ion Pd   7.351035000000001   0.000000000000000   0.000000000000000 1
ion Pd   7.351035000000001   3.675517000000001   3.675517000000001 1
ion Pd  11.026552000000002   0.000000000000000   3.675517000000001 1
ion Pd  11.026552000000002   3.675517000000001   0.000000000000000 1
ion Pd   7.351035000000001   0.000000000000000   7.351035000000001 1
ion Pd   7.351035000000001   3.675517000000001  11.026552000000002 1
ion Pd  11.026552000000002   0.000000000000000  11.026552000000002 1
ion Pd  11.026552000000002   3.675517000000001   7.351035000000001 1
ion Pd   7.351035000000001   7.351035000000001   0.000000000000000 1
ion Pd   7.351035000000001  11.026552000000002   3.675517000000001 1
ion Pd  11.026552000000002   7.351035000000001   3.675517000000001 1
ion Pd  11.026552000000002  11.026552000000002   0.000000000000000 1
ion Pd   7.351035000000001   7.351035000000001   7.351035000000001 1
ion Pd   7.351035000000001  11.026552000000002  11.026552000000002 1
ion Pd  11.026552000000002   7.351035000000001  11.026552000000002 1
ion Pd  11.026552000000002  11.026552000000002   7.351035000000001 1
ion O   1.837758500000000   1.837758500000000   1.837758500000000 1
ion-species GBRV/$ID_pbe.uspp
ion-width 0
ionic-minimize  \
	dirUpdateScheme      L-BFGS \
	linminMethod         DirUpdateRecommended \
	nIterations          30 \
	history              15 \
	knormThreshold       0.0001 \
	energyDiffThreshold  1e-06 \
	nEnergyDiff          2 \
	alphaTstart          1 \
	alphaTmin            1e-10 \
	updateTestStepSize   yes \
	alphaTreduceFactor   0.1 \
	alphaTincreaseFactor 3 \
	nAlphaAdjustMax      3 \
	wolfeEnergy          0.0001 \
	wolfeGradient        0.9 \
	fdTest               no
kpoint   0.000000000000   0.000000000000   0.000000000000  1.00000000000000
kpoint-folding 4 4 4 
latt-move-scale 1 1 1
latt-scale 1 1 1 
lattice  \
	  14.702069000000000    0.000000000000000    0.000000000000000  \
	   0.000000000000000   14.702069000000000    0.000000000000000  \
	   0.000000000000000    0.000000000000000   14.702069000000000 
lattice-minimize  \
	dirUpdateScheme      L-BFGS \
	linminMethod         DirUpdateRecommended \
	nIterations          0 \
	history              15 \
	knormThreshold       0 \
	energyDiffThreshold  1e-06 \
	nEnergyDiff          2 \
	alphaTstart          1 \
	alphaTmin            1e-10 \
	updateTestStepSize   yes \
	alphaTreduceFactor   0.1 \
	alphaTincreaseFactor 3 \
	nAlphaAdjustMax      3 \
	wolfeEnergy          0.0001 \
	wolfeGradient        0.9 \
	fdTest               no
lcao-params -1 1e-06 0.004
pcm-variant GLSSA13
spintype no-spin
subspace-rotation-factor 1 yes
symmetries automatic
symmetry-threshold 0.0001



---------- Setting up symmetries ----------

Found 48 point-group symmetries of the bravais lattice
Found 1 space-group symmetries with basis
Applied RMS atom displacement 0 bohrs to make symmetries exact.

---------- Initializing the Grid ----------
R = 
[      14.7021            0            0  ]
[            0      14.7021            0  ]
[            0            0      14.7021  ]
unit cell volume = 3177.86
G =
[   0.427367          0          0  ]
[          0   0.427367          0  ]
[          0          0   0.427367  ]
Minimum fftbox size, Smin = [  68  68  68  ]
Chosen fftbox size, S = [  70  70  70  ]

---------- Initializing tighter grid for wavefunction operations ----------
R = 
[      14.7021            0            0  ]
[            0      14.7021            0  ]
[            0            0      14.7021  ]
unit cell volume = 3177.86
G =
[   0.427367          0          0  ]
[          0   0.427367          0  ]
[          0          0   0.427367  ]
Minimum fftbox size, Smin = [  60  60  60  ]
Chosen fftbox size, S = [  60  60  60  ]

---------- Exchange Correlation functional ----------
Initalized PBE GGA exchange.
Initalized PBE GGA correlation.

---------- Setting up pseudopotentials ----------
Width of ionic core gaussian charges (only for fluid interactions / plotting) set to 0

Reading pseudopotential file '/home/cam559/JDFTx/build/pseudopotentials/GBRV/pd_pbe.uspp':
  Title: Pd.  Created by USPP 7.3.6 on 31-3-15
  Reference state energy: -99.095797.  16 valence electrons in orbitals:
    |410>  occupation: 6  eigenvalue: -2.075344
    |420>  occupation: 9.5  eigenvalue: -0.331049
    |500>  occupation: 0  eigenvalue: -0.255738
    |510>  occupation: 0  eigenvalue: -0.109005
  lMax: 2  lLocal: 3  QijEcut: 6
  6 projectors sampled on a log grid with 717 points:
    l: 0  eig: -0.255738  rCut: 2.5
    l: 0  eig: 1.000000  rCut: 2.5
    l: 1  eig: -2.075343  rCut: 1.53
    l: 1  eig: -0.109006  rCut: 1.53
    l: 2  eig: -0.331048  rCut: 1.63
    l: 2  eig: 1.500000  rCut: 1.63
  Partial core density with radius 1
  Transforming core density to a uniform radial grid of dG=0.02 with 1301 points.
  Transforming local potential to a uniform radial grid of dG=0.02 with 1301 points.
  Transforming nonlocal projectors to a uniform radial grid of dG=0.02 with 432 points.
  Transforming density augmentations to a uniform radial grid of dG=0.02 with 1301 points.
  Transforming atomic orbitals to a uniform radial grid of dG=0.02 with 432 points.
  Core radius for overlap checks: 2.50 bohrs.

Reading pseudopotential file '/home/cam559/JDFTx/build/pseudopotentials/GBRV/o_pbe.uspp':
  Title: O.  Created by USPP 7.3.6 on 3-2-2014
  Reference state energy: -15.894388.  6 valence electrons in orbitals:
    |200>  occupation: 2  eigenvalue: -0.878823
    |210>  occupation: 4  eigenvalue: -0.332131
  lMax: 2  lLocal: 2  QijEcut: 6
  5 projectors sampled on a log grid with 511 points:
    l: 0  eig: -0.878823  rCut: 1.25
    l: 0  eig: 0.000000  rCut: 1.25
    l: 1  eig: -0.332132  rCut: 1.25
    l: 1  eig: 0.000000  rCut: 1.25
    l: 2  eig: 1.000000  rCut: 1.25
  Partial core density with radius 0.7
  Transforming core density to a uniform radial grid of dG=0.02 with 1301 points.
  Transforming local potential to a uniform radial grid of dG=0.02 with 1301 points.
  Transforming nonlocal projectors to a uniform radial grid of dG=0.02 with 432 points.
  Transforming density augmentations to a uniform radial grid of dG=0.02 with 1301 points.
  Transforming atomic orbitals to a uniform radial grid of dG=0.02 with 432 points.
  Core radius for overlap checks: 1.25 bohrs.

Initialized 2 species with 33 total atoms.

Folded 1 k-points by 4x4x4 to 64 k-points.

---------- Setting up k-points, bands, fillings ----------
Adding inversion symmetry to k-mesh for non-inversion-symmetric unit cell.
Reduced to 36 k-points under symmetry. 
Computing the number of bands and number of electrons
Calculating initial fillings.
nElectrons: 518.000000   nBands: 388   nStates: 36

----- Setting up reduced wavefunction bases (one per k-point) -----
average nbasis = 13570.359 , ideal nbasis = 13576.079

---------- Setting up ewald sum ----------
Optimum gaussian width for ewald sums = 3.274936 bohr.
Real space sum over 729 unit cells with max indices [  4  4  4  ]
Reciprocal space sum over 4913 terms with max indices [  8  8  8  ]

---------- Allocating electronic variables ----------
Initializing wave functions:  linear combination of atomic orbitals
Pd pseudo-atom occupations:   s ( 0 )  p ( 6 0 )  d ( 10 )
O pseudo-atom occupations:   s ( 2 )  p ( 4 )
	FillingsUpdate:  mu: +0.625820539  nElectrons: 518.000000
LCAOMinimize: Iter:   0  F: -3081.4461729064132669  |grad|_K:  1.688e-03  alpha:  1.000e+00
	FillingsUpdate:  mu: +0.822132832  nElectrons: 518.000000
LCAOMinimize: Iter:   1  F: -3082.1163822965054351  |grad|_K:  3.974e-03  alpha:  3.767e-01  linmin:  3.706e-02  cgtest: -4.327e-01  t[s]:    623.26
	FillingsUpdate:  mu: +0.833995473  nElectrons: 518.000000
LCAOMinimize: Iter:   2  F: -3082.3787934944866720  |grad|_K:  1.623e-03  alpha:  6.464e-02  linmin:  1.005e-01  cgtest:  9.375e-01  t[s]:    818.80
LCAOMinimize: Encountered beta<0, resetting CG.
	FillingsUpdate:  mu: +0.802225713  nElectrons: 518.000000
LCAOMinimize: Iter:   3  F: -3083.2827883461036436  |grad|_K:  1.429e-03  alpha:  1.258e-01  linmin: -2.260e-03  cgtest: -1.715e-01  t[s]:   1010.04
	FillingsUpdate:  mu: +0.798321382  nElectrons: 518.000000
LCAOMinimize: Iter:   4  F: -3083.9221607916801986  |grad|_K:  1.272e-03  alpha:  1.041e-01  linmin:  1.131e-02  cgtest:  7.478e-01  t[s]:   1213.55
	FillingsUpdate:  mu: +0.733180137  nElectrons: 518.000000
LCAOMinimize: Iter:   5  F: -3084.2312519667411834  |grad|_K:  3.805e-04  alpha:  6.524e-02  linmin: -1.428e-02  cgtest:  2.977e-02  t[s]:   1406.69
LCAOMinimize: 	Predicted alpha/alphaT>3.000000, increasing alphaT to 1.957297e-01.
	FillingsUpdate:  mu: +0.715563212  nElectrons: 518.000000
LCAOMinimize: Iter:   6  F: -3084.3065575985388023  |grad|_K:  2.899e-04  alpha:  1.876e-01  linmin:  1.134e-02  cgtest:  3.952e-05  t[s]:   1649.99
	FillingsUpdate:  mu: +0.709234317  nElectrons: 518.000000
LCAOMinimize: Iter:   7  F: -3084.3551760513350928  |grad|_K:  1.635e-04  alpha:  2.196e-01  linmin: -3.919e-03  cgtest:  1.303e-01  t[s]:   1841.28
	FillingsUpdate:  mu: +0.705111524  nElectrons: 518.000000
LCAOMinimize: Iter:   8  F: -3084.3593857632226900  |grad|_K:  1.165e-05  alpha:  5.628e-02  linmin: -3.702e-02  cgtest: -1.908e-02  t[s]:   2030.91
	FillingsUpdate:  mu: +0.705072902  nElectrons: 518.000000
LCAOMinimize: Iter:   9  F: -3084.3594309795748813  |grad|_K:  7.009e-06  alpha:  1.206e-01  linmin: -6.292e-04  cgtest: -2.676e-02  t[s]:   2230.89
	FillingsUpdate:  mu: +0.704813866  nElectrons: 518.000000
LCAOMinimize: Iter:  10  F: -3084.3594716510770013  |grad|_K:  6.049e-06  alpha:  3.036e-01  linmin:  4.835e-05  cgtest:  1.420e-02  t[s]:   2424.27
	FillingsUpdate:  mu: +0.704778045  nElectrons: 518.000000
LCAOMinimize: Iter:  11  F: -3084.3594775869087243  |grad|_K:  1.659e-06  alpha:  5.957e-02  linmin:  1.015e-05  cgtest:  1.698e-03  t[s]:   2623.97
LCAOMinimize: 	Predicted alpha/alphaT>3.000000, increasing alphaT to 1.787196e-01.
	FillingsUpdate:  mu: +0.704780330  nElectrons: 518.000000
LCAOMinimize: Iter:  12  F: -3084.3594796890565704  |grad|_K:  1.335e-06  alpha:  2.804e-01  linmin:  1.358e-04  cgtest: -7.139e-04  t[s]:   2869.12
	FillingsUpdate:  mu: +0.704777175  nElectrons: 518.000000
LCAOMinimize: Iter:  13  F: -3084.3594800728747032  |grad|_K:  7.137e-07  alpha:  7.912e-02  linmin:  2.592e-06  cgtest:  1.682e-03  t[s]:   3063.24
	FillingsUpdate:  mu: +0.704793214  nElectrons: 518.000000
LCAOMinimize: Iter:  14  F: -3084.3594803344217326  |grad|_K:  6.389e-07  alpha:  1.886e-01  linmin:  1.366e-04  cgtest: -1.384e-03  t[s]:   3254.18
LCAOMinimize: Converged (|Delta F|<1.000000e-06 for 2 iters).


---- Citations for features of the code used in this run ----

   Software package:
      R. Sundararaman, K. Letchworth-Weaver, K.A. Schwarz, D. Gunceler, Y. Ozhabes and T.A. Arias, 'JDFTx: software for joint density-functional theory', SoftwareX 6, 278 (2017)

   gga-PBE exchange-correlation functional:
      J.P. Perdew, K. Burke and M. Ernzerhof, Phys. Rev. Lett. 77, 3865 (1996)

   Pseudopotentials:
      KF Garrity, JW Bennett, KM Rabe and D Vanderbilt, Comput. Mater. Sci. 81, 446 (2014)

   Total energy minimization with Auxiliary Hamiltonian:
      C. Freysoldt, S. Boeck, and J. Neugebauer, Phys. Rev. B 79, 241103(R) (2009)

This list may not be complete. Please suggest additional citations or
report any other bugs at https://github.com/shankar1729/jdftx/issues

Initialization completed successfully at t[s]:   3407.06


-------- Electronic minimization -----------
	FillingsUpdate:  mu: +0.704793214  nElectrons: 518.000000
ElecMinimize: Iter:   0  F: -3084.359480334421733  |grad|_K:  7.161e-05  alpha:  1.000e+00
	FillingsUpdate:  mu: +0.716189395  nElectrons: 518.000000
	SubspaceRotationAdjust: set factor to 1
ElecMinimize: Iter:   1  F: -3084.710583522370598  |grad|_K:  3.319e-05  alpha:  3.570e-01  linmin:  2.964e-04  t[s]:   5029.94
	FillingsUpdate:  mu: +0.709037139  nElectrons: 518.000000
	SubspaceRotationAdjust: set factor to 0.678
ElecMinimize: Iter:   2  F: -3084.787106266216597  |grad|_K:  2.659e-05  alpha:  3.702e-01  linmin:  1.203e-04  t[s]:   6228.78
	FillingsUpdate:  mu: +0.704158365  nElectrons: 518.000000
	SubspaceRotationAdjust: set factor to 0.49
ElecMinimize: Iter:   3  F: -3084.798141312493044  |grad|_K:  1.499e-05  alpha:  8.121e-02  linmin: -1.088e-04  t[s]:   7490.19
ElecMinimize: 	Predicted alpha/alphaT>3.000000, increasing alphaT to 2.436382e-01.
	FillingsUpdate:  mu: +0.701999140  nElectrons: 518.000000
	SubspaceRotationAdjust: set factor to 0.408
ElecMinimize: Iter:   4  F: -3084.808874113785805  |grad|_K:  1.131e-05  alpha:  2.402e-01  linmin:  3.992e-05  t[s]:   8944.65
	FillingsUpdate:  mu: +0.704779018  nElectrons: 518.000000
	SubspaceRotationAdjust: set factor to 0.418
ElecMinimize: Iter:   5  F: -3084.814488261285987  |grad|_K:  9.069e-06  alpha:  2.319e-01  linmin:  8.543e-06  t[s]:  10203.39
	FillingsUpdate:  mu: +0.704772175  nElectrons: 518.000000
	SubspaceRotationAdjust: set factor to 0.404
ElecMinimize: Iter:   6  F: -3084.817762770250738  |grad|_K:  6.094e-06  alpha:  2.077e-01  linmin:  9.007e-06  t[s]:  11425.64
	FillingsUpdate:  mu: +0.704033493  nElectrons: 518.000000
	SubspaceRotationAdjust: set factor to 0.436
ElecMinimize: Iter:   7  F: -3084.819683156162682  |grad|_K:  4.848e-06  alpha:  2.720e-01  linmin:  3.914e-05  t[s]:  12674.62
	FillingsUpdate:  mu: +0.703963108  nElectrons: 518.000000
	SubspaceRotationAdjust: set factor to 0.409
ElecMinimize: Iter:   8  F: -3084.820456688570175  |grad|_K:  3.097e-06  alpha:  1.741e-01  linmin: -1.414e-06  t[s]:  13940.57
	FillingsUpdate:  mu: +0.704307648  nElectrons: 518.000000
	SubspaceRotationAdjust: set factor to 0.497
ElecMinimize: Iter:   9  F: -3084.820904120389969  |grad|_K:  2.228e-06  alpha:  2.427e-01  linmin:  7.622e-06  t[s]:  15201.53
	FillingsUpdate:  mu: +0.704404009  nElectrons: 518.000000
	SubspaceRotationAdjust: set factor to 0.447
ElecMinimize: Iter:  10  F: -3084.821067609789225  |grad|_K:  1.479e-06  alpha:  1.718e-01  linmin: -4.418e-07  t[s]:  16414.82
	FillingsUpdate:  mu: +0.704599741  nElectrons: 518.000000
	SubspaceRotationAdjust: set factor to 0.482
ElecMinimize: Iter:  11  F: -3084.821162734741847  |grad|_K:  1.035e-06  alpha:  2.260e-01  linmin: -1.969e-06  t[s]:  17641.19
	FillingsUpdate:  mu: +0.704590263  nElectrons: 518.000000
	SubspaceRotationAdjust: set factor to 0.487
ElecMinimize: Iter:  12  F: -3084.821204952166681  |grad|_K:  7.481e-07  alpha:  2.047e-01  linmin: -8.112e-07  t[s]:  18758.62
	FillingsUpdate:  mu: +0.704478808  nElectrons: 518.000000
	SubspaceRotationAdjust: set factor to 0.508
ElecMinimize: Iter:  13  F: -3084.821223264299988  |grad|_K:  4.488e-07  alpha:  1.701e-01  linmin:  1.923e-07  t[s]:  20035.70
	FillingsUpdate:  mu: +0.704518930  nElectrons: 518.000000
	SubspaceRotationAdjust: set factor to 0.436
ElecMinimize: Iter:  14  F: -3084.821234091654333  |grad|_K:  3.907e-07  alpha:  2.796e-01  linmin: -1.113e-07  t[s]:  21344.08
	FillingsUpdate:  mu: +0.704604330  nElectrons: 518.000000
	SubspaceRotationAdjust: set factor to 0.423
ElecMinimize: Iter:  15  F: -3084.821238412556340  |grad|_K:  2.257e-07  alpha:  1.473e-01  linmin:  6.485e-08  t[s]:  22575.54
	FillingsUpdate:  mu: +0.704634848  nElectrons: 518.000000
	SubspaceRotationAdjust: set factor to 0.466
ElecMinimize: Iter:  16  F: -3084.821241183003167  |grad|_K:  2.008e-07  alpha:  2.828e-01  linmin:  2.515e-08  t[s]:  23768.59
	FillingsUpdate:  mu: +0.704606753  nElectrons: 518.000000
	SubspaceRotationAdjust: set factor to 0.47
ElecMinimize: Iter:  17  F: -3084.821242802154757  |grad|_K:  1.522e-07  alpha:  2.088e-01  linmin: -2.507e-08  t[s]:  24964.83
	FillingsUpdate:  mu: +0.704594596  nElectrons: 518.000000
	SubspaceRotationAdjust: set factor to 0.56
ElecMinimize: Iter:  18  F: -3084.821243756958665  |grad|_K:  1.091e-07  alpha:  2.144e-01  linmin: -4.636e-08  t[s]:  26185.91
	FillingsUpdate:  mu: +0.704605372  nElectrons: 518.000000
	SubspaceRotationAdjust: set factor to 0.591
ElecMinimize: Iter:  19  F: -3084.821244379106247  |grad|_K:  1.078e-07  alpha:  2.717e-01  linmin: -3.501e-08  t[s]:  27499.86
	FillingsUpdate:  mu: +0.704603976  nElectrons: 518.000000
	SubspaceRotationAdjust: set factor to 0.515
ElecMinimize: Iter:  20  F: -3084.821244735895107  |grad|_K:  6.656e-08  alpha:  1.596e-01  linmin: -6.104e-08  t[s]:  28761.11
	FillingsUpdate:  mu: +0.704602489  nElectrons: 518.000000
	SubspaceRotationAdjust: set factor to 0.629
ElecMinimize: Iter:  21  F: -3084.821244924712573  |grad|_K:  4.728e-08  alpha:  2.216e-01  linmin: -2.008e-07  t[s]:  30032.60
	FillingsUpdate:  mu: +0.704601706  nElectrons: 518.000000
	SubspaceRotationAdjust: set factor to 0.535
ElecMinimize: Iter:  22  F: -3084.821245010748953  |grad|_K:  3.787e-08  alpha:  1.996e-01  linmin:  9.342e-08  t[s]:  31301.91
	FillingsUpdate:  mu: +0.704596589  nElectrons: 518.000000
	SubspaceRotationAdjust: set factor to 0.508
ElecMinimize: Iter:  23  F: -3084.821245053783514  |grad|_K:  2.032e-08  alpha:  1.566e-01  linmin: -1.466e-07  t[s]:  32568.57
	FillingsUpdate:  mu: +0.704596663  nElectrons: 518.000000
	SubspaceRotationAdjust: set factor to 0.575
ElecMinimize: Iter:  24  F: -3084.821245074318540  |grad|_K:  1.514e-08  alpha:  2.624e-01  linmin:  1.038e-06  t[s]:  33864.88
	FillingsUpdate:  mu: +0.704597641  nElectrons: 518.000000
	SubspaceRotationAdjust: set factor to 0.514
ElecMinimize: Iter:  25  F: -3084.821245082797304  |grad|_K:  1.093e-08  alpha:  1.936e-01  linmin:  3.202e-07  t[s]:  35132.73
	FillingsUpdate:  mu: +0.704596271  nElectrons: 518.000000
	SubspaceRotationAdjust: set factor to 0.552
ElecMinimize: Iter:  26  F: -3084.821245087123316  |grad|_K:  7.000e-09  alpha:  1.897e-01  linmin:  1.064e-06  t[s]:  36381.43
ElecMinimize: Converged (|Delta F|<1.000000e-08 for 2 iters).
Setting wave functions to eigenvectors of Hamiltonian

# Ionic positions in cartesian coordinates:
ion Pd   0.001000000000000   0.000000000000000   0.000000000000000 1
ion Pd   0.000000000000000   3.676517000000000   3.675517000000001 1
ion Pd   3.675517000000001   0.000000000000000   3.676517000000000 1
ion Pd   3.675517000000001   3.675517000000001   0.000000000000000 1
ion Pd   0.000000000000000   0.000000000000000   7.351035000000001 1
ion Pd   0.000000000000000   3.675517000000001  11.026552000000002 1
ion Pd   3.675517000000001   0.000000000000000  11.026552000000002 1
ion Pd   3.675517000000001   3.675517000000001   7.351035000000001 1
ion Pd   0.000000000000000   7.351035000000001   0.000000000000000 1
ion Pd   0.000000000000000  11.026552000000002   3.675517000000001 1
ion Pd   3.675517000000001   7.351035000000001   3.675517000000001 1
ion Pd   3.675517000000001  11.026552000000002   0.000000000000000 1
ion Pd   0.000000000000000   7.351035000000001   7.351035000000001 1
ion Pd   0.000000000000000  11.026552000000002  11.026552000000002 1
ion Pd   3.675517000000001   7.351035000000001  11.026552000000002 1
ion Pd   3.675517000000001  11.026552000000002   7.351035000000001 1
ion Pd   7.351035000000001   0.000000000000000   0.000000000000000 1
ion Pd   7.351035000000001   3.675517000000001   3.675517000000001 1
ion Pd  11.026552000000002   0.000000000000000   3.675517000000001 1
ion Pd  11.026552000000002   3.675517000000001   0.000000000000000 1
ion Pd   7.351035000000001   0.000000000000000   7.351035000000001 1
ion Pd   7.351035000000001   3.675517000000001  11.026552000000002 1
ion Pd  11.026552000000002   0.000000000000000  11.026552000000002 1
ion Pd  11.026552000000002   3.675517000000001   7.351035000000001 1
ion Pd   7.351035000000001   7.351035000000001   0.000000000000000 1
ion Pd   7.351035000000001  11.026552000000002   3.675517000000001 1
ion Pd  11.026552000000002   7.351035000000001   3.675517000000001 1
ion Pd  11.026552000000002  11.026552000000002   0.000000000000000 1
ion Pd   7.351035000000001   7.351035000000001   7.351035000000001 1
ion Pd   7.351035000000001  11.026552000000002  11.026552000000002 1
ion Pd  11.026552000000002   7.351035000000001  11.026552000000002 1
ion Pd  11.026552000000002  11.026552000000002   7.351035000000001 1
ion O   1.837758500000000   1.837758500000000   1.837758500000000 1

# Forces in Cartesian coordinates:
force Pd  -0.118375171197391  -0.118327649213347  -0.118303825487059 1
force Pd  -0.117963426106255   0.117900827089110   0.117944248805933 1
force Pd   0.117946055513328  -0.117937376235738   0.117924045183257 1
force Pd   0.118164153887125   0.118139128506730  -0.118133834542803 1
force Pd  -0.002667819727630  -0.002635594003326   0.006323105458527 1
force Pd  -0.002655996597082   0.002652781146092  -0.006328132521344 1
force Pd   0.002667933510340  -0.002653865364831  -0.006344488649313 1
force Pd   0.002650034193526   0.002664654551389   0.006340504785317 1
force Pd  -0.002653729167170   0.006343041605587  -0.002669144569399 1
force Pd  -0.002653656567680  -0.006325154284206   0.002648943128810 1
force Pd   0.002667979274163   0.006340448810704   0.002650262762988 1
force Pd   0.002665555574675  -0.006327237083379  -0.002637834170151 1
force Pd  -0.000898619713098   0.000202168023592   0.000202970790370 1
force Pd  -0.000898899298935  -0.000187107785447  -0.000184751087338 1
force Pd   0.000895234259424   0.000189685985413  -0.000190618656698 1
force Pd   0.000896839103656  -0.000203727017424   0.000203831039424 1
force Pd   0.006311671118757  -0.002649943290051  -0.002635932806187 1
force Pd   0.006325683251376   0.002648657870568   0.002647624168503 1
force Pd  -0.006293209390647  -0.002634686253684   0.002631384837448 1
force Pd  -0.006311472073398   0.002631481050507  -0.002649958244981 1
force Pd   0.000205144887002  -0.000897890952466   0.000204470203867 1
force Pd   0.000193774436619   0.000895677036968  -0.000191387821681 1
force Pd  -0.000176361332353  -0.000895921797154  -0.000178151553517 1
force Pd  -0.000194416688082   0.000894604907178   0.000195728666848 1
force Pd   0.000190118395423   0.000191999408885  -0.000896821266804 1
force Pd   0.000195723656527  -0.000195004470230   0.000894267547345 1
force Pd  -0.000205241117679   0.000205993407316   0.000896829025629 1
force Pd  -0.000177698339984  -0.000176286499153  -0.000896026227723 1
force Pd  -0.000309176212155  -0.000310070518252  -0.000309398898493 1
force Pd  -0.000309311903627   0.000311102474783   0.000311148877495 1
force Pd   0.000311388904782  -0.000309509817507   0.000311545374807 1
force Pd   0.000311716581053   0.000311194722995  -0.000309518926679 1
force O   0.000097837317005   0.000098189668719   0.000481799776629 1

# Energy components:
   Eewald =    -2568.6391619701780655
       EH =      574.1243521273419219
     Eloc =    -1199.4937688536081168
      Enl =     -456.0681365692288409
      Exc =     -506.1450616104799565
 Exc_core =      110.3059713894629823
       KE =      961.1643367898075212
-------------------------------------
     Etot =    -3084.7514686968834212
       TS =        0.0697763902401214
-------------------------------------
        F =    -3084.8212450871233159

IonicMinimize: Iter:   0  F: -3084.821245087123316  |grad|_K:  4.119e-02  t[s]:  36504.62

#--- Lowdin population analysis ---
# oxidation-state Pd +0.108 +0.108 +0.108 +0.108 -0.019 -0.019 -0.019 -0.019 -0.019 -0.019 -0.019 -0.019 -0.011 -0.011 -0.011 -0.011 -0.019 -0.019 -0.019 -0.019 -0.011 -0.011 -0.011 -0.011 -0.011 -0.011 -0.011 -0.011 +0.007 +0.007 +0.007 +0.007
# oxidation-state O +0.143


-------- Electronic minimization -----------
	FillingsUpdate:  mu: +0.734934157  nElectrons: 518.000000
ElecMinimize: Iter:   0  F: -3082.811819840276257  |grad|_K:  1.925e-04  alpha:  1.000e+00
	FillingsUpdate:  mu: +0.749252272  nElectrons: 518.000000
	SubspaceRotationAdjust: set factor to 0.328
ElecMinimize: Iter:   1  F: -3084.543293991247538  |grad|_K:  9.969e-05  alpha:  2.530e-01  linmin:  6.265e-03  t[s]:  38435.29
	FillingsUpdate:  mu: +0.709047886  nElectrons: 518.000000
	SubspaceRotationAdjust: set factor to 0.325
ElecMinimize: Iter:   2  F: -3084.753466297319846  |grad|_K:  3.367e-05  alpha:  1.147e-01  linmin: -9.720e-05  t[s]:  39641.54
	FillingsUpdate:  mu: +0.703356450  nElectrons: 518.000000
	SubspaceRotationAdjust: set factor to 0.313
ElecMinimize: Iter:   3  F: -3084.816402848397047  |grad|_K:  1.908e-05  alpha:  2.897e-01  linmin:  4.401e-04  t[s]:  40915.85
	FillingsUpdate:  mu: +0.707129966  nElectrons: 518.000000
	SubspaceRotationAdjust: set factor to 0.256
ElecMinimize: Iter:   4  F: -3084.840996869939318  |grad|_K:  1.817e-05  alpha:  3.555e-01  linmin:  1.256e-04  t[s]:  42128.42
	FillingsUpdate:  mu: +0.704437163  nElectrons: 518.000000
	SubspaceRotationAdjust: set factor to 0.299
ElecMinimize: Iter:   5  F: -3084.862983196077494  |grad|_K:  1.391e-05  alpha:  3.486e-01  linmin:  5.389e-06  t[s]:  43365.89
	FillingsUpdate:  mu: +0.704025752  nElectrons: 518.000000
	SubspaceRotationAdjust: set factor to 0.337
ElecMinimize: Iter:   6  F: -3084.878388005524357  |grad|_K:  1.083e-05  alpha:  4.132e-01  linmin: -9.042e-05  t[s]:  44607.23
	FillingsUpdate:  mu: +0.704860117  nElectrons: 518.000000
	SubspaceRotationAdjust: set factor to 0.273
ElecMinimize: Iter:   7  F: -3084.884825148704294  |grad|_K:  7.766e-06  alpha:  2.821e-01  linmin:  2.931e-06  t[s]:  45863.46
	FillingsUpdate:  mu: +0.704196000  nElectrons: 518.000000
	SubspaceRotationAdjust: set factor to 0.27
ElecMinimize: Iter:   8  F: -3084.888019306421029  |grad|_K:  4.173e-06  alpha:  2.755e-01  linmin:  1.197e-05  t[s]:  47119.61
	FillingsUpdate:  mu: +0.704106114  nElectrons: 518.000000
	SubspaceRotationAdjust: set factor to 0.312
ElecMinimize: Iter:   9  F: -3084.889109979500972  |grad|_K:  2.582e-06  alpha:  3.259e-01  linmin: -1.546e-05  t[s]:  48370.44
	FillingsUpdate:  mu: +0.704243408  nElectrons: 518.000000
	SubspaceRotationAdjust: set factor to 0.263
ElecMinimize: Iter:  10  F: -3084.889458786795331  |grad|_K:  1.622e-06  alpha:  2.720e-01  linmin: -4.881e-06  t[s]:  49618.83
	FillingsUpdate:  mu: +0.704105470  nElectrons: 518.000000
	SubspaceRotationAdjust: set factor to 0.352
ElecMinimize: Iter:  11  F: -3084.889617595410982  |grad|_K:  9.430e-07  alpha:  3.140e-01  linmin:  9.443e-07  t[s]:  50857.71
	FillingsUpdate:  mu: +0.704130464  nElectrons: 518.000000
	SubspaceRotationAdjust: set factor to 0.328
ElecMinimize: Iter:  12  F: -3084.889682220612940  |grad|_K:  7.209e-07  alpha:  3.779e-01  linmin:  3.471e-06  t[s]:  52092.53
	FillingsUpdate:  mu: +0.704209345  nElectrons: 518.000000
	SubspaceRotationAdjust: set factor to 0.295
ElecMinimize: Iter:  13  F: -3084.889710837617713  |grad|_K:  5.611e-07  alpha:  2.865e-01  linmin:  5.034e-07  t[s]:  53332.63
	FillingsUpdate:  mu: +0.704128531  nElectrons: 518.000000
	SubspaceRotationAdjust: set factor to 0.37
ElecMinimize: Iter:  14  F: -3084.889732240291323  |grad|_K:  3.913e-07  alpha:  3.536e-01  linmin:  6.928e-07  t[s]:  54545.89
	FillingsUpdate:  mu: +0.704120139  nElectrons: 518.000000
	SubspaceRotationAdjust: set factor to 0.406
ElecMinimize: Iter:  15  F: -3084.889743686611382  |grad|_K:  2.966e-07  alpha:  3.889e-01  linmin: -1.837e-07  t[s]:  55840.61
	FillingsUpdate:  mu: +0.704167280  nElectrons: 518.000000
	SubspaceRotationAdjust: set factor to 0.342
ElecMinimize: Iter:  16  F: -3084.889748243884696  |grad|_K:  2.355e-07  alpha:  2.694e-01  linmin: -4.554e-07  t[s]:  57132.47
	FillingsUpdate:  mu: +0.704146365  nElectrons: 518.000000
	SubspaceRotationAdjust: set factor to 0.342
ElecMinimize: Iter:  17  F: -3084.889751293471363  |grad|_K:  1.443e-07  alpha:  2.859e-01  linmin:  3.033e-08  t[s]:  58414.93
	FillingsUpdate:  mu: +0.704137044  nElectrons: 518.000000
	SubspaceRotationAdjust: set factor to 0.353
ElecMinimize: Iter:  18  F: -3084.889752663468244  |grad|_K:  8.565e-08  alpha:  3.420e-01  linmin: -7.538e-08  t[s]:  59691.36
	FillingsUpdate:  mu: +0.704149649  nElectrons: 518.000000
	SubspaceRotationAdjust: set factor to 0.333
ElecMinimize: Iter:  19  F: -3084.889753081324670  |grad|_K:  5.729e-08  alpha:  2.961e-01  linmin: -4.299e-07  t[s]:  60926.48
	FillingsUpdate:  mu: +0.704146163  nElectrons: 518.000000
	SubspaceRotationAdjust: set factor to 0.263
ElecMinimize: Iter:  20  F: -3084.889753236847810  |grad|_K:  3.473e-08  alpha:  2.467e-01  linmin:  1.849e-08  t[s]:  62190.24
	FillingsUpdate:  mu: +0.704144800  nElectrons: 518.000000
	SubspaceRotationAdjust: set factor to 0.343
ElecMinimize: Iter:  21  F: -3084.889753314673726  |grad|_K:  2.031e-08  alpha:  3.378e-01  linmin:  3.265e-06  t[s]:  63433.23
	FillingsUpdate:  mu: +0.704145902  nElectrons: 518.000000
	SubspaceRotationAdjust: set factor to 0.37
ElecMinimize: Iter:  22  F: -3084.889753343194570  |grad|_K:  1.549e-08  alpha:  3.596e-01  linmin:  5.649e-08  t[s]:  64729.48
	FillingsUpdate:  mu: +0.704145251  nElectrons: 518.000000
	SubspaceRotationAdjust: set factor to 0.344
ElecMinimize: Iter:  23  F: -3084.889753356986148  |grad|_K:  1.165e-08  alpha:  2.946e-01  linmin: -8.873e-07  t[s]:  66017.00
	FillingsUpdate:  mu: +0.704146091  nElectrons: 518.000000
	SubspaceRotationAdjust: set factor to 0.397
ElecMinimize: Iter:  24  F: -3084.889753365886463  |grad|_K:  8.255e-09  alpha:  3.316e-01  linmin: -6.720e-06  t[s]:  67307.58
	FillingsUpdate:  mu: +0.704145285  nElectrons: 518.000000
	SubspaceRotationAdjust: set factor to 0.44
ElecMinimize: Iter:  25  F: -3084.889753371337065  |grad|_K:  5.957e-09  alpha:  3.994e-01  linmin:  4.567e-06  t[s]:  68563.59
ElecMinimize: Converged (|Delta F|<1.000000e-08 for 2 iters).
Setting wave functions to eigenvectors of Hamiltonian

# Ionic positions in cartesian coordinates:
ion Pd  -0.056754345949286  -0.057731189227582  -0.057719540143173 1
ion Pd  -0.057553456214449   3.734041285547963   3.733062496458869 1
ion Pd   3.733063381593865  -0.057540775700685   3.734052639145474 1
ion Pd   3.733169791422236   3.733157552407309  -0.057636601848457 1
ion Pd  -0.001300924509978  -0.001285230807577   7.354120729063924 1
ion Pd  -0.001295156024544   3.676811958499731  11.023465211411983 1
ion Pd   3.676819380486750  -0.001294145374009  11.023457231284759 1
ion Pd   3.676810647440295   3.676817751514131   7.354129218166090 1
ion Pd  -0.001294049749318   7.354130430347842  -0.001301574543549 1
ion Pd  -0.001294014328149  11.023466638960279   3.676810111466153 1
ion Pd   3.676819402814842   7.354129165327597   3.676810755313441 1
ion Pd   3.676818220295953  11.023465622766079  -0.001286298252615 1
ion Pd  -0.000437734809737   7.351134308494510   7.351134725691638 1
ion Pd  -0.000437871219195  11.026461381484475  11.026462556842077 1
ion Pd   3.675954483514986   7.351128218529155  11.026459694064892 1
ion Pd   3.675955266515777  11.026453272989251   7.351135145405699 1
ion Pd   7.354115153914361  -0.001292231800345  -0.001285370580347 1
ion Pd   7.354121990410211   3.676809946760564   3.676809467947647 1
ion Pd  11.023482253993999  -0.001284787918060   3.676801544805441 1
ion Pd  11.023473343661914   3.676801566219055  -0.001292213568256 1
ion Pd   7.351135790075223  -0.000437408422738   7.351135457252953 1
ion Pd   7.351130242451678   3.675954670371319  11.026459318790595 1
ion Pd  11.026466653834879  -0.000436447675186  11.026465776743485 1
ion Pd  11.026457844657301   3.675954147281004   7.351131192271800 1
ion Pd   7.351128458675350   7.351129347244561  -0.000436860996335 1
ion Pd   7.351131193472781  11.026457528705301   3.675954008212285 1
ion Pd  11.026452563436374   7.351136174892770   3.675955257953216 1
ion Pd  11.026466001511112  11.026466661171789  -0.000436473098110 1
ion Pd   7.350884853679247   7.350884388174729   7.350884741385450 1
ion Pd   7.350884787475607  11.026704457429338  11.026704505597715 1
ion Pd  11.026704626352133   7.350884661739677  11.026704699048086 1
ion Pd  11.026704786224833  11.026704502437084   7.350884682823901 1
ion O   1.837806934892983   1.837807077630707   1.837994265883301 1

# Forces in Cartesian coordinates:
force Pd  -0.080752310605875  -0.080696392784766  -0.080697243801469 1
force Pd  -0.080596639777265   0.080599058560474   0.080643810126015 1
force Pd   0.080655347671202  -0.080578844098425   0.080605467551139 1
force Pd   0.080712837836065   0.080694935157988  -0.080637891945527 1
force Pd  -0.002148123881738  -0.002118774732076   0.004901666060537 1
force Pd  -0.002131690754778   0.002133299893750  -0.004883457342797 1
force Pd   0.002147051067779  -0.002129997295309  -0.004897630129247 1
force Pd   0.002135192125722   0.002149332719985   0.004916422339086 1
force Pd  -0.002133892776356   0.004897863085212  -0.002149765146991 1
force Pd  -0.002131090371014  -0.004887223885023   0.002133326503861 1
force Pd   0.002150978310758   0.004899873475545   0.002135827226300 1
force Pd   0.002148482263595  -0.004885734738085  -0.002118744548778 1
force Pd  -0.000844267234459   0.002274634909708   0.002275864805381 1
force Pd  -0.000843998886524  -0.002263157750090  -0.002261606479436 1
force Pd   0.000843898343619   0.002262442499545  -0.002264617043327 1
force Pd   0.000845215894323  -0.002277221086860   0.002276471341280 1
force Pd   0.004871100152022  -0.002132003618702  -0.002119831883183 1
force Pd   0.004887351430632   0.002133209757206   0.002133561460664 1
force Pd  -0.004860566697768  -0.002115370546406   0.002117261031850 1
force Pd  -0.004873220734802   0.002116826139932  -0.002130383478181 1
force Pd   0.002278175693241  -0.000844191586961   0.002276174837044 1
force Pd   0.002266463294036   0.000843721403399  -0.002264418460933 1
force Pd  -0.002251268936040  -0.000841247094253  -0.002251719892755 1
force Pd  -0.002265763883195   0.000842396852439   0.002266119658975 1
force Pd   0.002265096644096   0.002266697434903  -0.000844097668099 1
force Pd   0.002264496770527  -0.002263954207174   0.000841769445397 1
force Pd  -0.002277944657425   0.002276307825442   0.000844417366324 1
force Pd  -0.002255025980995  -0.002251215959230  -0.000841178729791 1
force Pd  -0.000169951835967  -0.000170471824936  -0.000169576869619 1
force Pd  -0.000169820844805   0.000170913779589   0.000171662142859 1
force Pd   0.000170296360466  -0.000170275160429   0.000171736696381 1
force Pd   0.000171286891385   0.000171804983021  -0.000170091265910 1
force O   0.000013303801831   0.000013442108222   0.000136540922401 1

# Energy components:
   Eewald =    -2571.8296372465538298
       EH =      571.3091572847604311
     Eloc =    -1193.3927322559216009
      Enl =     -456.0763654380934895
      Exc =     -506.0728578719214283
 Exc_core =      110.3059612647153926
       KE =      960.9377902744566882
-------------------------------------
     Etot =    -3084.8186839885584050
       TS =        0.0710693827787296
-------------------------------------
        F =    -3084.8897533713370649

IonicMinimize: Iter:   1  F: -3084.889753371337065  |grad|_K:  2.818e-02  alpha:  4.879e-01  linmin: -9.993e-01  t[s]:  68687.39

#--- Lowdin population analysis ---
# oxidation-state Pd +0.106 +0.106 +0.106 +0.106 -0.015 -0.015 -0.015 -0.015 -0.015 -0.015 -0.015 -0.015 -0.009 -0.009 -0.009 -0.009 -0.015 -0.015 -0.015 -0.015 -0.009 -0.009 -0.009 -0.009 -0.009 -0.009 -0.009 -0.009 +0.007 +0.007 +0.007 +0.007
# oxidation-state O +0.078


-------- Electronic minimization -----------
	FillingsUpdate:  mu: +0.741688863  nElectrons: 518.000000
ElecMinimize: Iter:   0  F: -3082.833672710531118  |grad|_K:  1.922e-04  alpha:  1.000e+00
	FillingsUpdate:  mu: +0.750543662  nElectrons: 518.000000
	SubspaceRotationAdjust: set factor to 0.269
ElecMinimize: Iter:   1  F: -3084.583294558539365  |grad|_K:  9.216e-05  alpha:  2.646e-01  linmin:  1.203e-02  t[s]:  70602.56
	FillingsUpdate:  mu: +0.707276861  nElectrons: 518.000000
	SubspaceRotationAdjust: set factor to 0.303
ElecMinimize: Iter:   2  F: -3084.792451353226170  |grad|_K:  3.092e-05  alpha:  1.356e-01  linmin: -5.136e-04  t[s]:  71867.92
	FillingsUpdate:  mu: +0.703511374  nElectrons: 518.000000
	SubspaceRotationAdjust: set factor to 0.278
ElecMinimize: Iter:   3  F: -3084.849112602586956  |grad|_K:  1.969e-05  alpha:  3.073e-01  linmin:  3.516e-04  t[s]:  73107.63
	FillingsUpdate:  mu: +0.707185553  nElectrons: 518.000000
	SubspaceRotationAdjust: set factor to 0.249
ElecMinimize: Iter:   4  F: -3084.875495033375955  |grad|_K:  1.917e-05  alpha:  3.566e-01  linmin:  3.212e-05  t[s]:  74410.25
	FillingsUpdate:  mu: +0.704107698  nElectrons: 518.000000
	SubspaceRotationAdjust: set factor to 0.33
ElecMinimize: Iter:   5  F: -3084.903053972254384  |grad|_K:  1.534e-05  alpha:  3.905e-01  linmin: -3.304e-05  t[s]:  75649.44
	FillingsUpdate:  mu: +0.703959245  nElectrons: 518.000000
	SubspaceRotationAdjust: set factor to 0.332
ElecMinimize: Iter:   6  F: -3084.921207698178023  |grad|_K:  1.328e-05  alpha:  3.996e-01  linmin: -1.148e-04  t[s]:  76935.32
	FillingsUpdate:  mu: +0.704328588  nElectrons: 518.000000
	SubspaceRotationAdjust: set factor to 0.259
ElecMinimize: Iter:   7  F: -3084.929611768969153  |grad|_K:  8.349e-06  alpha:  2.433e-01  linmin: -2.967e-05  t[s]:  78171.75
	FillingsUpdate:  mu: +0.703887716  nElectrons: 518.000000
	SubspaceRotationAdjust: set factor to 0.309
ElecMinimize: Iter:   8  F: -3084.933634981267460  |grad|_K:  4.730e-06  alpha:  2.994e-01  linmin: -6.269e-06  t[s]:  79381.84
	FillingsUpdate:  mu: +0.703631699  nElectrons: 518.000000
	SubspaceRotationAdjust: set factor to 0.285
ElecMinimize: Iter:   9  F: -3084.934878007302359  |grad|_K:  2.873e-06  alpha:  2.889e-01  linmin: -1.838e-05  t[s]:  80574.94
	FillingsUpdate:  mu: +0.703819424  nElectrons: 518.000000
	SubspaceRotationAdjust: set factor to 0.241
ElecMinimize: Iter:  10  F: -3084.935271140656369  |grad|_K:  1.674e-06  alpha:  2.475e-01  linmin: -8.164e-06  t[s]:  81792.10
	FillingsUpdate:  mu: +0.703757977  nElectrons: 518.000000
	SubspaceRotationAdjust: set factor to 0.361
ElecMinimize: Iter:  11  F: -3084.935442076089657  |grad|_K:  9.561e-07  alpha:  3.170e-01  linmin: -8.351e-07  t[s]:  83058.51
	FillingsUpdate:  mu: +0.703710818  nElectrons: 518.000000
	SubspaceRotationAdjust: set factor to 0.328
ElecMinimize: Iter:  12  F: -3084.935503644116125  |grad|_K:  7.433e-07  alpha:  3.503e-01  linmin:  7.170e-06  t[s]:  84313.08
	FillingsUpdate:  mu: +0.703796548  nElectrons: 518.000000
	SubspaceRotationAdjust: set factor to 0.341
ElecMinimize: Iter:  13  F: -3084.935533982248216  |grad|_K:  5.446e-07  alpha:  2.856e-01  linmin:  2.196e-08  t[s]:  85563.59
	FillingsUpdate:  mu: +0.703744820  nElectrons: 518.000000
	SubspaceRotationAdjust: set factor to 0.41
ElecMinimize: Iter:  14  F: -3084.935558680022041  |grad|_K:  4.091e-07  alpha:  4.330e-01  linmin: -1.520e-07  t[s]:  86833.10
	FillingsUpdate:  mu: +0.703744619  nElectrons: 518.000000
	SubspaceRotationAdjust: set factor to 0.416
ElecMinimize: Iter:  15  F: -3084.935571718457595  |grad|_K:  3.078e-07  alpha:  4.051e-01  linmin:  1.444e-08  t[s]:  88085.00
	FillingsUpdate:  mu: +0.703781500  nElectrons: 518.000000
	SubspaceRotationAdjust: set factor to 0.355
ElecMinimize: Iter:  16  F: -3084.935576860858419  |grad|_K:  2.415e-07  alpha:  2.822e-01  linmin: -4.237e-07  t[s]:  89332.91
	FillingsUpdate:  mu: +0.703754028  nElectrons: 518.000000
	SubspaceRotationAdjust: set factor to 0.274
ElecMinimize: Iter:  17  F: -3084.935579556069570  |grad|_K:  1.466e-07  alpha:  2.404e-01  linmin: -4.867e-08  t[s]:  90584.03
	FillingsUpdate:  mu: +0.703754017  nElectrons: 518.000000
	SubspaceRotationAdjust: set factor to 0.314
ElecMinimize: Iter:  18  F: -3084.935580898180433  |grad|_K:  7.941e-08  alpha:  3.248e-01  linmin: -9.988e-08  t[s]:  91855.16
	FillingsUpdate:  mu: +0.703762598  nElectrons: 518.000000
	SubspaceRotationAdjust: set factor to 0.339
ElecMinimize: Iter:  19  F: -3084.935581294043004  |grad|_K:  5.035e-08  alpha:  3.265e-01  linmin:  1.354e-07  t[s]:  93129.72
	FillingsUpdate:  mu: +0.703758025  nElectrons: 518.000000
	SubspaceRotationAdjust: set factor to 0.293
ElecMinimize: Iter:  20  F: -3084.935581430521779  |grad|_K:  3.410e-08  alpha:  2.799e-01  linmin: -1.824e-06  t[s]:  94405.02
	FillingsUpdate:  mu: +0.703758360  nElectrons: 518.000000
	SubspaceRotationAdjust: set factor to 0.359
ElecMinimize: Iter:  21  F: -3084.935581504294987  |grad|_K:  2.132e-08  alpha:  3.294e-01  linmin: -8.333e-07  t[s]:  95624.60
	FillingsUpdate:  mu: +0.703758692  nElectrons: 518.000000
	SubspaceRotationAdjust: set factor to 0.464
ElecMinimize: Iter:  22  F: -3084.935581541841202  |grad|_K:  1.589e-08  alpha:  4.303e-01  linmin:  4.408e-06  t[s]:  96913.76
	FillingsUpdate:  mu: +0.703757615  nElectrons: 518.000000
	SubspaceRotationAdjust: set factor to 0.432
ElecMinimize: Iter:  23  F: -3084.935581558439480  |grad|_K:  1.373e-08  alpha:  3.429e-01  linmin: -4.007e-06  t[s]:  98182.17
	FillingsUpdate:  mu: +0.703758472  nElectrons: 518.000000
	SubspaceRotationAdjust: set factor to 0.338
ElecMinimize: Iter:  24  F: -3084.935581566863675  |grad|_K:  9.535e-09  alpha:  2.319e-01  linmin:  1.247e-06  t[s]:  99449.24
	FillingsUpdate:  mu: +0.703757342  nElectrons: 518.000000
	SubspaceRotationAdjust: set factor to 0.269
ElecMinimize: Iter:  25  F: -3084.935581571658076  |grad|_K:  5.745e-09  alpha:  2.917e-01  linmin:  7.822e-06  t[s]: 100726.31
ElecMinimize: Converged (|Delta F|<1.000000e-08 for 2 iters).
Setting wave functions to eigenvectors of Hamiltonian

# Ionic positions in cartesian coordinates:
ion Pd  -0.114359262401998  -0.115260629589931  -0.115277182033172 1
ion Pd  -0.115236551797066   3.791775103759171   3.790849347151957 1
ion Pd   3.790875700687465  -0.115211058068036   3.791775029018813 1
ion Pd   3.790885162792061   3.790858981866705  -0.115237458874474 1
ion Pd  -0.003338641446449  -0.003290801818905   7.358494329882347 1
ion Pd  -0.003308507628284   3.678813016277026  11.019114690646482 1
ion Pd   3.678835323325396  -0.003305844390385  11.019092045836599 1
ion Pd   3.678818663215865   3.678842232385306   7.358517706183105 1
ion Pd  -0.003314636821859   7.358476770697727  -0.003343243716398 1
ion Pd  -0.003308442679845  11.019106419818083   3.678813434966413 1
ion Pd   3.678844034082372   7.358482650291585   3.678818280978012 1
ion Pd   3.678839797923747  11.019110863075941  -0.003291242736128 1
ion Pd  -0.001398983206436   7.355975959409297   7.355976534920843 1
ion Pd  -0.001398234502427  11.021610629998397  11.021611076655057 1
ion Pd   3.676899130778472   7.355955616229053  11.021607565878643 1
ion Pd   3.676901190134386  11.021588371496680   7.355977417002219 1
ion Pd   7.358434219396042  -0.003312436671885  -0.003294693707580 1
ion Pd   7.358462760196820   3.678815054517837   3.678814673726015 1
ion Pd  11.019148316971313  -0.003283722546140   3.678787232857303 1
ion Pd  11.019130085573789   3.678787937618682  -0.003310549132175 1
ion Pd   7.355982165569063  -0.001399157092212   7.355976410434847 1
ion Pd   7.355962286568461   3.676898550321364  11.021608425216467 1
ion Pd  11.021631186680946  -0.001393676633730  11.021629484764647 1
ion Pd  11.021608747867070   3.676896186156465   7.355958790320215 1
ion Pd   7.355961231697793   7.355963824663740  -0.001401253326610 1
ion Pd   7.355956853979981  11.021613145904348   3.676893249390057 1
ion Pd  11.021587530568935   7.355977603580813   3.676897748563547 1
ion Pd  11.021623555587990  11.021631317418002  -0.001395192222629 1
ion Pd   7.350815898390629   7.350815280840442   7.350815182530280 1
ion Pd   7.350816263436040  11.026754378963217  11.026754294041771 1
ion Pd  11.026752796554671   7.350815413860133  11.026754244597033 1
ion Pd  11.026754821940417  11.026756311234736   7.350814103496880 1
ion O   1.837726036564675   1.837726206426511   1.837790016689651 1

# Forces in Cartesian coordinates:
force Pd  -0.051130753032056  -0.051075343869700  -0.051056603587308 1
force Pd  -0.050871349162225   0.050782259451391   0.050852055106511 1
force Pd   0.050839016840152  -0.050860144422362   0.050806228525823 1
force Pd   0.050939282341905   0.050928500294223  -0.050940031738502 1
force Pd  -0.001494308891781  -0.001471824705220   0.003320675616546 1
force Pd  -0.001486210831019   0.001494634755353  -0.003314118328183 1
force Pd   0.001504459610672  -0.001485241555429  -0.003325112841570 1
force Pd   0.001491375832860   0.001503099439098   0.003332394455369 1
force Pd  -0.001484761923266   0.003321087481724  -0.001500934209351 1
force Pd  -0.001481477414952  -0.003317855765454   0.001489587435541 1
force Pd   0.001504106295265   0.003322733761923   0.001492239343233 1
force Pd   0.001501124708867  -0.003319787886400  -0.001476389636719 1
force Pd  -0.000931320572590   0.003860837763054   0.003865947615651 1
force Pd  -0.000927880684246  -0.003848377643757  -0.003846010514595 1
force Pd   0.000930481015422   0.003845625308426  -0.003854522513420 1
force Pd   0.000931516609249  -0.003870528942107   0.003864342574964 1
force Pd   0.003301621150222  -0.001484106554112  -0.001478471749692 1
force Pd   0.003314279182456   0.001490857787446   0.001491272968059 1
force Pd  -0.003298243432268  -0.001470667479558   0.001477279105951 1
force Pd  -0.003311091251676   0.001477562377074  -0.001485556190588 1
force Pd   0.003865229291512  -0.000930650661528   0.003865564865857 1
force Pd   0.003849786519817   0.000929927840248  -0.003854477201359 1
force Pd  -0.003837380379764  -0.000925852240349  -0.003834966729283 1
force Pd  -0.003859283823534   0.000929554398364   0.003853409663433 1
force Pd   0.003847840303517   0.003847895954082  -0.000931180647490 1
force Pd   0.003851113627699  -0.003858512510973   0.000928298433341 1
force Pd  -0.003873715617967   0.003861968393530   0.000929665844635 1
force Pd  -0.003838034264357  -0.003833703476728  -0.000925945120386 1
force Pd  -0.000012757801427  -0.000014042288017  -0.000013000088210 1
force Pd  -0.000013781619514   0.000016532707685   0.000017623579367 1
force Pd   0.000015369140076  -0.000015182750929   0.000017480700474 1
force Pd   0.000016163830412   0.000017510482947  -0.000014986829005 1
force O   0.000064330861508   0.000064265984664   0.000235892405811 1

# Energy components:
   Eewald =    -2574.1181107596648872
       EH =      569.2954890368929455
     Eloc =    -1189.0116571508804100
      Enl =     -456.0792402705762356
      Exc =     -506.0178084350869767
 Exc_core =      110.3059585350290774
       KE =      960.7623242809999056
-------------------------------------
     Etot =    -3084.8630447632863252
       TS =        0.0725368083715595
-------------------------------------
        F =    -3084.9355815716580764

IonicMinimize: Iter:   2  F: -3084.935581571658076  |grad|_K:  1.789e-02  alpha:  4.600e-01  linmin: -9.998e-01  t[s]: 100848.82

#--- Lowdin population analysis ---
# oxidation-state Pd +0.103 +0.103 +0.103 +0.103 -0.012 -0.012 -0.012 -0.012 -0.012 -0.012 -0.012 -0.012 -0.007 -0.007 -0.007 -0.007 -0.012 -0.012 -0.012 -0.012 -0.007 -0.007 -0.007 -0.007 -0.007 -0.007 -0.007 -0.007 +0.006 +0.006 +0.006 +0.006
# oxidation-state O +0.024


-------- Electronic minimization -----------
	FillingsUpdate:  mu: +0.750129727  nElectrons: 518.000000
ElecMinimize: Iter:   0  F: -3082.744925882401276  |grad|_K:  1.937e-04  alpha:  1.000e+00
	FillingsUpdate:  mu: +0.736963090  nElectrons: 518.000000
	SubspaceRotationAdjust: set factor to 0.182
ElecMinimize: Iter:   1  F: -3084.651409387743115  |grad|_K:  6.441e-05  alpha:  2.868e-01  linmin:  2.005e-02  t[s]: 102753.62
	FillingsUpdate:  mu: +0.705199148  nElectrons: 518.000000
	SubspaceRotationAdjust: set factor to 0.168
ElecMinimize: Iter:   2  F: -3084.810030170260688  |grad|_K:  2.370e-05  alpha:  2.138e-01  linmin:  2.227e-04  t[s]: 104002.08
	FillingsUpdate:  mu: +0.702844127  nElectrons: 518.000000
	SubspaceRotationAdjust: set factor to 0.228
ElecMinimize: Iter:   3  F: -3084.852411806276905  |grad|_K:  1.736e-05  alpha:  3.934e-01  linmin:  1.048e-04  t[s]: 105211.75
	FillingsUpdate:  mu: +0.704848942  nElectrons: 518.000000
	SubspaceRotationAdjust: set factor to 0.279
ElecMinimize: Iter:   4  F: -3084.887110666277749  |grad|_K:  1.828e-05  alpha:  5.997e-01  linmin: -6.277e-05  t[s]: 106420.64
	FillingsUpdate:  mu: +0.703530567  nElectrons: 518.000000
	SubspaceRotationAdjust: set factor to 0.29
ElecMinimize: Iter:   5  F: -3084.921708378382391  |grad|_K:  1.800e-05  alpha:  5.381e-01  linmin: -1.081e-04  t[s]: 107681.12
	FillingsUpdate:  mu: +0.704420612  nElectrons: 518.000000
	SubspaceRotationAdjust: set factor to 0.27
ElecMinimize: Iter:   6  F: -3084.948910267211431  |grad|_K:  1.264e-05  alpha:  4.261e-01  linmin:  1.070e-04  t[s]: 108959.43
	FillingsUpdate:  mu: +0.703191934  nElectrons: 518.000000
	SubspaceRotationAdjust: set factor to 0.255
ElecMinimize: Iter:   7  F: -3084.959184630210984  |grad|_K:  7.177e-06  alpha:  3.390e-01  linmin: -4.756e-05  t[s]: 110197.60
	FillingsUpdate:  mu: +0.703295167  nElectrons: 518.000000
	SubspaceRotationAdjust: set factor to 0.281
ElecMinimize: Iter:   8  F: -3084.962463052930616  |grad|_K:  3.489e-06  alpha:  3.299e-01  linmin:  6.489e-06  t[s]: 111441.00
	FillingsUpdate:  mu: +0.703431006  nElectrons: 518.000000
	SubspaceRotationAdjust: set factor to 0.295
ElecMinimize: Iter:   9  F: -3084.963331450523128  |grad|_K:  1.826e-06  alpha:  3.710e-01  linmin:  2.807e-06  t[s]: 112734.73
	FillingsUpdate:  mu: +0.703306958  nElectrons: 518.000000
	SubspaceRotationAdjust: set factor to 0.331
ElecMinimize: Iter:  10  F: -3084.963561252825457  |grad|_K:  1.207e-06  alpha:  3.586e-01  linmin:  3.711e-06  t[s]: 113981.59
	FillingsUpdate:  mu: +0.703422231  nElectrons: 518.000000
	SubspaceRotationAdjust: set factor to 0.387
ElecMinimize: Iter:  11  F: -3084.963653190408877  |grad|_K:  8.313e-07  alpha:  3.281e-01  linmin:  5.945e-06  t[s]: 115278.24
	FillingsUpdate:  mu: +0.703389380  nElectrons: 518.000000
	SubspaceRotationAdjust: set factor to 0.42
ElecMinimize: Iter:  12  F: -3084.963708888159545  |grad|_K:  7.151e-07  alpha:  4.192e-01  linmin:  4.597e-06  t[s]: 116569.61
	FillingsUpdate:  mu: +0.703448690  nElectrons: 518.000000
	SubspaceRotationAdjust: set factor to 0.381
ElecMinimize: Iter:  13  F: -3084.963742276506309  |grad|_K:  5.499e-07  alpha:  3.396e-01  linmin:  1.052e-06  t[s]: 117788.75
	FillingsUpdate:  mu: +0.703400828  nElectrons: 518.000000
	SubspaceRotationAdjust: set factor to 0.302
ElecMinimize: Iter:  14  F: -3084.963761088982210  |grad|_K:  4.002e-07  alpha:  3.236e-01  linmin: -2.087e-07  t[s]: 119057.16
	FillingsUpdate:  mu: +0.703442150  nElectrons: 518.000000
	SubspaceRotationAdjust: set factor to 0.242
ElecMinimize: Iter:  15  F: -3084.963769464376128  |grad|_K:  2.519e-07  alpha:  2.719e-01  linmin: -1.021e-06  t[s]: 120288.27
	FillingsUpdate:  mu: +0.703433290  nElectrons: 518.000000
	SubspaceRotationAdjust: set factor to 0.267
ElecMinimize: Iter:  16  F: -3084.963773789299012  |grad|_K:  1.409e-07  alpha:  3.543e-01  linmin: -1.563e-06  t[s]: 121557.59
	FillingsUpdate:  mu: +0.703427221  nElectrons: 518.000000
	SubspaceRotationAdjust: set factor to 0.322
ElecMinimize: Iter:  17  F: -3084.963775194541540  |grad|_K:  8.862e-08  alpha:  3.678e-01  linmin: -2.290e-06  t[s]: 122808.26
	FillingsUpdate:  mu: +0.703431235  nElectrons: 518.000000
	SubspaceRotationAdjust: set factor to 0.364
ElecMinimize: Iter:  18  F: -3084.963775727594111  |grad|_K:  6.547e-08  alpha:  3.528e-01  linmin:  2.000e-07  t[s]: 124149.59
	FillingsUpdate:  mu: +0.703424873  nElectrons: 518.000000
	SubspaceRotationAdjust: set factor to 0.402
ElecMinimize: Iter:  19  F: -3084.963776021279955  |grad|_K:  5.455e-08  alpha:  3.567e-01  linmin:  1.532e-07  t[s]: 125402.54
	FillingsUpdate:  mu: +0.703426535  nElectrons: 518.000000
	SubspaceRotationAdjust: set factor to 0.411
ElecMinimize: Iter:  20  F: -3084.963776223200057  |grad|_K:  4.079e-08  alpha:  3.533e-01  linmin:  2.502e-06  t[s]: 126650.05
	FillingsUpdate:  mu: +0.703422247  nElectrons: 518.000000
	SubspaceRotationAdjust: set factor to 0.392
ElecMinimize: Iter:  21  F: -3084.963776336626324  |grad|_K:  2.738e-08  alpha:  3.543e-01  linmin:  5.932e-07  t[s]: 127885.21
	FillingsUpdate:  mu: +0.703423977  nElectrons: 518.000000
	SubspaceRotationAdjust: set factor to 0.338
ElecMinimize: Iter:  22  F: -3084.963776384148787  |grad|_K:  1.933e-08  alpha:  3.294e-01  linmin: -1.852e-06  t[s]: 129147.46
	FillingsUpdate:  mu: +0.703422263  nElectrons: 518.000000
	SubspaceRotationAdjust: set factor to 0.269
ElecMinimize: Iter:  23  F: -3084.963776403677002  |grad|_K:  1.274e-08  alpha:  2.699e-01  linmin: -5.140e-06  t[s]: 130412.93
	FillingsUpdate:  mu: +0.703422964  nElectrons: 518.000000
	SubspaceRotationAdjust: set factor to 0.305
ElecMinimize: Iter:  24  F: -3084.963776413036612  |grad|_K:  7.489e-09  alpha:  2.916e-01  linmin: -2.870e-05  t[s]: 131654.05
	FillingsUpdate:  mu: +0.703423143  nElectrons: 518.000000
	SubspaceRotationAdjust: set factor to 0.394
ElecMinimize: Iter:  25  F: -3084.963776417072040  |grad|_K:  5.293e-09  alpha:  3.614e-01  linmin: -3.378e-05  t[s]: 132955.12
ElecMinimize: Converged (|Delta F|<1.000000e-08 for 2 iters).
Setting wave functions to eigenvectors of Hamiltonian

# Ionic positions in cartesian coordinates:
ion Pd  -0.172191669717176  -0.172959100261023  -0.172951258933878 1
ion Pd  -0.172665016684132   3.849013614850708   3.848257837500819 1
ion Pd   3.848254114980393  -0.172626710477784   3.849056256703790 1
ion Pd   3.848359910131535   3.848321543101515  -0.172718235979121 1
ion Pd  -0.005750539590829  -0.005659114546307   7.363508413290936 1
ion Pd  -0.005703193461732   3.681246725704171  11.014127295257795 1
ion Pd   3.681286981635707  -0.005699054225863  11.014084097033349 1
ion Pd   3.681245841747163   3.681294065498911   7.363553623385879 1
ion Pd  -0.005707981733619   7.363477936281244  -0.005780697402865 1
ion Pd  -0.005691273605890  11.014110800814221   3.681229071847949 1
ion Pd   3.681295812554418   7.363491902886693   3.681241218772966 1
ion Pd   3.681284405600263  11.014112068210220  -0.005677797552318 1
ion Pd  -0.003512073680787   7.367908679642730   7.367916975855530 1
ion Pd  -0.003500780624055  11.009713858606180  11.009712452281470 1
ion Pd   3.679023168696840   7.367852033609237  11.009688687514952 1
ion Pd   3.679027094390021  11.009638320271000   7.367912433668524 1
ion Pd   7.363400674617811  -0.005706829649922  -0.005689649062562 1
ion Pd   7.363457678984237   3.681241681454917   3.681236691659664 1
ion Pd  11.014186800081493  -0.005648467718763   3.681179046169378 1
ion Pd  11.014144905514181   3.681187339502476  -0.005715698638231 1
ion Pd   7.367925782334875  -0.003510753809877   7.367914314103393 1
ion Pd   7.367867954832656   3.679020669898112  11.009690511716164 1
ion Pd  11.009759667467558  -0.003492131745636  11.009759997628446 1
ion Pd  11.009685985977281   3.679017864238956   7.367866357861221 1
ion Pd   7.367864375100878   7.367865961516544  -0.003522440444707 1
ion Pd   7.367863893644207  11.009694030007205   3.679004373261039 1
ion Pd  11.009629121855014   7.367910359678749   3.679011174397484 1
ion Pd  11.009750279233652  11.009770839665061  -0.003500777230196 1
ion Pd   7.351040076927673   7.351036608167645   7.351032218411082 1
ion Pd   7.351037587696688  11.026550119765616  11.026546467698619 1
ion Pd  11.026544399651749   7.351032865243724  11.026545621689465 1
ion Pd  11.026548755090042  11.026555128884315   7.351025220107942 1
ion O   1.837827760351918   1.837827644935063   1.838046697426064 1

# Forces in Cartesian coordinates:
force Pd  -0.027607771444511  -0.027560382703050  -0.027544207458989 1
force Pd  -0.027577935505339   0.027454082163284   0.027508450412620 1
force Pd   0.027500380757212  -0.027573317531293   0.027466554506226 1
force Pd   0.027515260077891   0.027510683903443  -0.027568856457645 1
force Pd  -0.000772325615020  -0.000760569578688   0.001741149143358 1
force Pd  -0.000772488233066   0.000781543434177  -0.001748835591517 1
force Pd   0.000786313250786  -0.000772903088836  -0.001755838880363 1
force Pd   0.000776065479932   0.000783632703048   0.001743679206438 1
force Pd  -0.000767672218687   0.001744104886559  -0.000782100539917 1
force Pd  -0.000767930646941  -0.001755343026110   0.000777383325660 1
force Pd   0.000782288213443   0.001741501002174   0.000777877181895 1
force Pd   0.000783865457237  -0.001754532175239  -0.000772928505439 1
force Pd  -0.001215266725443   0.004398500347153   0.004407514791290 1
force Pd  -0.001208217571642  -0.004424742028678  -0.004423129661434 1
force Pd   0.001218176263268   0.004388327425906  -0.004415016037894 1
force Pd   0.001218540702869  -0.004426156450617   0.004405212254816 1
force Pd   0.001732922591893  -0.000767977266709  -0.000770089896052 1
force Pd   0.001737189551743   0.000775260574792   0.000778123911220 1
force Pd  -0.001744005034588  -0.000763482801324   0.000769931453328 1
force Pd  -0.001749973753819   0.000771871999151  -0.000777764884247 1
force Pd   0.004402770845041  -0.001214075354869   0.004407420128903 1
force Pd   0.004391752336886   0.001217039006855  -0.004415772682155 1
force Pd  -0.004417688961782  -0.001207960579839  -0.004413995153970 1
force Pd  -0.004418538417237   0.001218224077565   0.004397078360116 1
force Pd   0.004392842032788   0.004391562742449  -0.001216833694088 1
force Pd   0.004388798440772  -0.004414639800153   0.001216943810752 1
force Pd  -0.004427098799938   0.004396289350710   0.001216064590413 1
force Pd  -0.004419741837855  -0.004416163320158  -0.001210245129973 1
force Pd   0.000131511462381   0.000129995024381   0.000132938659689 1
force Pd   0.000127611186505  -0.000123859035502  -0.000120469776151 1
force Pd  -0.000125321285752   0.000125767107386  -0.000120813569314 1
force Pd  -0.000125276786965  -0.000123372645632   0.000125794025187 1
force O  -0.000040417361670  -0.000040358031956  -0.000013246871839 1

# Energy components:
   Eewald =    -2575.5540824298059306
       EH =      568.0478314090296408
     Eloc =    -1186.2637300683159083
      Enl =     -456.0777296845272417
      Exc =     -505.9770984530085798
 Exc_core =      110.3059625151584413
       KE =      960.6291164811456156
-------------------------------------
     Etot =    -3084.8897302303234937
       TS =        0.0740461867486465
-------------------------------------
        F =    -3084.9637764170720402

IonicMinimize: Iter:   3  F: -3084.963776417072040  |grad|_K:  9.864e-03  alpha:  5.615e-01  linmin: -9.976e-01  t[s]: 133079.41

#--- Lowdin population analysis ---
# oxidation-state Pd +0.100 +0.100 +0.100 +0.100 -0.010 -0.010 -0.010 -0.010 -0.010 -0.010 -0.010 -0.010 -0.005 -0.005 -0.005 -0.005 -0.010 -0.010 -0.010 -0.010 -0.005 -0.005 -0.005 -0.005 -0.005 -0.005 -0.005 -0.005 +0.006 +0.006 +0.006 +0.006
# oxidation-state O -0.022


-------- Electronic minimization -----------
	FillingsUpdate:  mu: +0.761662523  nElectrons: 518.000000
ElecMinimize: Iter:   0  F: -3082.361849107093803  |grad|_K:  2.178e-04  alpha:  1.000e+00
	FillingsUpdate:  mu: +0.772410881  nElectrons: 518.000000
	SubspaceRotationAdjust: set factor to 0.239
ElecMinimize: Iter:   1  F: -3084.449915192788467  |grad|_K:  1.133e-04  alpha:  2.532e-01  linmin:  1.596e-02  t[s]: 135025.58
	FillingsUpdate:  mu: +0.705568112  nElectrons: 518.000000
	SubspaceRotationAdjust: set factor to 0.383
ElecMinimize: Iter:   2  F: -3084.797172198901535  |grad|_K:  3.331e-05  alpha:  1.493e-01  linmin: -8.335e-04  t[s]: 136300.28
	FillingsUpdate:  mu: +0.703539642  nElectrons: 518.000000
	SubspaceRotationAdjust: set factor to 0.3
ElecMinimize: Iter:   3  F: -3084.863554122448022  |grad|_K:  2.404e-05  alpha:  3.091e-01  linmin:  2.914e-04  t[s]: 137553.65
	FillingsUpdate:  mu: +0.707358457  nElectrons: 518.000000
	SubspaceRotationAdjust: set factor to 0.289
ElecMinimize: Iter:   4  F: -3084.895921860902490  |grad|_K:  2.347e-05  alpha:  2.930e-01  linmin: -1.801e-05  t[s]: 138770.72
	FillingsUpdate:  mu: +0.704534359  nElectrons: 518.000000
	SubspaceRotationAdjust: set factor to 0.42
ElecMinimize: Iter:   5  F: -3084.937952172613223  |grad|_K:  1.888e-05  alpha:  3.959e-01  linmin: -9.633e-06  t[s]: 139918.55
	FillingsUpdate:  mu: +0.703777426  nElectrons: 518.000000
	SubspaceRotationAdjust: set factor to 0.367
ElecMinimize: Iter:   6  F: -3084.958502561115893  |grad|_K:  1.700e-05  alpha:  3.009e-01  linmin: -3.157e-05  t[s]: 141186.26
	FillingsUpdate:  mu: +0.703566138  nElectrons: 518.000000
	SubspaceRotationAdjust: set factor to 0.301
ElecMinimize: Iter:   7  F: -3084.970564041544094  |grad|_K:  9.709e-06  alpha:  2.153e-01  linmin:  1.364e-05  t[s]: 142506.17
	FillingsUpdate:  mu: +0.703290240  nElectrons: 518.000000
	SubspaceRotationAdjust: set factor to 0.362
ElecMinimize: Iter:   8  F: -3084.976095423107836  |grad|_K:  5.410e-06  alpha:  3.053e-01  linmin: -3.311e-05  t[s]: 143800.60
	FillingsUpdate:  mu: +0.702932142  nElectrons: 518.000000
	SubspaceRotationAdjust: set factor to 0.283
ElecMinimize: Iter:   9  F: -3084.977631767432285  |grad|_K:  3.561e-06  alpha:  2.725e-01  linmin: -2.367e-06  t[s]: 145073.72
	FillingsUpdate:  mu: +0.703203974  nElectrons: 518.000000
	SubspaceRotationAdjust: set factor to 0.232
ElecMinimize: Iter:  10  F: -3084.978153796139850  |grad|_K:  1.821e-06  alpha:  2.141e-01  linmin: -5.248e-06  t[s]: 146357.89
	FillingsUpdate:  mu: +0.703135187  nElectrons: 518.000000
	SubspaceRotationAdjust: set factor to 0.309
ElecMinimize: Iter:  11  F: -3084.978369918905173  |grad|_K:  9.789e-07  alpha:  3.390e-01  linmin: -5.972e-06  t[s]: 147657.01
	FillingsUpdate:  mu: +0.703069986  nElectrons: 518.000000
	SubspaceRotationAdjust: set factor to 0.299
ElecMinimize: Iter:  12  F: -3084.978431089210972  |grad|_K:  6.911e-07  alpha:  3.319e-01  linmin:  9.877e-06  t[s]: 148841.79
	FillingsUpdate:  mu: +0.703146918  nElectrons: 518.000000
	SubspaceRotationAdjust: set factor to 0.34
ElecMinimize: Iter:  13  F: -3084.978457623163195  |grad|_K:  4.579e-07  alpha:  2.889e-01  linmin:  9.053e-07  t[s]: 150086.02
	FillingsUpdate:  mu: +0.703114400  nElectrons: 518.000000
	SubspaceRotationAdjust: set factor to 0.42
ElecMinimize: Iter:  14  F: -3084.978476713883538  |grad|_K:  3.768e-07  alpha:  4.734e-01  linmin:  2.366e-06  t[s]: 151392.26
	FillingsUpdate:  mu: +0.703111615  nElectrons: 518.000000
	SubspaceRotationAdjust: set factor to 0.5
ElecMinimize: Iter:  15  F: -3084.978488583736635  |grad|_K:  3.121e-07  alpha:  4.347e-01  linmin:  8.900e-07  t[s]: 152687.34
	FillingsUpdate:  mu: +0.703150408  nElectrons: 518.000000
	SubspaceRotationAdjust: set factor to 0.424
ElecMinimize: Iter:  16  F: -3084.978493983531735  |grad|_K:  2.796e-07  alpha:  2.883e-01  linmin: -3.654e-07  t[s]: 153959.00
	FillingsUpdate:  mu: +0.703121973  nElectrons: 518.000000
	SubspaceRotationAdjust: set factor to 0.3
ElecMinimize: Iter:  17  F: -3084.978496983020705  |grad|_K:  1.647e-07  alpha:  1.995e-01  linmin: -3.023e-07  t[s]: 155247.98
	FillingsUpdate:  mu: +0.703123012  nElectrons: 518.000000
	SubspaceRotationAdjust: set factor to 0.314
ElecMinimize: Iter:  18  F: -3084.978498685306477  |grad|_K:  9.061e-08  alpha:  3.261e-01  linmin: -3.922e-06  t[s]: 156508.34
	FillingsUpdate:  mu: +0.703129970  nElectrons: 518.000000
	SubspaceRotationAdjust: set factor to 0.341
ElecMinimize: Iter:  19  F: -3084.978499214460953  |grad|_K:  5.160e-08  alpha:  3.351e-01  linmin:  6.178e-06  t[s]: 157796.12
	FillingsUpdate:  mu: +0.703126015  nElectrons: 518.000000
	SubspaceRotationAdjust: set factor to 0.365
ElecMinimize: Iter:  20  F: -3084.978499385263603  |grad|_K:  3.506e-08  alpha:  3.341e-01  linmin: -8.687e-08  t[s]: 159063.87
	FillingsUpdate:  mu: +0.703127012  nElectrons: 518.000000
	SubspaceRotationAdjust: set factor to 0.365
ElecMinimize: Iter:  21  F: -3084.978499455201018  |grad|_K:  2.534e-08  alpha:  2.959e-01  linmin:  6.653e-06  t[s]: 160363.45
	FillingsUpdate:  mu: +0.703125147  nElectrons: 518.000000
	SubspaceRotationAdjust: set factor to 0.424
ElecMinimize: Iter:  22  F: -3084.978499496760833  |grad|_K:  1.868e-08  alpha:  3.369e-01  linmin: -3.585e-06  t[s]: 161561.89
	FillingsUpdate:  mu: +0.703126504  nElectrons: 518.000000
	SubspaceRotationAdjust: set factor to 0.457
ElecMinimize: Iter:  23  F: -3084.978499520228524  |grad|_K:  1.313e-08  alpha:  3.525e-01  linmin:  6.333e-06  t[s]: 162864.07
	FillingsUpdate:  mu: +0.703124717  nElectrons: 518.000000
	SubspaceRotationAdjust: set factor to 0.428
ElecMinimize: Iter:  24  F: -3084.978499531983289  |grad|_K:  9.345e-09  alpha:  3.629e-01  linmin:  1.435e-05  t[s]: 164178.72
	FillingsUpdate:  mu: +0.703125584  nElectrons: 518.000000
	SubspaceRotationAdjust: set factor to 0.374
ElecMinimize: Iter:  25  F: -3084.978499537165135  |grad|_K:  6.963e-09  alpha:  3.087e-01  linmin:  2.262e-05  t[s]: 165477.13
	FillingsUpdate:  mu: +0.703125229  nElectrons: 518.000000
	SubspaceRotationAdjust: set factor to 0.304
ElecMinimize: Iter:  26  F: -3084.978499539091445  |grad|_K:  4.314e-09  alpha:  2.015e-01  linmin: -4.330e-05  t[s]: 166746.29
ElecMinimize: Converged (|Delta F|<1.000000e-08 for 2 iters).
Setting wave functions to eigenvectors of Hamiltonian

# Ionic positions in cartesian coordinates:
ion Pd  -0.230067394412573  -0.230628845170496  -0.230575538859215 1
ion Pd  -0.230623779119429   3.906519926713455   3.905996957280335 1
ion Pd   3.905964506236787  -0.230578960903350   3.906597575392843 1
ion Pd   3.905995274539090   3.905949968928367  -0.230533573759385 1
ion Pd  -0.007951607684949  -0.007819212499167   7.368269185259646 1
ion Pd  -0.007906926052712   3.683566500475659  11.009394030252547 1
ion Pd   3.683622197534332  -0.007905496048744  11.009326042151441 1
ion Pd   3.683543358399118   3.683620940971157   7.368319370394375 1
ion Pd  -0.007892988291383   7.368242470086391  -0.008037749802334 1
ion Pd  -0.007874888947800  11.009354467988858   3.683520835253027 1
ion Pd   3.683614619524378   7.368249134275421   3.683536013143980 1
ion Pd   3.683610042124760  11.009360724714593  -0.007902696689904 1
ion Pd  -0.008625415575688   7.389506123525956   7.389544616017324 1
ion Pd  -0.008581472241084  10.988067368819545  10.988061303146962 1
ion Pd   3.684220611299815   7.389405702298758  10.988072970630189 1
ion Pd   3.684225526379625  10.987985790956460   7.389528643823544 1
ion Pd   7.368128276313961  -0.007895757213812  -0.007905496728354 1
ion Pd   7.368201986306090   3.683536233089602   3.683533869860138 1
ion Pd  11.009467371743744  -0.007820376052626   3.683443953626163 1
ion Pd  11.009406526271997   3.683471656636692  -0.007958319833375 1
ion Pd   7.389542151114314  -0.008619171011096   7.389540006892741 1
ion Pd   7.389435853722564   3.684212517846256  10.988072342685893 1
ion Pd  10.988142746579170  -0.008572554158117  10.988150895044551 1
ion Pd  10.988066840863192   3.684215260277782   7.389446206286028 1
ion Pd   7.389439066307847   7.389433940640033  -0.008655163009448 1
ion Pd   7.389417187852170  10.988093400037904   3.684184612561685 1
ion Pd  10.987971999296965   7.389495670523385   3.684186692543901 1
ion Pd  10.988124221452940  10.988162458481730  -0.008602109651169 1
ion Pd   7.351880166293804   7.351870258787748   7.351867701891285 1
ion Pd   7.351860431689283  11.025812465789175  11.025813154893159 1
ion Pd  11.025799247553573   7.351847144131582  11.025810389712191 1
ion Pd  11.025804204731353  11.025820278877005   7.351828692795042 1
ion O   1.837630558194780   1.837630468183938   1.837715086794229 1

# Forces in Cartesian coordinates:
force Pd  -0.009486086560608  -0.009453991243224  -0.009465761255923 1
force Pd  -0.009369885946554   0.009398532018080   0.009420406215816 1
force Pd   0.009429380679454  -0.009367921207963   0.009391274857995 1
force Pd   0.009463553332863   0.009461646509885  -0.009410486223020 1
force Pd  -0.000025251576394  -0.000023398347514   0.000240017239983 1
force Pd  -0.000033216684060   0.000028999294894  -0.000257898252423 1
force Pd   0.000030386239022  -0.000032676173943  -0.000260290772521 1
force Pd   0.000027284595581   0.000027286889102   0.000221835222810 1
force Pd  -0.000026907775746   0.000237584641742  -0.000027160835529 1
force Pd  -0.000034011747183  -0.000262171174901   0.000031788408721 1
force Pd   0.000027237250437   0.000220576084184   0.000026481351124 1
force Pd   0.000033719145558  -0.000261468595036  -0.000041670129927 1
force Pd  -0.001539995693842   0.003196925872283   0.003201592064701 1
force Pd  -0.001529781236724  -0.003248348183135  -0.003249330460338 1
force Pd   0.001550704836020   0.003200535324190  -0.003244698635656 1
force Pd   0.001548705185850  -0.003251056163694   0.003211890570531 1
force Pd   0.000236932206544  -0.000025022179998  -0.000026781693908 1
force Pd   0.000222393199349   0.000024812314847   0.000027483076756 1
force Pd  -0.000261349876395  -0.000033612190059   0.000030045321789 1
force Pd  -0.000263118392511   0.000032810525922  -0.000041156491449 1
force Pd   0.003202175687601  -0.001535908889184   0.003202412372643 1
force Pd   0.003204703833226   0.001546800196276  -0.003246712713714 1
force Pd  -0.003250887739392  -0.001528943389174  -0.003247119255499 1
force Pd  -0.003252620180561   0.001547866268644   0.003210721237398 1
force Pd   0.003198257366364   0.003194283697781  -0.001539728184474 1
force Pd   0.003208908855930  -0.003248673278312   0.001547575296951 1
force Pd  -0.003255074904531   0.003208083483180   0.001544395265394 1
force Pd  -0.003251583609811  -0.003248485499952  -0.001534397916834 1
force Pd   0.000139200038947   0.000135919088853   0.000139765707582 1
force Pd   0.000132085757308  -0.000131331582890  -0.000130750943825 1
force Pd  -0.000134426974009   0.000128441113485  -0.000131110911697 1
force Pd  -0.000133759979257  -0.000130189153297   0.000131386011653 1
force O   0.000007873212468   0.000007846767985   0.000065738433326 1

# Energy components:
   Eewald =    -2576.1132295800025531
       EH =      567.6044960852406120
     Eloc =    -1185.2100018787905356
      Enl =     -456.0732194538296653
      Exc =     -505.9485538256737414
 Exc_core =      110.3059708642723535
       KE =      960.5313974715813856
-------------------------------------
     Etot =    -3084.9031403172025421
       TS =        0.0753592218889772
-------------------------------------
        F =    -3084.9784995390914446

IonicMinimize: Iter:   4  F: -3084.978499539091445  |grad|_K:  3.687e-03  alpha:  7.842e-01  linmin: -9.949e-01  t[s]: 166869.98

#--- Lowdin population analysis ---
# oxidation-state Pd +0.097 +0.097 +0.097 +0.097 -0.007 -0.007 -0.007 -0.007 -0.007 -0.007 -0.007 -0.007 -0.003 -0.003 -0.003 -0.003 -0.007 -0.007 -0.007 -0.007 -0.003 -0.003 -0.003 -0.003 -0.003 -0.003 -0.003 -0.003 +0.006 +0.006 +0.006 +0.006
# oxidation-state O -0.059


-------- Electronic minimization -----------
	FillingsUpdate:  mu: +0.732765048  nElectrons: 518.000000
ElecMinimize: Iter:   0  F: -3083.622480620173519  |grad|_K:  1.551e-04  alpha:  1.000e+00
	FillingsUpdate:  mu: +0.738639649  nElectrons: 518.000000
	SubspaceRotationAdjust: set factor to 0.187
ElecMinimize: Iter:   1  F: -3084.750338808620199  |grad|_K:  6.276e-05  alpha:  2.568e-01  linmin:  1.063e-02  t[s]: 168818.66
	FillingsUpdate:  mu: +0.703588163  nElectrons: 518.000000
	SubspaceRotationAdjust: set factor to 0.186
ElecMinimize: Iter:   2  F: -3084.889242630188619  |grad|_K:  1.938e-05  alpha:  1.894e-01  linmin:  5.415e-04  t[s]: 170039.49
	FillingsUpdate:  mu: +0.702618516  nElectrons: 518.000000
	SubspaceRotationAdjust: set factor to 0.233
ElecMinimize: Iter:   3  F: -3084.915681064939236  |grad|_K:  1.338e-05  alpha:  3.679e-01  linmin:  1.209e-05  t[s]: 171283.02
	FillingsUpdate:  mu: +0.704135965  nElectrons: 518.000000
	SubspaceRotationAdjust: set factor to 0.284
ElecMinimize: Iter:   4  F: -3084.936460451466701  |grad|_K:  1.421e-05  alpha:  6.039e-01  linmin: -1.567e-05  t[s]: 172561.83
	FillingsUpdate:  mu: +0.702830069  nElectrons: 518.000000
	SubspaceRotationAdjust: set factor to 0.291
ElecMinimize: Iter:   5  F: -3084.955551076020583  |grad|_K:  1.344e-05  alpha:  4.919e-01  linmin: -1.884e-05  t[s]: 173800.05
	FillingsUpdate:  mu: +0.703608174  nElectrons: 518.000000
	SubspaceRotationAdjust: set factor to 0.27
ElecMinimize: Iter:   6  F: -3084.972005415443618  |grad|_K:  1.044e-05  alpha:  4.726e-01  linmin:  8.685e-05  t[s]: 175103.31
	FillingsUpdate:  mu: +0.702803533  nElectrons: 518.000000
	SubspaceRotationAdjust: set factor to 0.254
ElecMinimize: Iter:   7  F: -3084.978622439786704  |grad|_K:  5.720e-06  alpha:  3.192e-01  linmin: -2.183e-06  t[s]: 176371.09
	FillingsUpdate:  mu: +0.702883962  nElectrons: 518.000000
	SubspaceRotationAdjust: set factor to 0.274
ElecMinimize: Iter:   8  F: -3084.980950219023271  |grad|_K:  2.875e-06  alpha:  3.699e-01  linmin:  1.020e-06  t[s]: 177659.72
	FillingsUpdate:  mu: +0.702933088  nElectrons: 518.000000
	SubspaceRotationAdjust: set factor to 0.301
ElecMinimize: Iter:   9  F: -3084.981567712973629  |grad|_K:  1.497e-06  alpha:  3.885e-01  linmin: -2.649e-06  t[s]: 178945.88
	FillingsUpdate:  mu: +0.702893831  nElectrons: 518.000000
	SubspaceRotationAdjust: set factor to 0.368
ElecMinimize: Iter:  10  F: -3084.981719924582649  |grad|_K:  9.877e-07  alpha:  3.533e-01  linmin:  3.258e-06  t[s]: 180260.21
	FillingsUpdate:  mu: +0.702972527  nElectrons: 518.000000
	SubspaceRotationAdjust: set factor to 0.37
ElecMinimize: Iter:  11  F: -3084.981786964408911  |grad|_K:  7.100e-07  alpha:  3.574e-01  linmin:  2.544e-06  t[s]: 181531.54
	FillingsUpdate:  mu: +0.702901802  nElectrons: 518.000000
	SubspaceRotationAdjust: set factor to 0.352
ElecMinimize: Iter:  12  F: -3084.981823081204766  |grad|_K:  6.739e-07  alpha:  3.725e-01  linmin: -6.042e-07  t[s]: 182782.40
	FillingsUpdate:  mu: +0.702968010  nElectrons: 518.000000
	SubspaceRotationAdjust: set factor to 0.308
ElecMinimize: Iter:  13  F: -3084.981849358971886  |grad|_K:  4.502e-07  alpha:  3.009e-01  linmin:  9.235e-07  t[s]: 184037.35
	FillingsUpdate:  mu: +0.702953691  nElectrons: 518.000000
	SubspaceRotationAdjust: set factor to 0.31
ElecMinimize: Iter:  14  F: -3084.981865814780576  |grad|_K:  3.206e-07  alpha:  4.223e-01  linmin: -6.732e-08  t[s]: 185340.77
	FillingsUpdate:  mu: +0.702960007  nElectrons: 518.000000
	SubspaceRotationAdjust: set factor to 0.312
ElecMinimize: Iter:  15  F: -3084.981872663351623  |grad|_K:  2.129e-07  alpha:  3.465e-01  linmin: -3.427e-07  t[s]: 186565.61
	FillingsUpdate:  mu: +0.702957893  nElectrons: 518.000000
	SubspaceRotationAdjust: set factor to 0.291
ElecMinimize: Iter:  16  F: -3084.981875715041042  |grad|_K:  1.291e-07  alpha:  3.503e-01  linmin:  8.351e-07  t[s]: 187803.54
	FillingsUpdate:  mu: +0.702958584  nElectrons: 518.000000
	SubspaceRotationAdjust: set factor to 0.262
ElecMinimize: Iter:  17  F: -3084.981876650636423  |grad|_K:  8.961e-08  alpha:  2.921e-01  linmin:  2.110e-06  t[s]: 189095.47
	FillingsUpdate:  mu: +0.702957926  nElectrons: 518.000000
	SubspaceRotationAdjust: set factor to 0.317
ElecMinimize: Iter:  18  F: -3084.981877154146332  |grad|_K:  5.494e-08  alpha:  3.259e-01  linmin:  1.377e-06  t[s]: 190387.19
	FillingsUpdate:  mu: +0.702954133  nElectrons: 518.000000
	SubspaceRotationAdjust: set factor to 0.403
ElecMinimize: Iter:  19  F: -3084.981877409233675  |grad|_K:  4.317e-08  alpha:  4.398e-01  linmin: -3.274e-06  t[s]: 191635.38
	FillingsUpdate:  mu: +0.702955718  nElectrons: 518.000000
	SubspaceRotationAdjust: set factor to 0.461
ElecMinimize: Iter:  20  F: -3084.981877562380760  |grad|_K:  3.589e-08  alpha:  4.270e-01  linmin:  8.299e-06  t[s]: 192892.79
	FillingsUpdate:  mu: +0.702952811  nElectrons: 518.000000
	SubspaceRotationAdjust: set factor to 0.387
ElecMinimize: Iter:  21  F: -3084.981877636862009  |grad|_K:  3.132e-08  alpha:  3.016e-01  linmin: -1.304e-06  t[s]: 194171.68
	FillingsUpdate:  mu: +0.702953160  nElectrons: 518.000000
	SubspaceRotationAdjust: set factor to 0.276
ElecMinimize: Iter:  22  F: -3084.981877674514635  |grad|_K:  1.895e-08  alpha:  1.996e-01  linmin:  4.519e-07  t[s]: 195441.23
	FillingsUpdate:  mu: +0.702953148  nElectrons: 518.000000
	SubspaceRotationAdjust: set factor to 0.292
ElecMinimize: Iter:  23  F: -3084.981877697597611  |grad|_K:  1.170e-08  alpha:  3.320e-01  linmin: -2.214e-05  t[s]: 196764.23
	FillingsUpdate:  mu: +0.702952739  nElectrons: 518.000000
	SubspaceRotationAdjust: set factor to 0.314
[...]
force Pd  -0.000371513286451   0.000286765825799   0.000283839646546 1
force Pd  -0.000374017029458  -0.000303618026263  -0.000301281346335 1
force Pd   0.000364075794866   0.000285589408675  -0.000302685466383 1
force Pd   0.000364642293940  -0.000300978508719   0.000284904180359 1
force Pd   0.000797021692957  -0.001281503216971   0.000798091739830 1
force Pd   0.000805851696462   0.001282853486034  -0.000836499037313 1
force Pd  -0.000827916698278  -0.001275046815682  -0.000833636669475 1
force Pd  -0.000821311797697   0.001285150871320   0.000798889674124 1
force Pd   0.000811666643138   0.000813070625733  -0.001280687719187 1
force Pd   0.000797753131908  -0.000822588366815   0.001285816764211 1
force Pd  -0.000816875510422   0.000796457260752   0.001283287899497 1
force Pd  -0.000831293295073  -0.000834255916596  -0.001277419015294 1
force Pd  -0.000043397464161  -0.000041157253086  -0.000042332374706 1
force Pd  -0.000051510991925   0.000054983687800   0.000051632530475 1
force Pd   0.000057397451260  -0.000049292439342   0.000051618167843 1
force Pd   0.000056102104183   0.000053730305404  -0.000048859182971 1
force O  -0.000017680468246  -0.000017585503678  -0.000060601098005 1

# Energy components:
   Eewald =    -2575.9273718764416117
       EH =      567.8272555286704346
     Eloc =    -1185.5937424788273802
      Enl =     -456.0697087662290414
      Exc =     -505.9369388909464647
 Exc_core =      110.3059770873123284
       KE =      960.4885331086157976
-------------------------------------
     Etot =    -3084.9059962878459373
       TS =        0.0758814226075724
-------------------------------------
        F =    -3084.9818777104533183

IonicMinimize: Iter:   5  F: -3084.981877710453318  |grad|_K:  7.158e-04  alpha:  1.000e+00  linmin: -8.230e-01  t[s]: 199429.39

#--- Lowdin population analysis ---
# oxidation-state Pd +0.094 +0.094 +0.094 +0.094 -0.006 -0.006 -0.006 -0.006 -0.006 -0.006 -0.006 -0.006 -0.002 -0.002 -0.002 -0.002 -0.006 -0.006 -0.006 -0.006 -0.002 -0.002 -0.002 -0.002 -0.002 -0.002 -0.002 -0.002 +0.006 +0.006 +0.006 +0.006
# oxidation-state O -0.078


-------- Electronic minimization -----------
	FillingsUpdate:  mu: +0.702879533  nElectrons: 518.000000
ElecMinimize: Iter:   0  F: -3084.981890135853064  |grad|_K:  1.169e-06  alpha:  1.000e+00
	FillingsUpdate:  mu: +0.702989112  nElectrons: 518.000000
	SubspaceRotationAdjust: set factor to 0.247
ElecMinimize: Iter:   1  F: -3084.981970821699178  |grad|_K:  7.729e-07  alpha:  3.072e-01  linmin: -1.971e-06  t[s]: 201435.23
	FillingsUpdate:  mu: +0.702888607  nElectrons: 518.000000
	SubspaceRotationAdjust: set factor to 0.225
ElecMinimize: Iter:   2  F: -3084.981999339155209  |grad|_K:  5.124e-07  alpha:  2.482e-01  linmin:  1.623e-05  t[s]: 202724.88
	FillingsUpdate:  mu: +0.702905362  nElectrons: 518.000000
	SubspaceRotationAdjust: set factor to 0.308
ElecMinimize: Iter:   3  F: -3084.982027080827720  |grad|_K:  4.482e-07  alpha:  5.497e-01  linmin: -1.806e-06  t[s]: 204010.52
	FillingsUpdate:  mu: +0.702948009  nElectrons: 518.000000
	SubspaceRotationAdjust: set factor to 0.325
ElecMinimize: Iter:   4  F: -3084.982046197420459  |grad|_K:  4.180e-07  alpha:  4.948e-01  linmin: -1.102e-06  t[s]: 205291.71
	FillingsUpdate:  mu: +0.702903958  nElectrons: 518.000000
	SubspaceRotationAdjust: set factor to 0.254
ElecMinimize: Iter:   5  F: -3084.982056510010807  |grad|_K:  3.004e-07  alpha:  3.067e-01  linmin: -2.147e-06  t[s]: 206616.82
	FillingsUpdate:  mu: +0.702925786  nElectrons: 518.000000
	SubspaceRotationAdjust: set factor to 0.216
ElecMinimize: Iter:   6  F: -3084.982061726136635  |grad|_K:  1.694e-07  alpha:  3.005e-01  linmin: -5.204e-07  t[s]: 207862.92
	FillingsUpdate:  mu: +0.702923916  nElectrons: 518.000000
	SubspaceRotationAdjust: set factor to 0.278
ElecMinimize: Iter:   7  F: -3084.982063480344095  |grad|_K:  8.803e-08  alpha:  3.178e-01  linmin: -7.311e-07  t[s]: 209144.07
	FillingsUpdate:  mu: +0.702916664  nElectrons: 518.000000
	SubspaceRotationAdjust: set factor to 0.235
ElecMinimize: Iter:   8  F: -3084.982064010066551  |grad|_K:  5.903e-08  alpha:  3.555e-01  linmin: -1.015e-05  t[s]: 210433.97
	FillingsUpdate:  mu: +0.702923371  nElectrons: 518.000000
	SubspaceRotationAdjust: set factor to 0.205
ElecMinimize: Iter:   9  F: -3084.982064201667527  |grad|_K:  3.671e-08  alpha:  2.860e-01  linmin:  8.428e-06  t[s]: 211688.93
	FillingsUpdate:  mu: +0.702921450  nElectrons: 518.000000
	SubspaceRotationAdjust: set factor to 0.299
ElecMinimize: Iter:  10  F: -3084.982064324103249  |grad|_K:  2.736e-08  alpha:  4.723e-01  linmin:  1.333e-06  t[s]: 212995.22
	FillingsUpdate:  mu: +0.702919517  nElectrons: 518.000000
	SubspaceRotationAdjust: set factor to 0.314
ElecMinimize: Iter:  11  F: -3084.982064393684595  |grad|_K:  2.381e-08  alpha:  4.827e-01  linmin: -2.951e-06  t[s]: 214294.73
	FillingsUpdate:  mu: +0.702922471  nElectrons: 518.000000
	SubspaceRotationAdjust: set factor to 0.248
ElecMinimize: Iter:  12  F: -3084.982064429572802  |grad|_K:  1.944e-08  alpha:  3.295e-01  linmin:  1.533e-06  t[s]: 215616.27
	FillingsUpdate:  mu: +0.702920436  nElectrons: 518.000000
	SubspaceRotationAdjust: set factor to 0.235
ElecMinimize: Iter:  13  F: -3084.982064455422005  |grad|_K:  1.059e-08  alpha:  3.553e-01  linmin: -5.292e-06  t[s]: 216916.44
	FillingsUpdate:  mu: +0.702920724  nElectrons: 518.000000
	SubspaceRotationAdjust: set factor to 0.274
ElecMinimize: Iter:  14  F: -3084.982064464197720  |grad|_K:  6.038e-09  alpha:  4.082e-01  linmin: -3.394e-06  t[s]: 218208.05
	FillingsUpdate:  mu: +0.702921151  nElectrons: 518.000000
	SubspaceRotationAdjust: set factor to 0.262
ElecMinimize: Iter:  15  F: -3084.982064466493739  |grad|_K:  3.945e-09  alpha:  3.624e-01  linmin:  6.216e-05  t[s]: 219481.48
ElecMinimize: Converged (|Delta F|<1.000000e-08 for 2 iters).
Setting wave functions to eigenvectors of Hamiltonian

# Ionic positions in cartesian coordinates:
ion Pd  -0.272088479611348  -0.272365982558953  -0.272418619433721 1
ion Pd  -0.272180137725248   3.948377322339958   3.948062234622510 1
ion Pd   3.948101838973995  -0.272149152059518   3.948367884690676 1
ion Pd   3.948019535809100   3.947988454376668  -0.272058207379512 1
ion Pd  -0.006317769950710  -0.006213959745635   7.367249086990944 1
ion Pd  -0.006309248770970   3.681988748734847  11.010448427739757 1
ion Pd   3.682025699828229  -0.006322443933944  11.010369668655702 1
ion Pd   3.681968896946087   3.682051633869257   7.367174738076403 1
ion Pd  -0.006283085030050   7.367173739024786  -0.006422215252437 1
ion Pd  -0.006286685350772  11.010344800944294   3.681983117506030 1
ion Pd   3.682018744537639   7.367078638767725   3.681983381852811 1
ion Pd   3.682042452431161  11.010356036196949  -0.006403492803467 1
ion Pd  -0.025243664841927   7.416571643765186   7.416651405304335 1
ion Pd  -0.025084709641783  10.960660326606467  10.960635325128576 1
ion Pd   3.701021645129409   7.416538018648200  10.960648119036188 1
ion Pd   3.701014571023021  10.960595330478125   7.416672974921851 1
ion Pd   7.367054994802825  -0.006286180290854  -0.006314429631722 1
ion Pd   7.367038362114000   3.681950479967390   3.681992207628062 1
ion Pd  11.010463446254821  -0.006261340125537   3.681902998274998 1
ion Pd  11.010395464401284   3.681943848855135  -0.006441024620419 1
ion Pd   7.416628628675730  -0.025216752511100   7.416650525362703 1
ion Pd   7.416578039554170   3.700994476274666  10.960631377962541 1
ion Pd  10.960715006485719  -0.025089106010926  10.960728063109126 1
ion Pd  10.960666788880017   3.701017402292277   7.416597546155239 1
ion Pd   7.416582077781145   7.416562071380441  -0.025258409131020 1
ion Pd   7.416531768579281  10.960711339840968   3.701000823316315 1
ion Pd  10.960576647628796   7.416604323447513   3.700969890435624 1
ion Pd  10.960671242114332  10.960713445786464  -0.025150538393428 1
ion Pd   7.352677900472529   7.352662267551654   7.352689095657039 1
ion Pd   7.352569303028669  11.025244900866292  11.025245254738374 1
ion Pd  11.025226972306509   7.352547494941773  11.025239926966750 1
ion Pd  11.025228391019469  11.025252501608893   7.352560794523741 1
ion O   1.837565862144903   1.837566170670581   1.837602567989474 1

# Forces in Cartesian coordinates:
force Pd   0.000119250976385   0.000130120333067   0.000129321373476 1
force Pd   0.000198292894659  -0.000191445532176  -0.000182496629874 1
force Pd  -0.000180605954522   0.000197913572660  -0.000193841964463 1
force Pd  -0.000140229162123  -0.000139701227008   0.000157421572853 1
force Pd   0.000183528287182   0.000180499652893  -0.000250860865943 1
force Pd   0.000182772688927  -0.000184890973085   0.000232526216563 1
force Pd  -0.000185869417048   0.000183779048171   0.000234060213941 1
force Pd  -0.000182122772132  -0.000185162472547  -0.000249575526517 1
force Pd   0.000180901401243  -0.000249871883995   0.000176351879604 1
force Pd   0.000182700170551   0.000235084045259  -0.000190443334346 1
force Pd  -0.000182038243600  -0.000248963288910  -0.000185802468465 1
force Pd  -0.000187693956090   0.000231096617828   0.000175233250816 1
force Pd  -0.000310420127809   0.000134731395389   0.000137620421209 1
force Pd  -0.000307732758182  -0.000145667346908  -0.000145911667514 1
force Pd   0.000332297701920   0.000126800655075  -0.000153422861478 1
force Pd   0.000330627201728  -0.000154839178701   0.000131150263204 1
force Pd  -0.000245764106116   0.000182006024954   0.000172126366350 1
force Pd  -0.000246429839260  -0.000180792365936  -0.000185473225307 1
force Pd   0.000231247498710   0.000181620570439  -0.000188375525468 1
force Pd   0.000228791805945  -0.000184204792211   0.000177087614526 1
force Pd   0.000134615547377  -0.000309060647210   0.000137418278428 1
force Pd   0.000126565101849   0.000331096799483  -0.000153371275210 1
force Pd  -0.000149147357777  -0.000306693243689  -0.000149124633929 1
force Pd  -0.000158205433924   0.000329811168457   0.000134459433937 1
force Pd   0.000127758668631   0.000127387160311  -0.000314585864664 1
force Pd   0.000139519377760  -0.000164748035321   0.000328169001627 1
force Pd  -0.000161067840089   0.000135797941131   0.000327882766542 1
force Pd  -0.000143661587667  -0.000143947683570  -0.000311360087815 1
force Pd  -0.000177033661394  -0.000177557108762  -0.000177285409256 1
force Pd  -0.000183839496826   0.000172403095480   0.000169290006690 1
force Pd   0.000172159761415  -0.000183918888143   0.000169665820491 1
force Pd   0.000170062878892   0.000169865116535  -0.000181185771133 1
force O   0.000008809875031   0.000008864668559   0.000052640113737 1

# Energy components:
   Eewald =    -2575.8368418173331520
       EH =      567.9210405665604640
     Eloc =    -1185.7744195062666677
      Enl =     -456.0694071622699539
      Exc =     -505.9354508037038727
 Exc_core =      110.3059781546592717
       KE =      960.4829372088951231
-------------------------------------
     Etot =    -3084.9061633594587875
       TS =        0.0759011070349577
-------------------------------------
        F =    -3084.9820644664937390

IonicMinimize: Iter:   6  F: -3084.982064466493739  |grad|_K:  1.989e-04  alpha:  1.000e+00  linmin: -5.565e-01  t[s]: 219604.64

#--- Lowdin population analysis ---
# oxidation-state Pd +0.094 +0.094 +0.094 +0.094 -0.006 -0.006 -0.006 -0.006 -0.006 -0.006 -0.006 -0.006 -0.002 -0.002 -0.002 -0.002 -0.006 -0.006 -0.006 -0.006 -0.002 -0.002 -0.002 -0.002 -0.002 -0.002 -0.002 -0.002 +0.006 +0.006 +0.006 +0.006
# oxidation-state O -0.081


-------- Electronic minimization -----------
	FillingsUpdate:  mu: +0.702911312  nElectrons: 518.000000
ElecMinimize: Iter:   0  F: -3084.982062684773609  |grad|_K:  3.328e-07  alpha:  1.000e+00
	FillingsUpdate:  mu: +0.702921008  nElectrons: 518.000000
	SubspaceRotationAdjust: set factor to 0.31
ElecMinimize: Iter:   1  F: -3084.982070326947451  |grad|_K:  1.724e-07  alpha:  3.588e-01  linmin:  9.605e-07  t[s]: 221645.13
	FillingsUpdate:  mu: +0.702907714  nElectrons: 518.000000
	SubspaceRotationAdjust: set factor to 0.305
ElecMinimize: Iter:   2  F: -3084.982073095573014  |grad|_K:  1.677e-07  alpha:  4.843e-01  linmin:  4.889e-06  t[s]: 222941.93
	FillingsUpdate:  mu: +0.702927331  nElectrons: 518.000000
	SubspaceRotationAdjust: set factor to 0.293
ElecMinimize: Iter:   3  F: -3084.982075617763712  |grad|_K:  1.633e-07  alpha:  4.664e-01  linmin: -4.013e-06  t[s]: 224223.07
	FillingsUpdate:  mu: +0.702910354  nElectrons: 518.000000
	SubspaceRotationAdjust: set factor to 0.243
ElecMinimize: Iter:   4  F: -3084.982077632109394  |grad|_K:  1.257e-07  alpha:  3.925e-01  linmin:  2.355e-06  t[s]: 225473.94
	FillingsUpdate:  mu: +0.702917273  nElectrons: 518.000000
	SubspaceRotationAdjust: set factor to 0.229
ElecMinimize: Iter:   5  F: -3084.982078731859929  |grad|_K:  7.087e-08  alpha:  3.617e-01  linmin: -6.737e-07  t[s]: 226775.29
	FillingsUpdate:  mu: +0.702917277  nElectrons: 518.000000
	SubspaceRotationAdjust: set factor to 0.229
ElecMinimize: Iter:   6  F: -3084.982079083677036  |grad|_K:  3.217e-08  alpha:  3.645e-01  linmin: -7.693e-07  t[s]: 228042.58
	FillingsUpdate:  mu: +0.702915135  nElectrons: 518.000000
	SubspaceRotationAdjust: set factor to 0.198
ElecMinimize: Iter:   7  F: -3084.982079160819467  |grad|_K:  1.955e-08  alpha:  3.861e-01  linmin: -1.059e-06  t[s]: 229322.69
	FillingsUpdate:  mu: +0.702916805  nElectrons: 518.000000
	SubspaceRotationAdjust: set factor to 0.179
ElecMinimize: Iter:   8  F: -3084.982079183200312  |grad|_K:  1.080e-08  alpha:  3.054e-01  linmin: -3.284e-05  t[s]: 230650.74
	FillingsUpdate:  mu: +0.702916327  nElectrons: 518.000000
	SubspaceRotationAdjust: set factor to 0.249
ElecMinimize: Iter:   9  F: -3084.982079193079699  |grad|_K:  7.296e-09  alpha:  4.412e-01  linmin:  2.405e-05  t[s]: 231943.29
	FillingsUpdate:  mu: +0.702915994  nElectrons: 518.000000
	SubspaceRotationAdjust: set factor to 0.318
ElecMinimize: Iter:  10  F: -3084.982079198227439  |grad|_K:  6.251e-09  alpha:  5.345e-01  linmin:  1.998e-05  t[s]: 233200.92
ElecMinimize: Converged (|Delta F|<1.000000e-08 for 2 iters).
Setting wave functions to eigenvectors of Hamiltonian

# Ionic positions in cartesian coordinates:
ion Pd  -0.272576242827767  -0.272763064633823  -0.272799378867554 1
ion Pd  -0.271981761286464   3.948274577093081   3.948055599122424 1
ion Pd   3.948089059422311  -0.271952204141585   3.948268452515640 1
ion Pd   3.948368052894358   3.948339969035616  -0.272201278162318 1
ion Pd  -0.004877713418760  -0.004796295156836   7.365388082952084 1
ion Pd  -0.004876105037281   3.680588169772163  11.012238042870305 1
ion Pd   3.680618602870507  -0.004879483830121  11.012171714899278 1
ion Pd   3.680590678795464   3.680647899846631   7.365326007661324 1
ion Pd  -0.004864190486753   7.365302435491404  -0.005023190333054 1
ion Pd  -0.004853545477266  11.012137736066201   3.680553753078799 1
ion Pd   3.680642993185355   7.365215248312221   3.680592700347412 1
ion Pd   3.680619100811295  11.012115004960375  -0.005011254994381 1
ion Pd  -0.027475071223006   7.417623829287590   7.417748258227808 1
ion Pd  -0.027296116649962  10.959568758586869  10.959562861477385 1
ion Pd   3.703484762052993   7.417518926613493  10.959513523715236 1
ion Pd   3.703463483731879  10.959423065523801   7.417715887492569 1
ion Pd   7.365217918269670  -0.004857083885829  -0.004948964024104 1
ion Pd   7.365196397868937   3.680583517300577   3.680604044048732 1
ion Pd  11.012224118260773  -0.004835042743574   3.680490323506883 1
ion Pd  11.012134645253447   3.680546762226050  -0.005034275289058 1
ion Pd   7.417680604296393  -0.027436138481679   7.417745660429668 1
ion Pd   7.417557930978138   3.703447184038303  10.959497480208251 1
ion Pd  10.959594552596881  -0.027290325808631  10.959629613734592 1
ion Pd  10.959466352326515   3.703458345697333   7.417667112285336 1
ion Pd   7.417569849372700   7.417546221169041  -0.027505875667700 1
ion Pd   7.417625128577023  10.959455886503301   3.703446944415586 1
ion Pd  10.959349842029635   7.417666808151343   3.703414422898668 1
ion Pd  10.959598710493106  10.959639870717073  -0.027371414006302 1
ion Pd   7.351209206133654   7.351188337322140   7.351237506887103 1
ion Pd   7.351045262038049  11.026715715815001  11.026710245831431 1
ion Pd  11.026694581285275   7.351022002113463  11.026708115981650 1
ion Pd  11.026678617786697  11.026702174814561   7.351077986381905 1
ion O   1.837670795076232   1.837671692224489   1.838121790374447 1

# Forces in Cartesian coordinates:
force Pd   0.000132241722985   0.000141499938644   0.000123776169445 1
force Pd   0.000013351259817  -0.000014918677092  -0.000024971571630 1
force Pd  -0.000005732587600   0.000014155338341  -0.000033308556378 1
force Pd  -0.000104197517966  -0.000104898398542   0.000095516659437 1
force Pd   0.000079880199861   0.000078625232515  -0.000067281833620 1
force Pd   0.000086825161332  -0.000085137763170   0.000067619026116 1
force Pd  -0.000084987410567   0.000088497580664   0.000069278248060 1
force Pd  -0.000077354068280  -0.000080455977236  -0.000065917986980 1
force Pd   0.000079310075444  -0.000078962535037   0.000075308787721 1
force Pd   0.000085114214938   0.000057928210499  -0.000088714689236 1
force Pd  -0.000082700601419  -0.000072257562529  -0.000086825017439 1
force Pd  -0.000080599092233   0.000060715557420   0.000076350381271 1
force Pd  -0.000007918409090  -0.000036434928617  -0.000032604004753 1
force Pd  -0.000005795699656  -0.000000477177550   0.000001298253063 1
force Pd   0.000020941866342  -0.000028059549965   0.000009630623559 1
force Pd   0.000023326312858   0.000026051757088  -0.000041863838812 1
force Pd  -0.000074926943794   0.000080680365493   0.000072574458240 1
force Pd  -0.000069878717095  -0.000082337881946  -0.000087001410507 1
force Pd   0.000054102450330   0.000085575875079  -0.000086832331074 1
force Pd   0.000058506254444  -0.000079299175006   0.000077398664512 1
force Pd  -0.000036996124910  -0.000007429818528  -0.000033438055431 1
force Pd  -0.000028450983060   0.000020545485473   0.000010631290996 1
force Pd  -0.000002492532474  -0.000004554480866  -0.000000526950625 1
force Pd   0.000023894351415   0.000022190961317  -0.000040197848785 1
force Pd  -0.000009824205387  -0.000010463021037  -0.000015538169907 1
force Pd  -0.000051057979484   0.000032344658840   0.000012635354019 1
force Pd   0.000034737142212  -0.000054184305133   0.000013349822467 1
force Pd  -0.000011604227027  -0.000011447858341  -0.000015913213212 1
force Pd  -0.000066534357322  -0.000067473894870  -0.000059515306697 1
force Pd  -0.000062095895536   0.000056536743488   0.000062723942509 1
force Pd   0.000055698699073  -0.000062617218811   0.000063231798501 1
force Pd   0.000058382002668   0.000058728202871  -0.000056634188627 1
force O  -0.000025500364948  -0.000025378024829  -0.000173249799456 1

# Energy components:
   Eewald =    -2575.8501404954949976
       EH =      567.9070365009852139
     Eloc =    -1185.7469240883440307
      Enl =     -456.0694655034366747
      Exc =     -505.9352659651016779
 Exc_core =      110.3059781195978246
       KE =      960.4825810112597537
-------------------------------------
     Etot =    -3084.9062004205343328
       TS =        0.0758787776929383
-------------------------------------
        F =    -3084.9820791982274386

IonicMinimize: Iter:   7  F: -3084.982079198227439  |grad|_K:  6.346e-05  alpha:  1.000e+00  linmin: -5.253e-01  t[s]: 233322.60
IonicMinimize: Converged (|grad|_K<1.000000e-04).

#--- Lowdin population analysis ---
# oxidation-state Pd +0.093 +0.094 +0.094 +0.094 -0.006 -0.006 -0.006 -0.006 -0.006 -0.006 -0.006 -0.006 -0.002 -0.002 -0.002 -0.002 -0.006 -0.006 -0.006 -0.006 -0.002 -0.002 -0.002 -0.002 -0.002 -0.002 -0.002 -0.002 +0.006 +0.006 +0.006 +0.006
# oxidation-state O -0.081


Dumping 'Pd32O_tet.Ecomponents' ... done
End date and time: Wed Jan 31 04:32:03 2024  (Duration: 2-16:50:41.11)
Done!
