--------------------------------------------------------------------------
Initialization of PSM library failed.

  Error: PSM is in the finalized state
--------------------------------------------------------------------------

*************** JDFTx 1.7.0  ***************

Start date and time: Sun Jan 28 11:32:16 2024
Executable jdftx with command-line: -i /home/cam559/Valla_project/Au/Au32O_oct.in
Running on hosts (process indices):  node3003.physics.cornell.edu (0-31)
Divided in process groups (process indices):  0 (0)  1 (1)  2 (2)  3 (3)  4 (4)  5 (5)  6 (6)  7 (7)  8 (8)  9 (9)  10 (10)  11 (11)  12 (12)  13 (13)  14 (14)  15 (15)  16 (16)  17 (17)  18 (18)  19 (19)  20 (20)  21 (21)  22 (22)  23 (23)  24 (24)  25 (25)  26 (26)  27 (27)  28 (28)  29 (29)  30 (30)  31 (31)
Resource initialization completed at t[s]:      0.00
Run totals: 32 processes, 32 threads, 0 GPUs


Input parsed successfully to the following command list (including defaults):

basis kpoint-dependent
coords-type Cartesian
core-overlap-check vector
coulomb-interaction Periodic
davidson-band-ratio 1.1
dump End Ecomponents
dump-name Au32O_oct.$VAR
elec-cutoff 20 100
elec-eigen-algo Davidson
elec-ex-corr gga-PBE
elec-smearing Fermi 0.004
electronic-minimize  \
	dirUpdateScheme      FletcherReeves \
	linminMethod         DirUpdateRecommended \
	nIterations          100 \
	history              15 \
	knormThreshold       0 \
	energyDiffThreshold  1e-08 \
	nEnergyDiff          2 \
	alphaTstart          1 \
	alphaTmin            1e-10 \
	updateTestStepSize   yes \
	alphaTreduceFactor   0.1 \
	alphaTincreaseFactor 3 \
	nAlphaAdjustMax      3 \
	wolfeEnergy          0.0001 \
	wolfeGradient        0.9 \
	fdTest               no
exchange-regularization WignerSeitzTruncated
fluid None
fluid-ex-corr lda-TF lda-PZ
fluid-gummel-loop 10 1.000000e-05
fluid-minimize  \
	dirUpdateScheme      PolakRibiere \
	linminMethod         DirUpdateRecommended \
	nIterations          100 \
	history              15 \
	knormThreshold       0 \
	energyDiffThreshold  0 \
	nEnergyDiff          2 \
	alphaTstart          1 \
	alphaTmin            1e-10 \
	updateTestStepSize   yes \
	alphaTreduceFactor   0.1 \
	alphaTincreaseFactor 3 \
	nAlphaAdjustMax      3 \
	wolfeEnergy          0.0001 \
	wolfeGradient        0.9 \
	fdTest               no
fluid-solvent H2O 55.338 ScalarEOS \
	epsBulk 78.4 \
	pMol 0.92466 \
	epsInf 1.77 \
	Pvap 1.06736e-10 \
	sigmaBulk 4.62e-05 \
	Rvdw 2.61727 \
	Res 1.42 \
	tauNuc 343133 \
	poleEl 15 7 1
forces-output-coords Positions
initial-state Au32O_oct.$VAR
ion Au   0.010000000000000   0.000000000000000   0.000000000000000 1
ion Au   0.000000000000000   3.865041000000000   3.855041000000000 1
ion Au   3.855041000000000   0.000000000000000   3.845041000000000 1
ion Au   3.855041000000000   3.855041000000000   0.000000000000000 1
ion Au   0.000000000000000   0.000000000000000   7.710082999999999 1
ion Au   0.000000000000000   3.855041000000000  11.565124000000001 1
ion Au   3.855041000000000   0.000000000000000  11.565124000000001 1
ion Au   3.855041000000000   3.855041000000000   7.710082999999999 1
ion Au   0.000000000000000   7.710082999999999   0.000000000000000 1
ion Au   0.000000000000000  11.565124000000001   3.855041000000000 1
ion Au   3.855041000000000   7.710082999999999   3.855041000000000 1
ion Au   3.855041000000000  11.565124000000001   0.000000000000000 1
ion Au   0.000000000000000   7.710082999999999   7.710082999999999 1
ion Au   0.000000000000000  11.565124000000001  11.565124000000001 1
ion Au   3.855041000000000   7.710082999999999  11.565124000000001 1
ion Au   3.855041000000000  11.565124000000001   7.710082999999999 1
ion Au   7.710082999999999   0.000000000000000   0.000000000000000 1
ion Au   7.710082999999999   3.855041000000000   3.855041000000000 1
ion Au  11.565124000000001   0.000000000000000   3.855041000000000 1
ion Au  11.565124000000001   3.855041000000000   0.000000000000000 1
ion Au   7.710082999999999   0.000000000000000   7.710082999999999 1
ion Au   7.710082999999999   3.855041000000000  11.565124000000001 1
ion Au  11.565124000000001   0.000000000000000  11.565124000000001 1
ion Au  11.565124000000001   3.855041000000000   7.710082999999999 1
ion Au   7.710082999999999   7.710082999999999   0.000000000000000 1
ion Au   7.710082999999999  11.565124000000001   3.855041000000000 1
ion Au  11.565124000000001   7.710082999999999   3.855041000000000 1
ion Au  11.565124000000001  11.565124000000001   0.000000000000000 1
ion Au   7.710082999999999   7.710082999999999   7.710082999999999 1
ion Au   7.710082999999999  11.565124000000001  11.565124000000001 1
ion Au  11.565124000000001   7.710082999999999  11.565124000000001 1
ion Au  11.565124000000001  11.565124000000001   7.710082999999999 1
ion O   3.873939000000000   3.873939000000000   3.873939000000000 1
ion-species GBRV/$ID_pbe.uspp
ion-width 0
ionic-minimize  \
	dirUpdateScheme      L-BFGS \
	linminMethod         DirUpdateRecommended \
	nIterations          30 \
	history              15 \
	knormThreshold       0.0001 \
	energyDiffThreshold  1e-06 \
	nEnergyDiff          2 \
	alphaTstart          1 \
	alphaTmin            1e-10 \
	updateTestStepSize   yes \
	alphaTreduceFactor   0.1 \
	alphaTincreaseFactor 3 \
	nAlphaAdjustMax      3 \
	wolfeEnergy          0.0001 \
	wolfeGradient        0.9 \
	fdTest               no
kpoint   0.000000000000   0.000000000000   0.000000000000  1.00000000000000
kpoint-folding 4 4 4 
latt-move-scale 1 1 1
latt-scale 1 1 1 
lattice  \
	  15.420165000000001    0.000000000000000    0.000000000000000  \
	   0.000000000000000   15.420165000000001    0.000000000000000  \
	   0.000000000000000    0.000000000000000   15.420165000000001 
lattice-minimize  \
	dirUpdateScheme      L-BFGS \
	linminMethod         DirUpdateRecommended \
	nIterations          0 \
	history              15 \
	knormThreshold       0 \
	energyDiffThreshold  1e-06 \
	nEnergyDiff          2 \
	alphaTstart          1 \
	alphaTmin            1e-10 \
	updateTestStepSize   yes \
	alphaTreduceFactor   0.1 \
	alphaTincreaseFactor 3 \
	nAlphaAdjustMax      3 \
	wolfeEnergy          0.0001 \
	wolfeGradient        0.9 \
	fdTest               no
lcao-params -1 1e-06 0.004
pcm-variant GLSSA13
spintype no-spin
subspace-rotation-factor 1 yes
symmetries automatic
symmetry-threshold 0.0001



---------- Setting up symmetries ----------

Found 48 point-group symmetries of the bravais lattice
Found 1 space-group symmetries with basis
Applied RMS atom displacement 0 bohrs to make symmetries exact.

---------- Initializing the Grid ----------
R = 
[      15.4202            0            0  ]
[            0      15.4202            0  ]
[            0            0      15.4202  ]
unit cell volume = 3666.63
G =
[   0.407466          0          0  ]
[          0   0.407466          0  ]
[          0          0   0.407466  ]
Minimum fftbox size, Smin = [  72  72  72  ]
Chosen fftbox size, S = [  72  72  72  ]

---------- Initializing tighter grid for wavefunction operations ----------
R = 
[      15.4202            0            0  ]
[            0      15.4202            0  ]
[            0            0      15.4202  ]
unit cell volume = 3666.63
G =
[   0.407466          0          0  ]
[          0   0.407466          0  ]
[          0          0   0.407466  ]
Minimum fftbox size, Smin = [  64  64  64  ]
Chosen fftbox size, S = [  64  64  64  ]

---------- Exchange Correlation functional ----------
Initalized PBE GGA exchange.
Initalized PBE GGA correlation.

---------- Setting up pseudopotentials ----------
Width of ionic core gaussian charges (only for fluid interactions / plotting) set to 0

Reading pseudopotential file '/home/cam559/JDFTx/build/pseudopotentials/GBRV/au_pbe.uspp':
  Title: Au.  Created by USPP 7.3.6 on 14-9-2013
  Reference state energy: -57.375295.  11 valence electrons in orbitals:
    |520>  occupation: 10  eigenvalue: -0.252742
    |600>  occupation: 1  eigenvalue: -0.211744
    |610>  occupation: 0  eigenvalue: -0.028291
  lMax: 3  lLocal: -1  QijEcut: 5
  7 projectors sampled on a log grid with 755 points:
    l: 0  eig: -0.211744  rCut: 2.3
    l: 0  eig: 0.500000  rCut: 2.3
    l: 1  eig: -0.028291  rCut: 2.35
    l: 1  eig: 0.850000  rCut: 2.35
    l: 2  eig: -0.252741  rCut: 2.1
    l: 2  eig: 1.000000  rCut: 2.1
    l: 3  eig: 0.000000  rCut: 2.5
  Partial core density with radius 1
  Transforming core density to a uniform radial grid of dG=0.02 with 1276 points.
  Transforming local potential to a uniform radial grid of dG=0.02 with 1276 points.
  Transforming nonlocal projectors to a uniform radial grid of dG=0.02 with 432 points.
  Transforming density augmentations to a uniform radial grid of dG=0.02 with 1276 points.
  Transforming atomic orbitals to a uniform radial grid of dG=0.02 with 432 points.
  Core radius for overlap checks: 2.50 bohrs.

Reading pseudopotential file '/home/cam559/JDFTx/build/pseudopotentials/GBRV/o_pbe.uspp':
  Title: O.  Created by USPP 7.3.6 on 3-2-2014
  Reference state energy: -15.894388.  6 valence electrons in orbitals:
    |200>  occupation: 2  eigenvalue: -0.878823
    |210>  occupation: 4  eigenvalue: -0.332131
  lMax: 2  lLocal: 2  QijEcut: 6
  5 projectors sampled on a log grid with 511 points:
    l: 0  eig: -0.878823  rCut: 1.25
    l: 0  eig: 0.000000  rCut: 1.25
    l: 1  eig: -0.332132  rCut: 1.25
    l: 1  eig: 0.000000  rCut: 1.25
    l: 2  eig: 1.000000  rCut: 1.25
  Partial core density with radius 0.7
  Transforming core density to a uniform radial grid of dG=0.02 with 1276 points.
  Transforming local potential to a uniform radial grid of dG=0.02 with 1276 points.
  Transforming nonlocal projectors to a uniform radial grid of dG=0.02 with 432 points.
  Transforming density augmentations to a uniform radial grid of dG=0.02 with 1276 points.
  Transforming atomic orbitals to a uniform radial grid of dG=0.02 with 432 points.
  Core radius for overlap checks: 1.25 bohrs.

Initialized 2 species with 33 total atoms.

Folded 1 k-points by 4x4x4 to 64 k-points.

---------- Setting up k-points, bands, fillings ----------
Adding inversion symmetry to k-mesh for non-inversion-symmetric unit cell.
Reduced to 36 k-points under symmetry. 
Computing the number of bands and number of electrons
Calculating initial fillings.
nElectrons: 358.000000   nBands: 292   nStates: 36

----- Setting up reduced wavefunction bases (one per k-point) -----
average nbasis = 15663.641 , ideal nbasis = 15664.122

---------- Setting up ewald sum ----------
Optimum gaussian width for ewald sums = 3.434895 bohr.
Real space sum over 729 unit cells with max indices [  4  4  4  ]
Reciprocal space sum over 4913 terms with max indices [  8  8  8  ]

---------- Allocating electronic variables ----------
Initializing wave functions:  linear combination of atomic orbitals
Au pseudo-atom occupations:   s ( 1 )  p ( 0 )  d ( 10 )
O pseudo-atom occupations:   s ( 2 )  p ( 4 )
	FillingsUpdate:  mu: +0.594271913  nElectrons: 358.000000
LCAOMinimize: Iter:   0  F: -1124.5253500648391309  |grad|_K:  7.881e-04  alpha:  1.000e+00
	FillingsUpdate:  mu: +0.582757780  nElectrons: 358.000000
LCAOMinimize: Iter:   1  F: -1124.7171687595493950  |grad|_K:  4.145e-04  alpha:  1.405e-01  linmin: -2.286e-01  cgtest:  5.014e-01  t[s]:    540.59
	FillingsUpdate:  mu: +0.586849747  nElectrons: 358.000000
LCAOMinimize: Iter:   2  F: -1124.7922982009529278  |grad|_K:  2.354e-04  alpha:  2.668e-01  linmin: -5.476e-02  cgtest:  9.762e-02  t[s]:    686.54
	FillingsUpdate:  mu: +0.585190144  nElectrons: 358.000000
LCAOMinimize: Iter:   3  F: -1124.8104732503613832  |grad|_K:  1.584e-04  alpha:  1.977e-01  linmin: -5.861e-04  cgtest: -6.117e-02  t[s]:    832.26
	FillingsUpdate:  mu: +0.589295895  nElectrons: 358.000000
LCAOMinimize: Iter:   4  F: -1124.8196795696346726  |grad|_K:  3.896e-05  alpha:  2.361e-01  linmin: -2.368e-02  cgtest:  1.106e-01  t[s]:    977.86
	FillingsUpdate:  mu: +0.589234900  nElectrons: 358.000000
LCAOMinimize: Iter:   5  F: -1124.8202610670880404  |grad|_K:  7.716e-06  alpha:  2.455e-01  linmin:  3.053e-05  cgtest: -4.544e-02  t[s]:   1123.55
	FillingsUpdate:  mu: +0.589216352  nElectrons: 358.000000
LCAOMinimize: Iter:   6  F: -1124.8202812820516101  |grad|_K:  4.921e-06  alpha:  2.197e-01  linmin:  7.748e-05  cgtest: -3.910e-04  t[s]:   1269.17
	FillingsUpdate:  mu: +0.589310703  nElectrons: 358.000000
LCAOMinimize: Iter:   7  F: -1124.8202887839622690  |grad|_K:  2.494e-06  alpha:  2.005e-01  linmin: -5.227e-04  cgtest:  8.702e-04  t[s]:   1415.00
	FillingsUpdate:  mu: +0.589297548  nElectrons: 358.000000
LCAOMinimize: Iter:   8  F: -1124.8202923151902723  |grad|_K:  6.363e-07  alpha:  3.671e-01  linmin: -4.748e-04  cgtest: -2.537e-03  t[s]:   1560.64
	FillingsUpdate:  mu: +0.589294445  nElectrons: 358.000000
LCAOMinimize: Iter:   9  F: -1124.8202925378750479  |grad|_K:  4.464e-07  alpha:  3.558e-01  linmin: -3.547e-05  cgtest: -4.524e-04  t[s]:   1708.68
	FillingsUpdate:  mu: +0.589298246  nElectrons: 358.000000
LCAOMinimize: Iter:  10  F: -1124.8202925941170633  |grad|_K:  2.316e-07  alpha:  1.827e-01  linmin: -7.096e-05  cgtest:  2.598e-04  t[s]:   1858.32
LCAOMinimize: Converged (|Delta F|<1.000000e-06 for 2 iters).


---- Citations for features of the code used in this run ----

   Software package:
      R. Sundararaman, K. Letchworth-Weaver, K.A. Schwarz, D. Gunceler, Y. Ozhabes and T.A. Arias, 'JDFTx: software for joint density-functional theory', SoftwareX 6, 278 (2017)

   gga-PBE exchange-correlation functional:
      J.P. Perdew, K. Burke and M. Ernzerhof, Phys. Rev. Lett. 77, 3865 (1996)

   Pseudopotentials:
      KF Garrity, JW Bennett, KM Rabe and D Vanderbilt, Comput. Mater. Sci. 81, 446 (2014)

   Total energy minimization with Auxiliary Hamiltonian:
      C. Freysoldt, S. Boeck, and J. Neugebauer, Phys. Rev. B 79, 241103(R) (2009)

This list may not be complete. Please suggest additional citations or
report any other bugs at https://github.com/shankar1729/jdftx/issues

Initialization completed successfully at t[s]:   2019.35


-------- Electronic minimization -----------
	FillingsUpdate:  mu: +0.589298246  nElectrons: 358.000000
ElecMinimize: Iter:   0  F: -1124.820292594116836  |grad|_K:  5.470e-05  alpha:  1.000e+00
	FillingsUpdate:  mu: +0.592434835  nElectrons: 358.000000
	SubspaceRotationAdjust: set factor to 1
ElecMinimize: Iter:   1  F: -1125.075557098867193  |grad|_K:  3.123e-05  alpha:  5.139e-01  linmin:  9.092e-05  t[s]:   3039.01
	FillingsUpdate:  mu: +0.585892875  nElectrons: 358.000000
	SubspaceRotationAdjust: set factor to 0.983
ElecMinimize: Iter:   2  F: -1125.127416652594093  |grad|_K:  1.486e-05  alpha:  3.197e-01  linmin: -5.543e-06  t[s]:   3736.16
	FillingsUpdate:  mu: +0.584548345  nElectrons: 358.000000
	SubspaceRotationAdjust: set factor to 0.63
ElecMinimize: Iter:   3  F: -1125.145021621398200  |grad|_K:  1.649e-05  alpha:  4.851e-01  linmin:  1.703e-04  t[s]:   4433.19
	FillingsUpdate:  mu: +0.586061300  nElectrons: 358.000000
	SubspaceRotationAdjust: set factor to 0.517
ElecMinimize: Iter:   4  F: -1125.151646079508055  |grad|_K:  6.761e-06  alpha:  1.526e-01  linmin: -1.028e-06  t[s]:   5131.02
	FillingsUpdate:  mu: +0.586397771  nElectrons: 358.000000
	SubspaceRotationAdjust: set factor to 0.587
ElecMinimize: Iter:   5  F: -1125.154962135334699  |grad|_K:  4.632e-06  alpha:  4.403e-01  linmin:  8.319e-05  t[s]:   5829.27
	FillingsUpdate:  mu: +0.585538101  nElectrons: 358.000000
	SubspaceRotationAdjust: set factor to 0.445
ElecMinimize: Iter:   6  F: -1125.156009644877031  |grad|_K:  3.182e-06  alpha:  2.971e-01  linmin:  1.503e-06  t[s]:   6527.39
	FillingsUpdate:  mu: +0.585843334  nElectrons: 358.000000
	SubspaceRotationAdjust: set factor to 0.476
ElecMinimize: Iter:   7  F: -1125.156573764079212  |grad|_K:  1.682e-06  alpha:  3.354e-01  linmin:  4.671e-06  t[s]:   7225.40
	FillingsUpdate:  mu: +0.586069097  nElectrons: 358.000000
	SubspaceRotationAdjust: set factor to 0.461
ElecMinimize: Iter:   8  F: -1125.156753736354631  |grad|_K:  1.241e-06  alpha:  3.833e-01  linmin:  1.311e-06  t[s]:   7909.80
	FillingsUpdate:  mu: +0.585885492  nElectrons: 358.000000
	SubspaceRotationAdjust: set factor to 0.42
ElecMinimize: Iter:   9  F: -1125.156871244280637  |grad|_K:  9.615e-07  alpha:  4.594e-01  linmin:  3.394e-06  t[s]:   8590.83
	FillingsUpdate:  mu: +0.585900795  nElectrons: 358.000000
	SubspaceRotationAdjust: set factor to 0.464
ElecMinimize: Iter:  10  F: -1125.156918555027460  |grad|_K:  5.386e-07  alpha:  3.083e-01  linmin:  2.306e-06  t[s]:   9271.66
	FillingsUpdate:  mu: +0.585938588  nElectrons: 358.000000
	SubspaceRotationAdjust: set factor to 0.506
ElecMinimize: Iter:  11  F: -1125.156943916636465  |grad|_K:  4.115e-07  alpha:  5.266e-01  linmin:  8.208e-07  t[s]:   9952.37
	FillingsUpdate:  mu: +0.585885751  nElectrons: 358.000000
	SubspaceRotationAdjust: set factor to 0.473
ElecMinimize: Iter:  12  F: -1125.156952212655824  |grad|_K:  2.451e-07  alpha:  2.949e-01  linmin: -6.687e-07  t[s]:  10633.24
	FillingsUpdate:  mu: +0.585892498  nElectrons: 358.000000
	SubspaceRotationAdjust: set factor to 0.527
ElecMinimize: Iter:  13  F: -1125.156956248570850  |grad|_K:  1.531e-07  alpha:  4.041e-01  linmin: -1.632e-06  t[s]:  11314.31
	FillingsUpdate:  mu: +0.585907588  nElectrons: 358.000000
	SubspaceRotationAdjust: set factor to 0.574
ElecMinimize: Iter:  14  F: -1125.156957730780050  |grad|_K:  1.023e-07  alpha:  3.802e-01  linmin: -6.659e-07  t[s]:  11995.32
	FillingsUpdate:  mu: +0.585894283  nElectrons: 358.000000
	SubspaceRotationAdjust: set factor to 0.511
ElecMinimize: Iter:  15  F: -1125.156958324794005  |grad|_K:  6.647e-08  alpha:  3.411e-01  linmin: -2.321e-07  t[s]:  12676.40
	FillingsUpdate:  mu: +0.585896221  nElectrons: 358.000000
	SubspaceRotationAdjust: set factor to 0.428
ElecMinimize: Iter:  16  F: -1125.156958568281880  |grad|_K:  4.470e-08  alpha:  3.316e-01  linmin: -8.257e-08  t[s]:  13357.31
	FillingsUpdate:  mu: +0.585898155  nElectrons: 358.000000
	SubspaceRotationAdjust: set factor to 0.527
ElecMinimize: Iter:  17  F: -1125.156958714024540  |grad|_K:  2.478e-08  alpha:  4.388e-01  linmin:  4.574e-08  t[s]:  14038.24
	FillingsUpdate:  mu: +0.585896150  nElectrons: 358.000000
	SubspaceRotationAdjust: set factor to 0.455
ElecMinimize: Iter:  18  F: -1125.156958754201924  |grad|_K:  2.027e-08  alpha:  3.937e-01  linmin: -1.269e-07  t[s]:  14719.27
	FillingsUpdate:  mu: +0.585897180  nElectrons: 358.000000
	SubspaceRotationAdjust: set factor to 0.383
ElecMinimize: Iter:  19  F: -1125.156958779429488  |grad|_K:  1.082e-08  alpha:  3.687e-01  linmin: -9.277e-08  t[s]:  15399.72
	FillingsUpdate:  mu: +0.585897066  nElectrons: 358.000000
	SubspaceRotationAdjust: set factor to 0.445
ElecMinimize: Iter:  20  F: -1125.156958788442353  |grad|_K:  7.294e-09  alpha:  4.640e-01  linmin: -1.080e-09  t[s]:  16080.82
	FillingsUpdate:  mu: +0.585897487  nElectrons: 358.000000
	SubspaceRotationAdjust: set factor to 0.439
ElecMinimize: Iter:  21  F: -1125.156958791914349  |grad|_K:  4.821e-09  alpha:  3.950e-01  linmin: -8.915e-08  t[s]:  16761.68
ElecMinimize: Converged (|Delta F|<1.000000e-08 for 2 iters).
Setting wave functions to eigenvectors of Hamiltonian

# Ionic positions in cartesian coordinates:
ion Au   0.010000000000000   0.000000000000000   0.000000000000000 1
ion Au   0.000000000000000   3.865041000000000   3.855041000000000 1
ion Au   3.855041000000000   0.000000000000000   3.845041000000000 1
ion Au   3.855041000000000   3.855041000000000   0.000000000000000 1
ion Au   0.000000000000000   0.000000000000000   7.710082999999999 1
ion Au   0.000000000000000   3.855041000000000  11.565124000000001 1
ion Au   3.855041000000000   0.000000000000000  11.565124000000001 1
ion Au   3.855041000000000   3.855041000000000   7.710082999999999 1
ion Au   0.000000000000000   7.710082999999999   0.000000000000000 1
ion Au   0.000000000000000  11.565124000000001   3.855041000000000 1
ion Au   3.855041000000000   7.710082999999999   3.855041000000000 1
ion Au   3.855041000000000  11.565124000000001   0.000000000000000 1
ion Au   0.000000000000000   7.710082999999999   7.710082999999999 1
ion Au   0.000000000000000  11.565124000000001  11.565124000000001 1
ion Au   3.855041000000000   7.710082999999999  11.565124000000001 1
ion Au   3.855041000000000  11.565124000000001   7.710082999999999 1
ion Au   7.710082999999999   0.000000000000000   0.000000000000000 1
ion Au   7.710082999999999   3.855041000000000   3.855041000000000 1
ion Au  11.565124000000001   0.000000000000000   3.855041000000000 1
ion Au  11.565124000000001   3.855041000000000   0.000000000000000 1
ion Au   7.710082999999999   0.000000000000000   7.710082999999999 1
ion Au   7.710082999999999   3.855041000000000  11.565124000000001 1
ion Au  11.565124000000001   0.000000000000000  11.565124000000001 1
ion Au  11.565124000000001   3.855041000000000   7.710082999999999 1
ion Au   7.710082999999999   7.710082999999999   0.000000000000000 1
ion Au   7.710082999999999  11.565124000000001   3.855041000000000 1
ion Au  11.565124000000001   7.710082999999999   3.855041000000000 1
ion Au  11.565124000000001  11.565124000000001   0.000000000000000 1
ion Au   7.710082999999999   7.710082999999999   7.710082999999999 1
ion Au   7.710082999999999  11.565124000000001  11.565124000000001 1
ion Au  11.565124000000001   7.710082999999999  11.565124000000001 1
ion Au  11.565124000000001  11.565124000000001   7.710082999999999 1
ion O   3.873939000000000   3.873939000000000   3.873939000000000 1

# Forces in Cartesian coordinates:
force Au  -0.001635543069388  -0.000469171362891  -0.000566164786648 1
force Au  -0.089473528822530  -0.001131106589550  -0.000523364858076 1
force Au  -0.000571921582498  -0.089303152496008   0.000045892285276 1
force Au  -0.000452491341946  -0.000327676986565  -0.089575786462590 1
force Au  -0.000562269888100  -0.000574802320204   0.000368412502887 1
force Au   0.000129822126109  -0.000017459013256   0.000038948613620 1
force Au   0.000112793606124   0.000174037406578  -0.000216127655971 1
force Au  -0.000598856918731  -0.000760015572030   0.094542896943892 1
force Au  -0.000679071246662   0.000731175943838  -0.000826572567760 1
force Au   0.000130037447329   0.000110987741615   0.000037022178525 1
force Au  -0.000468743240492   0.094817057232228  -0.000590717339214 1
force Au   0.000110620379331  -0.000208854739205   0.000083534241267 1
force Au  -0.000755644646486   0.000824407924975   0.000852930954406 1
force Au   0.000317115216833  -0.000018471660327  -0.000001804713446 1
force Au   0.000000892607582  -0.000105029274725   0.000076971874958 1
force Au  -0.000001159058729   0.000189273434545  -0.000194841658430 1
force Au   0.000825128729854  -0.000663482654569  -0.000789744626741 1
force Au   0.094680912904374  -0.000629541666851  -0.000583127940755 1
force Au   0.000291592204068   0.000261584469277  -0.000130396138779 1
force Au   0.000162171725630  -0.000177335578889   0.000172886445990 1
force Au   0.000552210969968  -0.000773757846212   0.000597759269250 1
force Au  -0.000098921251204   0.000000012602745   0.000036705682723 1
force Au   0.000121229071810   0.000363106316032   0.000166799631178 1
force Au   0.000051885261211  -0.000047172282416  -0.000105450507964 1
force Au   0.000686277637728   0.000709563277896  -0.000771017842433 1
force Au  -0.000099222013006   0.000021059134876   0.000037737010452 1
force Au  -0.000079966930519  -0.000018419175078  -0.000007679145586 1
force Au   0.000117815889879   0.000144310837266   0.000357689942620 1
force Au   0.000799607031203   0.000805177609812   0.000798960170289 1
force Au  -0.000360586646782   0.000006834367011  -0.000000684074337 1
force Au   0.000005021309491  -0.000363638389145   0.000004224263577 1
force Au   0.000006568822351   0.000013469470749  -0.000368639241375 1
force O  -0.003325259350308  -0.003626449636766  -0.003022220875796 1

# Energy components:
   Eewald =    -1163.8897998810655281
       EH =      142.0485859001862536
     Eloc =     -114.9715404606608189
      Enl =     -129.6704204837786563
      Exc =    -1000.4526254114637140
 Exc_core =      730.5165156854695852
       KE =      411.2771010326874830
-------------------------------------
     Etot =    -1125.1421836186254950
       TS =        0.0147751732888545
-------------------------------------
        F =    -1125.1569587919143487

IonicMinimize: Iter:   0  F: -1125.156958791914349  |grad|_K:  2.269e-02  t[s]:  16899.29

#--- Lowdin population analysis ---
# oxidation-state Au +0.002 +0.104 +0.103 +0.103 +0.002 +0.003 +0.003 +0.108 +0.002 +0.003 +0.108 +0.003 +0.002 +0.002 +0.003 +0.003 +0.002 +0.108 +0.003 +0.003 +0.002 +0.003 +0.002 +0.003 +0.002 +0.003 +0.003 +0.002 +0.002 +0.002 +0.002 +0.002
# oxidation-state O -0.498


-------- Electronic minimization -----------
	FillingsUpdate:  mu: +0.602149514  nElectrons: 358.000000
ElecMinimize: Iter:   0  F: -1124.399061493467116  |grad|_K:  1.065e-04  alpha:  1.000e+00
	FillingsUpdate:  mu: +0.586526273  nElectrons: 358.000000
	SubspaceRotationAdjust: set factor to 0.271
ElecMinimize: Iter:   1  F: -1124.975006328392965  |grad|_K:  4.766e-05  alpha:  3.050e-01  linmin:  1.307e-03  t[s]:  18134.98
	FillingsUpdate:  mu: +0.587260584  nElectrons: 358.000000
	SubspaceRotationAdjust: set factor to 0.201
ElecMinimize: Iter:   2  F: -1125.093219417978844  |grad|_K:  2.427e-05  alpha:  3.155e-01  linmin: -2.013e-03  t[s]:  18817.03
	FillingsUpdate:  mu: +0.587330764  nElectrons: 358.000000
	SubspaceRotationAdjust: set factor to 0.215
ElecMinimize: Iter:   3  F: -1125.155256994373303  |grad|_K:  2.024e-05  alpha:  6.142e-01  linmin: -1.664e-04  t[s]:  19497.82
	FillingsUpdate:  mu: +0.587237841  nElectrons: 358.000000
	SubspaceRotationAdjust: set factor to 0.256
ElecMinimize: Iter:   4  F: -1125.185668338431469  |grad|_K:  1.076e-05  alpha:  4.452e-01  linmin: -3.928e-05  t[s]:  20179.13
	FillingsUpdate:  mu: +0.585490461  nElectrons: 358.000000
	SubspaceRotationAdjust: set factor to 0.387
ElecMinimize: Iter:   5  F: -1125.194543144805948  |grad|_K:  4.477e-06  alpha:  4.609e-01  linmin:  3.971e-05  t[s]:  20860.45
	FillingsUpdate:  mu: +0.585533191  nElectrons: 358.000000
	SubspaceRotationAdjust: set factor to 0.484
ElecMinimize: Iter:   6  F: -1125.196892094079431  |grad|_K:  3.960e-06  alpha:  7.059e-01  linmin:  2.074e-05  t[s]:  21542.01
	FillingsUpdate:  mu: +0.585216590  nElectrons: 358.000000
	SubspaceRotationAdjust: set factor to 0.625
ElecMinimize: Iter:   7  F: -1125.198173531780640  |grad|_K:  2.997e-06  alpha:  4.922e-01  linmin: -1.085e-05  t[s]:  22232.86
	FillingsUpdate:  mu: +0.585221538  nElectrons: 358.000000
	SubspaceRotationAdjust: set factor to 0.763
ElecMinimize: Iter:   8  F: -1125.198965188358670  |grad|_K:  2.122e-06  alpha:  5.300e-01  linmin: -2.399e-06  t[s]:  22930.31
	FillingsUpdate:  mu: +0.585596097  nElectrons: 358.000000
	SubspaceRotationAdjust: set factor to 0.571
ElecMinimize: Iter:   9  F: -1125.199248411042163  |grad|_K:  1.627e-06  alpha:  3.792e-01  linmin: -6.014e-06  t[s]:  23627.72
	FillingsUpdate:  mu: +0.585403832  nElectrons: 358.000000
	SubspaceRotationAdjust: set factor to 0.354
ElecMinimize: Iter:  10  F: -1125.199358505462214  |grad|_K:  7.737e-07  alpha:  2.502e-01  linmin:  6.326e-07  t[s]:  24325.50
	FillingsUpdate:  mu: +0.585378845  nElectrons: 358.000000
	SubspaceRotationAdjust: set factor to 0.427
ElecMinimize: Iter:  11  F: -1125.199397031758735  |grad|_K:  5.036e-07  alpha:  3.873e-01  linmin: -1.474e-06  t[s]:  25013.37
	FillingsUpdate:  mu: +0.585424656  nElectrons: 358.000000
	SubspaceRotationAdjust: set factor to 0.574
ElecMinimize: Iter:  12  F: -1125.199414357263777  |grad|_K:  2.681e-07  alpha:  4.111e-01  linmin: -1.802e-06  t[s]:  25693.88
	FillingsUpdate:  mu: +0.585422277  nElectrons: 358.000000
	SubspaceRotationAdjust: set factor to 0.76
ElecMinimize: Iter:  13  F: -1125.199422600438083  |grad|_K:  2.333e-07  alpha:  6.899e-01  linmin: -2.136e-06  t[s]:  26374.15
	FillingsUpdate:  mu: +0.585413009  nElectrons: 358.000000
	SubspaceRotationAdjust: set factor to 0.879
ElecMinimize: Iter:  14  F: -1125.199426315326491  |grad|_K:  1.856e-07  alpha:  4.105e-01  linmin: -1.685e-07  t[s]:  27054.85
	FillingsUpdate:  mu: +0.585395245  nElectrons: 358.000000
	SubspaceRotationAdjust: set factor to 0.707
ElecMinimize: Iter:  15  F: -1125.199428173287970  |grad|_K:  1.436e-07  alpha:  3.244e-01  linmin:  2.127e-07  t[s]:  27735.36
	FillingsUpdate:  mu: +0.585416939  nElectrons: 358.000000
	SubspaceRotationAdjust: set factor to 0.512
ElecMinimize: Iter:  16  F: -1125.199429088321494  |grad|_K:  8.815e-08  alpha:  2.670e-01  linmin:  6.643e-08  t[s]:  28415.74
	FillingsUpdate:  mu: +0.585411184  nElectrons: 358.000000
	SubspaceRotationAdjust: set factor to 0.624
ElecMinimize: Iter:  17  F: -1125.199429562341265  |grad|_K:  4.796e-08  alpha:  3.672e-01  linmin:  7.828e-08  t[s]:  29096.02
	FillingsUpdate:  mu: +0.585407466  nElectrons: 358.000000
	SubspaceRotationAdjust: set factor to 0.766
ElecMinimize: Iter:  18  F: -1125.199429739747529  |grad|_K:  3.775e-08  alpha:  4.642e-01  linmin: -1.140e-07  t[s]:  29776.58
	FillingsUpdate:  mu: +0.585411335  nElectrons: 358.000000
	SubspaceRotationAdjust: set factor to 1.03
ElecMinimize: Iter:  19  F: -1125.199429840612765  |grad|_K:  2.419e-08  alpha:  4.260e-01  linmin:  2.664e-08  t[s]:  30457.09
	FillingsUpdate:  mu: +0.585411390  nElectrons: 358.000000
	SubspaceRotationAdjust: set factor to 1.25
ElecMinimize: Iter:  20  F: -1125.199429890041984  |grad|_K:  1.982e-08  alpha:  5.082e-01  linmin: -9.791e-08  t[s]:  31136.70
	FillingsUpdate:  mu: +0.585411406  nElectrons: 358.000000
	SubspaceRotationAdjust: set factor to 1.17
ElecMinimize: Iter:  21  F: -1125.199429910268918  |grad|_K:  1.523e-08  alpha:  3.096e-01  linmin:  3.319e-08  t[s]:  31817.37
	FillingsUpdate:  mu: +0.585409692  nElectrons: 358.000000
	SubspaceRotationAdjust: set factor to 0.852
ElecMinimize: Iter:  22  F: -1125.199429917333873  |grad|_K:  1.259e-08  alpha:  1.834e-01  linmin: -3.090e-08  t[s]:  32497.91
	FillingsUpdate:  mu: +0.585410873  nElectrons: 358.000000
	SubspaceRotationAdjust: set factor to 0.915
ElecMinimize: Iter:  23  F: -1125.199429924859260  |grad|_K:  7.379e-09  alpha:  2.856e-01  linmin:  2.614e-08  t[s]:  33178.63
ElecMinimize: Converged (|Delta F|<1.000000e-08 for 2 iters).
Setting wave functions to eigenvectors of Hamiltonian

# Ionic positions in cartesian coordinates:
ion Au   0.008366320053840  -0.000467853803035  -0.000564499076800 1
ion Au  -0.089471665699303   3.863911210970307   3.854519300851773 1
ion Au   3.854470941540729  -0.089301834936153   3.845088557995124 1
ion Au   3.854590371781281   3.854714640573291  -0.089574120752742 1
ion Au  -0.000560406764872  -0.000573484760348   7.710453078212733 1
ion Au   0.000131685249337   3.855024858546601  11.565164614323468 1
ion Au   3.855155656729352   0.000175354966434  11.564909538053877 1
ion Au   3.854444006204496   3.854282301987826   7.804627562653740 1
ion Au  -0.000677208123435   7.710815493503694  -0.000824906857912 1
ion Au   0.000131900570556  11.565236305301470   3.855079687888373 1
ion Au   3.854574119882736   7.804901374792085   3.854451948370635 1
ion Au   3.855153483502558  11.564916462820651   0.000085199951116 1
ion Au  -0.000753781523259   7.710908725484830   7.710937596664254 1
ion Au   0.000318978340061  11.565106845899530  11.565123860996405 1
ion Au   3.855043755730809   7.709979288285131  11.565202637584807 1
ion Au   3.855041704064499  11.565314590994403   7.709889824051417 1
ion Au   7.710909991853081  -0.000662165094713  -0.000788078916893 1
ion Au   7.804765776027600   3.854412775893005   3.854459537769094 1
ion Au  11.565417455327296   0.000262902029133   3.854912269571069 1
ion Au  11.565288034848859   3.854864981980966   0.000174552155838 1
ion Au   7.710637074093196  -0.000772440286356   7.710682424979098 1
ion Au   7.709985941872023   3.855042330162601  11.565162371392571 1
ion Au  11.565247092195039   0.000364423875888  11.565292465341027 1
ion Au  11.565177748384439   3.854995145277440   7.709979215201884 1
ion Au   7.710771140760955   7.710793880837751  -0.000769352132584 1
ion Au   7.709985641110221  11.565146376694733   3.855080402720300 1
ion Au  11.565045896192709   7.710065898384777   3.855034986564263 1
ion Au  11.565243679013108  11.565269628397123   0.000359355652469 1
ion Au   7.710884470154429   7.710889495169667   7.710883625880136 1
ion Au   7.709724276476446  11.565132151926868  11.565124981635512 1
ion Au  11.565130884432721   7.709720679170711  11.565129889973427 1
ion Au  11.565132431945580  11.565138787030605   7.709716026468472 1
ion O   3.870615603772920   3.870313867923089   3.870918444834053 1

# Forces in Cartesian coordinates:
force Au  -0.001043121265163  -0.000020486740051  -0.000118223507878 1
force Au  -0.061333336365566  -0.000820807928530  -0.000266944181544 1
force Au  -0.000268286599489  -0.061278833005444   0.000275051416926 1
force Au  -0.000187397757685  -0.000104108909023  -0.061363623358824 1
force Au  -0.000095484070306  -0.000100677268350  -0.000088527609941 1
force Au  -0.002780271738232  -0.000005893541022   0.000091111146288 1
force Au   0.000097199833224  -0.002752644228405  -0.000100383278230 1
force Au  -0.000310586362395  -0.000390039717048   0.063653919249622 1
force Au  -0.000176651767699   0.000210499521215  -0.000291730920440 1
force Au  -0.002798201083568   0.000135150490354   0.000044437134997 1
force Au  -0.000231642165625   0.063724134992879  -0.000312858788942 1
force Au   0.000099294434442  -0.000118867925291  -0.002883010886961 1
force Au  -0.000201977602216   0.000254487410001   0.000275730681391 1
force Au   0.000221875502496  -0.000001794477009  -0.000003642662738 1
force Au   0.000010623007111   0.002758835182280   0.000096433489422 1
force Au   0.000005179995393   0.000237034958492   0.002692620194640 1
force Au   0.000278484366533  -0.000162365687508  -0.000272643450181 1
force Au   0.063692835778136  -0.000324757439689  -0.000323657177282 1
force Au   0.000326842432212  -0.002669716262653  -0.000087099159418 1
force Au   0.000199253056379  -0.000127697889270  -0.002779147322959 1
force Au   0.000044609688371  -0.000235351546630   0.000061949080091 1
force Au   0.002771024959305   0.000008790067451   0.000073733908074 1
force Au   0.000104579044730   0.000250663353311   0.000121569077738 1
force Au   0.000093242393734  -0.000038595085908   0.002795810504320 1
force Au   0.000158751090622   0.000159159033977  -0.000223413172647 1
force Au   0.002787673958153   0.000090122576593   0.000039783582969 1
force Au  -0.000031804693178   0.002876773696218  -0.000004263265516 1
force Au   0.000098241902814   0.000114589201189   0.000252944907675 1
force Au   0.000193547092674   0.000199751129920   0.000206441850855 1
force Au  -0.000245858113411   0.000007743348771  -0.000002466249395 1
force Au  -0.000001102304606  -0.000255753926499   0.000008149074499 1
force Au   0.000004637615018   0.000024442704043  -0.000256575466841 1
force O  -0.001545030265399  -0.001696964365671  -0.001373520968522 1

# Energy components:
   Eewald =    -1165.8627944839538486
       EH =      140.2553290936696442
     Eloc =     -111.1587997361804838
      Enl =     -129.6916077737951127
      Exc =    -1000.4075747339622922
 Exc_core =      730.5166013356405301
       KE =      411.1639303959663039
-------------------------------------
     Etot =    -1125.1849159026151028
       TS =        0.0145140222442157
-------------------------------------
        F =    -1125.1994299248592597

IonicMinimize: Iter:   1  F: -1125.199429924859260  |grad|_K:  1.543e-02  alpha:  1.000e+00  linmin: -9.978e-01  t[s]:  33316.09

#--- Lowdin population analysis ---
# oxidation-state Au +0.005 +0.099 +0.099 +0.099 +0.005 +0.004 +0.004 +0.101 +0.005 +0.004 +0.101 +0.003 +0.005 +0.003 +0.004 +0.004 +0.005 +0.101 +0.004 +0.004 +0.005 +0.004 +0.003 +0.004 +0.005 +0.004 +0.004 +0.003 +0.005 +0.003 +0.003 +0.003
# oxidation-state O -0.502


-------- Electronic minimization -----------
	FillingsUpdate:  mu: +0.603040418  nElectrons: 358.000000
ElecMinimize: Iter:   0  F: -1124.273089484044931  |grad|_K:  1.237e-04  alpha:  1.000e+00
	FillingsUpdate:  mu: +0.587998327  nElectrons: 358.000000
	SubspaceRotationAdjust: set factor to 0.576
ElecMinimize: Iter:   1  F: -1124.778958953255142  |grad|_K:  9.043e-05  alpha:  1.862e-01  linmin: -7.476e-04  t[s]:  34552.06
	FillingsUpdate:  mu: +0.586273858  nElectrons: 358.000000
	SubspaceRotationAdjust: set factor to 0.518
ElecMinimize: Iter:   2  F: -1125.058527877080678  |grad|_K:  3.456e-05  alpha:  2.025e-01  linmin: -8.584e-04  t[s]:  35232.64
	FillingsUpdate:  mu: +0.586269964  nElectrons: 358.000000
	SubspaceRotationAdjust: set factor to 0.501
ElecMinimize: Iter:   3  F: -1125.148365672696627  |grad|_K:  2.498e-05  alpha:  4.443e-01  linmin: -4.762e-04  t[s]:  35912.92
	FillingsUpdate:  mu: +0.585528621  nElectrons: 358.000000
	SubspaceRotationAdjust: set factor to 0.514
ElecMinimize: Iter:   4  F: -1125.208570059039403  |grad|_K:  1.543e-05  alpha:  5.744e-01  linmin:  7.669e-06  t[s]:  36593.61
	FillingsUpdate:  mu: +0.584682047  nElectrons: 358.000000
	SubspaceRotationAdjust: set factor to 0.68
ElecMinimize: Iter:   5  F: -1125.226405855206622  |grad|_K:  5.419e-06  alpha:  4.511e-01  linmin: -3.229e-05  t[s]:  37274.26
	FillingsUpdate:  mu: +0.584925335  nElectrons: 358.000000
	SubspaceRotationAdjust: set factor to 0.734
ElecMinimize: Iter:   6  F: -1125.228532389103520  |grad|_K:  3.393e-06  alpha:  4.357e-01  linmin: -9.282e-06  t[s]:  37954.76
	FillingsUpdate:  mu: +0.584998848  nElectrons: 358.000000
	SubspaceRotationAdjust: set factor to 0.863
ElecMinimize: Iter:   7  F: -1125.229264258414332  |grad|_K:  1.863e-06  alpha:  3.825e-01  linmin: -1.300e-05  t[s]:  38635.14
	FillingsUpdate:  mu: +0.584716209  nElectrons: 358.000000
	SubspaceRotationAdjust: set factor to 0.7
ElecMinimize: Iter:   8  F: -1125.229495940869583  |grad|_K:  1.591e-06  alpha:  4.017e-01  linmin:  4.878e-05  t[s]:  39316.41
	FillingsUpdate:  mu: +0.584883527  nElectrons: 358.000000
	SubspaceRotationAdjust: set factor to 0.473
ElecMinimize: Iter:   9  F: -1125.229586140817673  |grad|_K:  8.624e-07  alpha:  2.151e-01  linmin:  1.034e-06  t[s]:  39996.99
	FillingsUpdate:  mu: +0.584933209  nElectrons: 358.000000
	SubspaceRotationAdjust: set factor to 0.371
ElecMinimize: Iter:  10  F: -1125.229635351677189  |grad|_K:  4.480e-07  alpha:  3.982e-01  linmin: -1.349e-06  t[s]:  40677.45
	FillingsUpdate:  mu: +0.584864769  nElectrons: 358.000000
	SubspaceRotationAdjust: set factor to 0.381
ElecMinimize: Iter:  11  F: -1125.229651590086178  |grad|_K:  3.026e-07  alpha:  4.869e-01  linmin:  1.673e-06  t[s]:  41357.82
	FillingsUpdate:  mu: +0.584891804  nElectrons: 358.000000
	SubspaceRotationAdjust: set factor to 0.368
ElecMinimize: Iter:  12  F: -1125.229658434789371  |grad|_K:  1.871e-07  alpha:  4.498e-01  linmin:  4.035e-07  t[s]:  42038.49
	FillingsUpdate:  mu: +0.584904282  nElectrons: 358.000000
	SubspaceRotationAdjust: set factor to 0.42
ElecMinimize: Iter:  13  F: -1125.229661616922840  |grad|_K:  1.309e-07  alpha:  5.469e-01  linmin:  1.140e-07  t[s]:  42718.52
	FillingsUpdate:  mu: +0.584886519  nElectrons: 358.000000
	SubspaceRotationAdjust: set factor to 0.514
ElecMinimize: Iter:  14  F: -1125.229663148076952  |grad|_K:  9.185e-08  alpha:  5.376e-01  linmin: -1.197e-07  t[s]:  43398.73
	FillingsUpdate:  mu: +0.584888556  nElectrons: 358.000000
	SubspaceRotationAdjust: set factor to 0.624
ElecMinimize: Iter:  15  F: -1125.229663710378645  |grad|_K:  5.328e-08  alpha:  4.011e-01  linmin: -1.176e-07  t[s]:  44079.03
	FillingsUpdate:  mu: +0.584890295  nElectrons: 358.000000
	SubspaceRotationAdjust: set factor to 0.751
ElecMinimize: Iter:  16  F: -1125.229663979652287  |grad|_K:  3.381e-08  alpha:  5.709e-01  linmin:  1.528e-07  t[s]:  44759.39
	FillingsUpdate:  mu: +0.584887270  nElectrons: 358.000000
	SubspaceRotationAdjust: set factor to 0.819
ElecMinimize: Iter:  17  F: -1125.229664046842800  |grad|_K:  2.104e-08  alpha:  3.537e-01  linmin: -1.841e-07  t[s]:  45439.77
	FillingsUpdate:  mu: +0.584889355  nElectrons: 358.000000
	SubspaceRotationAdjust: set factor to 0.712
ElecMinimize: Iter:  18  F: -1125.229664080839939  |grad|_K:  1.531e-08  alpha:  4.615e-01  linmin: -7.681e-07  t[s]:  46120.37
	FillingsUpdate:  mu: +0.584888415  nElectrons: 358.000000
	SubspaceRotationAdjust: set factor to 0.508
ElecMinimize: Iter:  19  F: -1125.229664090939877  |grad|_K:  1.128e-08  alpha:  2.579e-01  linmin:  2.346e-08  t[s]:  46800.89
	FillingsUpdate:  mu: +0.584889095  nElectrons: 358.000000
	SubspaceRotationAdjust: set factor to 0.493
ElecMinimize: Iter:  20  F: -1125.229664098540297  |grad|_K:  7.330e-09  alpha:  3.613e-01  linmin:  3.124e-07  t[s]:  47480.97
	FillingsUpdate:  mu: +0.584888807  nElectrons: 358.000000
	SubspaceRotationAdjust: set factor to 0.566
ElecMinimize: Iter:  21  F: -1125.229664102721244  |grad|_K:  5.711e-09  alpha:  4.678e-01  linmin: -2.112e-07  t[s]:  48161.53
ElecMinimize: Converged (|Delta F|<1.000000e-08 for 2 iters).
Setting wave functions to eigenvectors of Hamiltonian

# Ionic positions in cartesian coordinates:
ion Au   0.006915965988622   0.000437117865902   0.000085102650193 1
ion Au  -0.189263668784186   3.862439594850277   3.854374932064882 1
ion Au   3.854423107358913  -0.189198473852850   3.846296584367953 1
ion Au   3.854671117275144   3.854923642555307  -0.189291691257814 1
ion Au   0.000188106709240   0.000176884530191   7.709257063245952 1
ion Au  -0.013281812431429   3.855038917528516  11.565517889045537 1
ion Au   3.855380488020809  -0.013201729447106  11.564899637757817 1
ion Au   3.854253454167738   3.854058402614559   7.904627130447766 1
ion Au  -0.000064178926840   7.710261605644243  -0.000442123896912 1
ion Au  -0.013366808773979  11.565644144296161   3.855216422833264 1
ion Au   3.854480252471141   7.904649734836111   3.854233661059497 1
ion Au   3.855392834361755  11.564803197915015  -0.013715291605954 1
ion Au  -0.000097750715538   7.710364653948124   7.710433863080030 1
ion Au   0.000698979130095  11.565142433526471  11.565115824947386 1
ion Au   3.855097119815108   7.723248630074230  11.565500271564389 1
ion Au   3.855073698224655  11.566037691299064   7.723037543190451 1
ion Au   7.710478051964277  -0.000014956921385  -0.000393327264055 1
ion Au   7.904655717019490   3.854220214173112   3.854174077618252 1
ion Au  11.566347883849916  -0.012908211236406   3.854782983916592 1
ion Au  11.565890354260844   3.854642998055149  -0.013324839200802 1
ion Au   7.709679536264705  -0.000235908104489   7.709710365057405 1
ion Au   7.723300153465666   3.855088672789430  11.565438268153128 1
ion Au  11.565488880370003   0.000782549355025  11.565518032660425 1
ion Au  11.565513303669224   3.854917761453088   7.723424769229430 1
ion Au   7.710068268675081   7.710043227801997  -0.000181677962733 1
ion Au   7.723379193583438  11.565532463320688   3.855193620753027 1
ion Au  11.565070527494695   7.723708701321077   3.855036500122034 1
ion Au  11.565462763850290  11.565509459638550   0.000800306649590 1
ion Au   7.710105255929148   7.710127543612607   7.710167044763842 1
ion Au   7.709333374020815  11.565159050227383  11.565120125252113 1
ion Au  11.565120048041731   7.709289256095579  11.565164783160098 1
ion Au  11.565145440331637  11.565230525418951   7.709291877231841 1
ion O   3.870383343317793   3.870003204815428   3.870853270365377 1

# Forces in Cartesian coordinates:
force Au  -0.000267279104267   0.000458002952799   0.000390010077676 1
force Au  -0.036334185133733  -0.000663472820086  -0.000217962031326 1
force Au  -0.000183162062549  -0.036311250195646   0.000223783114450 1
force Au  -0.000165055446629  -0.000140449251936  -0.036227546419682 1
force Au   0.000401016473381   0.000408334031783  -0.000503663344475 1
force Au  -0.004263996382739  -0.000011599861612   0.000068149207877 1
force Au   0.000045152281503  -0.004257068907077  -0.000011384948799 1
force Au  -0.000224355150025  -0.000244125170321   0.037879726265722 1
force Au   0.000348707095753  -0.000306741411465   0.000292383813201 1
force Au  -0.004279410929808   0.000084011149469   0.000019477675309 1
force Au  -0.000199735560716   0.038010690468565  -0.000210154278321 1
force Au   0.000054487205566  -0.000066512282700  -0.004409448681278 1
force Au   0.000338388617199  -0.000281986185862  -0.000277811180861 1
force Au  -0.000699154295596   0.000009414901050  -0.000013736671215 1
force Au   0.000006507230281   0.004274912192767   0.000037728078757 1
force Au  -0.000001923602775   0.000155907288988   0.004247554690075 1
force Au  -0.000274496747745   0.000363927502540   0.000293563453160 1
force Au   0.037995946511668  -0.000246853960755  -0.000233553949477 1
force Au   0.000213949782645  -0.004191418477282  -0.000043910535329 1
force Au   0.000119775730448  -0.000062184717625  -0.004315648891624 1
force Au  -0.000389057726126   0.000317742343626  -0.000425174349604 1
force Au   0.004291069092484  -0.000001427227242   0.000042102532353 1
force Au   0.000058130618533  -0.000694198472115   0.000043116656410 1
force Au   0.000058395342242  -0.000030399074497   0.004338258624567 1
force Au  -0.000318871344389  -0.000345446296337   0.000320978658433 1
force Au   0.004314865753927   0.000067272849448   0.000011845656961 1
force Au  -0.000034912659216   0.004378254319366  -0.000010824100672 1
force Au   0.000058714117896   0.000065706343866  -0.000691646609697 1
force Au  -0.000322715498378  -0.000315424517092  -0.000317583854513 1
force Au   0.000709460518452   0.000000904477072  -0.000018452996472 1
force Au  -0.000012194127838   0.000690769398913  -0.000000783333558 1
force Au  -0.000013176907508   0.000018216621792   0.000703985602259 1
force O  -0.001124403212039  -0.001231521302381  -0.001007111121046 1

# Energy components:
   Eewald =    -1167.4301941220085155
       EH =      138.8072950782355122
     Eloc =     -108.0985421314747015
      Enl =     -129.6995398309964571
      Exc =    -1000.3748451180134680
 Exc_core =      730.5166407371227706
       KE =      411.0637516989926326
-------------------------------------
     Etot =    -1125.2154336881421841
       TS =        0.0142304145791691
-------------------------------------
        F =    -1125.2296641027212445

IonicMinimize: Iter:   2  F: -1125.229664102721244  |grad|_K:  9.270e-03  alpha:  4.985e-01  linmin: -9.989e-01  t[s]:  48299.42

#--- Lowdin population analysis ---
# oxidation-state Au +0.007 +0.093 +0.093 +0.093 +0.007 +0.004 +0.004 +0.095 +0.007 +0.004 +0.095 +0.004 +0.007 +0.004 +0.004 +0.004 +0.007 +0.095 +0.004 +0.004 +0.007 +0.004 +0.004 +0.004 +0.007 +0.004 +0.004 +0.004 +0.007 +0.004 +0.004 +0.004
# oxidation-state O -0.502


-------- Electronic minimization -----------
	FillingsUpdate:  mu: +0.603252163  nElectrons: 358.000000
ElecMinimize: Iter:   0  F: -1124.208179089718897  |grad|_K:  1.209e-04  alpha:  1.000e+00
	FillingsUpdate:  mu: +0.588011620  nElectrons: 358.000000
	SubspaceRotationAdjust: set factor to 0.351
ElecMinimize: Iter:   1  F: -1124.873120211796731  |grad|_K:  6.915e-05  alpha:  2.579e-01  linmin: -2.962e-03  t[s]:  49535.11
	FillingsUpdate:  mu: +0.586286850  nElectrons: 358.000000
	SubspaceRotationAdjust: set factor to 0.287
ElecMinimize: Iter:   2  F: -1125.092642890756451  |grad|_K:  2.943e-05  alpha:  2.674e-01  linmin: -2.195e-03  t[s]:  50215.66
	FillingsUpdate:  mu: +0.585253359  nElectrons: 358.000000
	SubspaceRotationAdjust: set factor to 0.297
ElecMinimize: Iter:   3  F: -1125.175102570644867  |grad|_K:  2.551e-05  alpha:  5.550e-01  linmin: -1.803e-04  t[s]:  50896.28
	FillingsUpdate:  mu: +0.585642538  nElectrons: 358.000000
	SubspaceRotationAdjust: set factor to 0.334
ElecMinimize: Iter:   4  F: -1125.230411417510140  |grad|_K:  1.274e-05  alpha:  5.098e-01  linmin:  7.889e-05  t[s]:  51576.80
	FillingsUpdate:  mu: +0.584252465  nElectrons: 358.000000
	SubspaceRotationAdjust: set factor to 0.461
ElecMinimize: Iter:   5  F: -1125.242709912478176  |grad|_K:  4.909e-06  alpha:  4.560e-01  linmin: -5.321e-05  t[s]:  52257.17
	FillingsUpdate:  mu: +0.584456598  nElectrons: 358.000000
	SubspaceRotationAdjust: set factor to 0.588
ElecMinimize: Iter:   6  F: -1125.245200197733766  |grad|_K:  3.517e-06  alpha:  6.215e-01  linmin: -2.411e-05  t[s]:  52937.64
	FillingsUpdate:  mu: +0.584189485  nElectrons: 358.000000
	SubspaceRotationAdjust: set factor to 0.755
ElecMinimize: Iter:   7  F: -1125.246159968629399  |grad|_K:  2.541e-06  alpha:  4.668e-01  linmin: -1.303e-06  t[s]:  53618.11
	FillingsUpdate:  mu: +0.584271454  nElectrons: 358.000000
	SubspaceRotationAdjust: set factor to 0.892
ElecMinimize: Iter:   8  F: -1125.246731517991748  |grad|_K:  1.715e-06  alpha:  5.329e-01  linmin:  4.169e-06  t[s]:  54299.27
	FillingsUpdate:  mu: +0.584471266  nElectrons: 358.000000
	SubspaceRotationAdjust: set factor to 0.627
ElecMinimize: Iter:   9  F: -1125.246874071336151  |grad|_K:  1.375e-06  alpha:  2.925e-01  linmin:  2.120e-05  t[s]:  54980.11
	FillingsUpdate:  mu: +0.584343808  nElectrons: 358.000000
	SubspaceRotationAdjust: set factor to 0.372
ElecMinimize: Iter:  10  F: -1125.246951344444597  |grad|_K:  6.362e-07  alpha:  2.462e-01  linmin:  7.362e-06  t[s]:  55660.80
	FillingsUpdate:  mu: +0.584338277  nElectrons: 358.000000
	SubspaceRotationAdjust: set factor to 0.437
ElecMinimize: Iter:  11  F: -1125.246979579153503  |grad|_K:  3.438e-07  alpha:  4.199e-01  linmin: -7.908e-06  t[s]:  56341.65
	FillingsUpdate:  mu: +0.584370791  nElectrons: 358.000000
	SubspaceRotationAdjust: set factor to 0.583
ElecMinimize: Iter:  12  F: -1125.246987654587201  |grad|_K:  2.052e-07  alpha:  4.111e-01  linmin:  2.786e-08  t[s]:  57023.08
	FillingsUpdate:  mu: +0.584356082  nElectrons: 358.000000
	SubspaceRotationAdjust: set factor to 0.641
ElecMinimize: Iter:  13  F: -1125.246991826052863  |grad|_K:  1.585e-07  alpha:  5.960e-01  linmin: -1.050e-06  t[s]:  57704.12
	FillingsUpdate:  mu: +0.584342388  nElectrons: 358.000000
	SubspaceRotationAdjust: set factor to 0.75
ElecMinimize: Iter:  14  F: -1125.246993882253946  |grad|_K:  1.160e-07  alpha:  4.928e-01  linmin:  2.840e-07  t[s]:  58385.30
	FillingsUpdate:  mu: +0.584359858  nElectrons: 358.000000
	SubspaceRotationAdjust: set factor to 0.634
ElecMinimize: Iter:  15  F: -1125.246994731001905  |grad|_K:  9.405e-08  alpha:  3.799e-01  linmin:  1.865e-08  t[s]:  59066.48
	FillingsUpdate:  mu: +0.584351543  nElectrons: 358.000000
	SubspaceRotationAdjust: set factor to 0.449
ElecMinimize: Iter:  16  F: -1125.246995173681171  |grad|_K:  5.110e-08  alpha:  3.012e-01  linmin:  1.602e-07  t[s]:  59747.42
	FillingsUpdate:  mu: +0.584349094  nElectrons: 358.000000
	SubspaceRotationAdjust: set factor to 0.474
ElecMinimize: Iter:  17  F: -1125.246995325900343  |grad|_K:  3.032e-08  alpha:  3.508e-01  linmin:  1.194e-07  t[s]:  60428.46
	FillingsUpdate:  mu: +0.584351820  nElectrons: 358.000000
	SubspaceRotationAdjust: set factor to 0.654
ElecMinimize: Iter:  18  F: -1125.246995403951132  |grad|_K:  1.809e-08  alpha:  5.113e-01  linmin:  4.162e-07  t[s]:  61109.09
	FillingsUpdate:  mu: +0.584352444  nElectrons: 358.000000
	SubspaceRotationAdjust: set factor to 0.865
ElecMinimize: Iter:  19  F: -1125.246995434139990  |grad|_K:  1.417e-08  alpha:  5.555e-01  linmin: -1.721e-07  t[s]:  61789.56
	FillingsUpdate:  mu: +0.584351733  nElectrons: 358.000000
	SubspaceRotationAdjust: set factor to 1.02
ElecMinimize: Iter:  20  F: -1125.246995450002032  |grad|_K:  1.127e-08  alpha:  4.754e-01  linmin:  7.216e-07  t[s]:  62470.25
	FillingsUpdate:  mu: +0.584351508  nElectrons: 358.000000
	SubspaceRotationAdjust: set factor to 0.884
ElecMinimize: Iter:  21  F: -1125.246995456439208  |grad|_K:  9.172e-09  alpha:  3.049e-01  linmin: -2.499e-07  t[s]:  63151.09
	FillingsUpdate:  mu: +0.584352693  nElectrons: 358.000000
	SubspaceRotationAdjust: set factor to 0.632
ElecMinimize: Iter:  22  F: -1125.246995459573554  |grad|_K:  6.123e-09  alpha:  2.228e-01  linmin: -9.528e-07  t[s]:  63832.02
ElecMinimize: Converged (|Delta F|<1.000000e-08 for 2 iters).
Setting wave functions to eigenvectors of Hamiltonian

# Ionic positions in cartesian coordinates:
ion Au   0.007631568622000   0.004160583850328   0.003486634121640 1
ion Au  -0.287317858437690   3.859929979791501   3.853848653976217 1
ion Au   3.854216609348032  -0.287399891135224   3.847810521265951 1
ion Au   3.854408855850145   3.854638455342409  -0.286530813738177 1
ion Au   0.003681115129073   0.003736557265640   7.705379932228773 1
ion Au  -0.041951841301029   3.855014289424567  11.565937898331550 1
ion Au   3.855532265047216  -0.041891341428988  11.565173005336568 1
ion Au   3.853812227388784   3.853747773381647   8.004139658750050 1
ion Au   0.003270048181313   7.707142336425712   0.002727885857312 1
ion Au  -0.042146716741897  11.566070916165271   3.855303044451924 1
ion Au   3.854000410004119   8.004497201854562   3.853848755965124 1
ion Au   3.855607743531617  11.564723720050614  -0.043283266397129 1
ion Au   0.003302621942004   7.707250549421331   7.707292939261499 1
ion Au  -0.003996768471782  11.565251769728862  11.565035008211574 1
ion Au   3.855159435203055   7.751950640459522  11.565663944908071 1
ion Au   3.855083885883126  11.566836381234538   7.751678679449835 1
ion Au   7.707427012682461   0.003395425441793   0.002727594881940 1
ion Au   8.004652795093152   3.853691453463053   3.853622000774414 1
ion Au  11.567374583169686  -0.041298396474735   3.854699998911811 1
ion Au  11.566487764767773   3.854520458012153  -0.042407068308446 1
ion Au   7.706266863556299   0.003047232328544   7.705989346725231 1
ion Au   7.752097612041036   3.855104308263572  11.565688694269593 1
ion Au  11.565709668097158  -0.003947348416589  11.565559167758629 1
ion Au  11.565862580575809   3.854808938753106   7.752532073935243 1
ion Au   7.706917663921909   7.706686302192669   0.003111760140757 1
ion Au   7.752336866563580  11.565995706725317   3.855228223374676 1
ion Au  11.565002752834882   7.752972135689313   3.854984528293668 1
ion Au  11.565688463932130  11.565741285210521  -0.003915613232900 1
ion Au   7.706737594109748   7.706800416954704   7.706830404421244 1
ion Au   7.714187917437235  11.565174628830318  11.565009262207093 1
ion Au  11.565049945115263   7.714028785417688  11.565161302155721 1
ion Au  11.565071149268118  11.565353060079442   7.714107142989283 1
ion O   3.868758165655684   3.868188685696841   3.869481698721265 1

# Forces in Cartesian coordinates:
force Au   0.000446314898536   0.000794734430876   0.000787087387423 1
force Au  -0.016668803811688  -0.000371392017774  -0.000088145134014 1
force Au  -0.000071678594538  -0.016676657729782   0.000179773456344 1
force Au  -0.000063885234428  -0.000070377410362  -0.016775312693550 1
force Au   0.000816691558473   0.000819000045186  -0.000834153366613 1
force Au  -0.003849772863901   0.000000195027019   0.000045622360863 1
force Au   0.000008480952806  -0.003860632827355   0.000053405969322 1
force Au  -0.000112711263595  -0.000107006009434   0.017573433441371 1
force Au   0.000775146300937  -0.000757447715459   0.000788849884430 1
force Au  -0.003885742973076   0.000037011853321  -0.000009696247150 1
force Au  -0.000097313006553   0.017499390663143  -0.000099895496443 1
force Au   0.000014405764275   0.000010479276675  -0.004001032310795 1
force Au   0.000787106664728  -0.000757317501754  -0.000783456673394 1
force Au  -0.001892012910657   0.000023012290119  -0.000022942274527 1
force Au   0.000016169183610   0.003865808657587   0.000028593427174 1
force Au   0.000009671490463   0.000087920026470   0.003916784776216 1
force Au  -0.000752662610765   0.000778344774483   0.000776144165091 1
force Au   0.017501304280571  -0.000109127370664  -0.000118045128336 1
force Au   0.000067204619857  -0.003865980174094  -0.000007521803208 1
force Au   0.000034523635911   0.000013619963233  -0.003961997783358 1
force Au  -0.000772006920242   0.000801250119085  -0.000838953272012 1
force Au   0.003874612767076  -0.000002289529816   0.000048802352476 1
force Au   0.000011989984613  -0.001907437088031  -0.000024845618778 1
force Au   0.000067892720656   0.000007757994087   0.003951330323809 1
force Au  -0.000763853993670  -0.000791825962680   0.000800189869194 1
force Au   0.003902660435748   0.000071348619095  -0.000004418718618 1
force Au   0.000034032517793   0.003917144977868   0.000013251403800 1
force Au   0.000011392599843   0.000019880435266  -0.001934958726939 1
force Au  -0.000791570484176  -0.000782036292212  -0.000804726944025 1
force Au   0.001916862738102   0.000001177689597  -0.000025915666944 1
force Au  -0.000006527160540   0.001900800054927  -0.000004937607938 1
force Au  -0.000004351388153   0.000021086098476   0.001944977875787 1
force O  -0.000556313747857  -0.000610924276793  -0.000492377315308 1

# Energy components:
   Eewald =    -1168.4641010454672596
       EH =      137.8266426142444629
     Eloc =     -106.0453709920916481
      Enl =     -129.6937640221531183
      Exc =    -1000.3551875304772238
 Exc_core =      730.5168913193288063
       KE =      410.9818649135702344
-------------------------------------
     Etot =    -1125.2330247430456893
       TS =        0.0139707165277958
-------------------------------------
        F =    -1125.2469954595735544

IonicMinimize: Iter:   3  F: -1125.246995459573554  |grad|_K:  4.472e-03  alpha:  6.303e-01  linmin: -9.945e-01  t[s]:  63970.19

#--- Lowdin population analysis ---
# oxidation-state Au +0.010 +0.088 +0.088 +0.088 +0.010 +0.004 +0.004 +0.090 +0.010 +0.004 +0.090 +0.004 +0.010 +0.005 +0.004 +0.004 +0.010 +0.090 +0.004 +0.004 +0.010 +0.004 +0.005 +0.004 +0.010 +0.004 +0.004 +0.005 +0.010 +0.005 +0.005 +0.005
# oxidation-state O -0.499


-------- Electronic minimization -----------
	FillingsUpdate:  mu: +0.603410398  nElectrons: 358.000000
ElecMinimize: Iter:   0  F: -1124.009556237121615  |grad|_K:  1.301e-04  alpha:  1.000e+00
	FillingsUpdate:  mu: +0.589599309  nElectrons: 358.000000
	SubspaceRotationAdjust: set factor to 0.404
ElecMinimize: Iter:   1  F: -1124.762394660449218  |grad|_K:  8.355e-05  alpha:  2.467e-01  linmin: -3.857e-03  t[s]:  65206.15
	FillingsUpdate:  mu: +0.586471443  nElectrons: 358.000000
	SubspaceRotationAdjust: set factor to 0.338
ElecMinimize: Iter:   2  F: -1125.063625294752001  |grad|_K:  3.226e-05  alpha:  2.480e-01  linmin: -2.511e-03  t[s]:  65887.03
	FillingsUpdate:  mu: +0.583907617  nElectrons: 358.000000
	SubspaceRotationAdjust: set factor to 0.349
ElecMinimize: Iter:   3  F: -1125.165360565922811  |grad|_K:  2.892e-05  alpha:  5.692e-01  linmin: -1.144e-04  t[s]:  66567.93
	FillingsUpdate:  mu: +0.584309739  nElectrons: 358.000000
	SubspaceRotationAdjust: set factor to 0.381
ElecMinimize: Iter:   4  F: -1125.237102222119347  |grad|_K:  1.368e-05  alpha:  5.151e-01  linmin:  8.559e-05  t[s]:  67248.95
	FillingsUpdate:  mu: +0.583646460  nElectrons: 358.000000
	SubspaceRotationAdjust: set factor to 0.447
ElecMinimize: Iter:   5  F: -1125.250474244566703  |grad|_K:  5.368e-06  alpha:  4.306e-01  linmin: -4.404e-05  t[s]:  67929.72
	FillingsUpdate:  mu: +0.583891904  nElectrons: 358.000000
	SubspaceRotationAdjust: set factor to 0.565
ElecMinimize: Iter:   6  F: -1125.253172613615106  |grad|_K:  3.261e-06  alpha:  5.633e-01  linmin: -4.855e-05  t[s]:  68610.51
	FillingsUpdate:  mu: +0.583544128  nElectrons: 358.000000
	SubspaceRotationAdjust: set factor to 0.624
ElecMinimize: Iter:   7  F: -1125.254010766635474  |grad|_K:  2.355e-06  alpha:  4.739e-01  linmin:  2.384e-05  t[s]:  69291.20
	FillingsUpdate:  mu: +0.583857011  nElectrons: 358.000000
	SubspaceRotationAdjust: set factor to 0.597
ElecMinimize: Iter:   8  F: -1125.254485295174618  |grad|_K:  1.528e-06  alpha:  5.152e-01  linmin: -2.242e-05  t[s]:  69972.04
	FillingsUpdate:  mu: +0.583751713  nElectrons: 358.000000
	SubspaceRotationAdjust: set factor to 0.447
ElecMinimize: Iter:   9  F: -1125.254622841247738  |grad|_K:  1.047e-06  alpha:  3.540e-01  linmin:  2.532e-06  t[s]:  70652.50
	FillingsUpdate:  mu: +0.583786208  nElectrons: 358.000000
	SubspaceRotationAdjust: set factor to 0.356
ElecMinimize: Iter:  10  F: -1125.254682430597768  |grad|_K:  5.516e-07  alpha:  3.275e-01  linmin: -1.277e-05  t[s]:  71333.20
	FillingsUpdate:  mu: +0.583772488  nElectrons: 358.000000
	SubspaceRotationAdjust: set factor to 0.356
ElecMinimize: Iter:  11  F: -1125.254703823217824  |grad|_K:  2.239e-07  alpha:  4.230e-01  linmin:  1.418e-06  t[s]:  72013.70
	FillingsUpdate:  mu: +0.583796796  nElectrons: 358.000000
	SubspaceRotationAdjust: set factor to 0.441
ElecMinimize: Iter:  12  F: -1125.254708180642410  |grad|_K:  1.614e-07  alpha:  5.234e-01  linmin: -3.414e-07  t[s]:  72693.82
	FillingsUpdate:  mu: +0.583782877  nElectrons: 358.000000
	SubspaceRotationAdjust: set factor to 0.465
ElecMinimize: Iter:  13  F: -1125.254709992092330  |grad|_K:  1.049e-07  alpha:  4.184e-01  linmin: -7.454e-07  t[s]:  73374.78
	FillingsUpdate:  mu: +0.583768740  nElectrons: 358.000000
	SubspaceRotationAdjust: set factor to 0.519
ElecMinimize: Iter:  14  F: -1125.254710940205541  |grad|_K:  8.132e-08  alpha:  5.188e-01  linmin:  2.204e-08  t[s]:  74055.88
	FillingsUpdate:  mu: +0.583782293  nElectrons: 358.000000
	SubspaceRotationAdjust: set factor to 0.518
ElecMinimize: Iter:  15  F: -1125.254711478108447  |grad|_K:  5.650e-08  alpha:  4.895e-01  linmin: -4.218e-07  t[s]:  74736.60
	FillingsUpdate:  mu: +0.583773570  nElectrons: 358.000000
	SubspaceRotationAdjust: set factor to 0.584
ElecMinimize: Iter:  16  F: -1125.254711703911198  |grad|_K:  2.806e-08  alpha:  4.257e-01  linmin: -2.247e-08  t[s]:  75417.38
	FillingsUpdate:  mu: +0.583774032  nElectrons: 358.000000
	SubspaceRotationAdjust: set factor to 0.669
ElecMinimize: Iter:  17  F: -1125.254711783974017  |grad|_K:  1.567e-08  alpha:  6.121e-01  linmin: -3.230e-08  t[s]:  76098.41
	FillingsUpdate:  mu: +0.583776770  nElectrons: 358.000000
	SubspaceRotationAdjust: set factor to 0.661
ElecMinimize: Iter:  18  F: -1125.254711802057273  |grad|_K:  1.165e-08  alpha:  4.441e-01  linmin: -5.663e-09  t[s]:  76779.03
	FillingsUpdate:  mu: +0.583775395  nElectrons: 358.000000
	SubspaceRotationAdjust: set factor to 0.516
ElecMinimize: Iter:  19  F: -1125.254711809400533  |grad|_K:  8.085e-09  alpha:  3.252e-01  linmin:  2.599e-06  t[s]:  77459.43
	FillingsUpdate:  mu: +0.583775485  nElectrons: 358.000000
	SubspaceRotationAdjust: set factor to 0.486
ElecMinimize: Iter:  20  F: -1125.254711812890946  |grad|_K:  4.716e-09  alpha:  3.242e-01  linmin: -8.781e-07  t[s]:  78140.23
ElecMinimize: Converged (|Delta F|<1.000000e-08 for 2 iters).
Setting wave functions to eigenvectors of Hamiltonian

# Ionic positions in cartesian coordinates:
ion Au   0.013690691169112   0.013196632051009   0.012439212778825 1
ion Au  -0.382668169551933   3.856905109505483   3.853428402559394 1
ion Au   3.854099943288208  -0.383051796731079   3.849924227283043 1
ion Au   3.854245062034925   3.854291230846519  -0.382670331823268 1
ion Au   0.012967424812235   0.013074054029769   7.695977475789841 1
ion Au  -0.086534833383118   3.855031691031139  11.566439378445265 1
ion Au   3.855545249319967  -0.086624066522782  11.565953364170042 1
ion Au   3.853264116622287   3.853453583400222   8.102983398598244 1
ion Au   0.012233139565297   7.698335150648038   0.011905158531535 1
ion Au  -0.087111503420127  11.566440943598055   3.855178680950903 1
ion Au   3.853465987567315   8.102365534287129   3.853402757288371 1
ion Au   3.855694005100950  11.565023868921568  -0.089520850173626 1
ion Au   0.012484037874825   7.698344481117191   7.698079438990855 1
ion Au  -0.023541770931249  11.565519112713920  11.564774332712945 1
ion Au   3.855330195184982   7.796642307124674  11.565904676550234 1
ion Au   3.855181417686642  11.567726159879337   7.796914630135015 1
ion Au   7.698589549362747   0.012393702924704   0.011733733822183 1
ion Au   8.102732921471034   3.853199045461530   3.852951948088640 1
ion Au  11.568017025766526  -0.086097315139969   3.854713230995767 1
ion Au  11.566832079041095   3.854793586489420  -0.088234469888011 1
ion Au   7.697402889528147   0.012351487150168   7.696347371053397 1
ion Au   7.796888596625037   3.855090009678523  11.566182655921779 1
ion Au  11.565762144350437  -0.023690795509265  11.565149224313487 1
ion Au  11.566571314990636   3.854904800515348   7.798130547280606 1
ion Au   7.698068025546090   7.697498450085587   0.012389097633403 1
ion Au   7.797440715648712  11.566802135502463   3.855141914194521 1
ion Au  11.565409143505192   7.798220329702035   3.855089027207249 1
ion Au  11.565736545055778  11.565849756190497  -0.023937899639876 1
ion Au   7.697444471945344   7.697606462149857   7.697404529499121 1
ion Au   7.734040748569085  11.565183828177394  11.564713544762199 1
ion Au  11.564962773481168   7.733705443213574  11.565088982193542 1
ion Au  11.565006074161293  11.565576811097312   7.734211082795291 1
ion O   3.866672988011368   3.865861266410631   3.867734526979083 1

# Forces in Cartesian coordinates:
force Au   0.000863108437531   0.000883191814860   0.000933924504659 1
force Au  -0.003206763932775  -0.000074953783943  -0.000013277139458 1
force Au  -0.000003551770983  -0.003202601074111   0.000060650644771 1
force Au   0.000006019604953   0.000002973913792  -0.002982354782674 1
force Au   0.000937176663089   0.000926849857420  -0.000923786735832 1
force Au  -0.001693617460491   0.000019279225028   0.000035736427912 1
force Au  -0.000000335207339  -0.001695881739069   0.000059159308598 1
force Au   0.000012683109964   0.000006388346516   0.003067850192238 1
force Au   0.000927947267447  -0.000927944566972   0.000992493364401 1
force Au  -0.001665741466872   0.000024968407759  -0.000024520236560 1
force Au   0.000022611932667   0.003265599487213  -0.000006106035503 1
force Au  -0.000005508862040   0.000085040152023  -0.001620453265139 1
force Au   0.000951309575754  -0.000933214370942  -0.000996094444810 1
force Au  -0.001887573951743   0.000001940469736  -0.000025149922748 1
force Au   0.000006564826020   0.001714145144193   0.000007157317550 1
force Au   0.000009047768478  -0.000025971745463   0.001667779717208 1
force Au  -0.000934589865596   0.000918802286428   0.000978291893115 1
force Au   0.003259408415007   0.000026831909576   0.000005082910470 1
force Au  -0.000033313958251  -0.001705334671750   0.000005887324469 1
force Au   0.000017302163570   0.000046547829221  -0.001655590980207 1
force Au  -0.000897571837810   0.000995344456341  -0.000959632862262 1
force Au   0.001706750408299  -0.000011900743409   0.000016214219101 1
force Au  -0.000024121634614  -0.001888854267388  -0.000051193211849 1
force Au   0.000021307400030   0.000027190842244   0.001633203375890 1
force Au  -0.000930540179569  -0.000919496421430   0.001014716965118 1
force Au   0.001678485015282   0.000018766121970  -0.000011381112414 1
force Au   0.000068069427490   0.001648432237773   0.000033868381691 1
force Au  -0.000038602020918  -0.000037518721893  -0.001985307514155 1
force Au  -0.000958921006264  -0.000961325027346  -0.001013709187764 1
force Au   0.001905188876624  -0.000006244421336  -0.000030955084106 1
force Au   0.000002013464107   0.001913337619266  -0.000020730178752 1
force Au   0.000013772011688   0.000006892729255   0.001969181214387 1
force O  -0.000148450741680  -0.000163908751030  -0.000142147933373 1

# Energy components:
   Eewald =    -1169.0011055725692586
       EH =      137.2855787837474395
     Eloc =     -104.9351465844585505
      Enl =     -129.6750752363481070
      Exc =    -1000.3454226111479102
 Exc_core =      730.5171229186564688
       KE =      410.9131004885142033
-------------------------------------
     Etot =    -1125.2409478136059988
       TS =        0.0137639992848856
-------------------------------------
        F =    -1125.2547118128909460

IonicMinimize: Iter:   4  F: -1125.254711812890946  |grad|_K:  1.179e-03  alpha:  1.000e+00  linmin: -9.294e-01  t[s]:  78278.52

#--- Lowdin population analysis ---
# oxidation-state Au +0.013 +0.084 +0.084 +0.084 +0.013 +0.003 +0.003 +0.085 +0.013 +0.003 +0.085 +0.003 +0.013 +0.006 +0.003 +0.003 +0.013 +0.085 +0.003 +0.003 +0.013 +0.003 +0.006 +0.003 +0.013 +0.003 +0.003 +0.006 +0.013 +0.006 +0.006 +0.006
# oxidation-state O -0.493


-------- Electronic minimization -----------
	FillingsUpdate:  mu: +0.588119460  nElectrons: 358.000000
ElecMinimize: Iter:   0  F: -1125.021112852581155  |grad|_K:  5.185e-05  alpha:  1.000e+00
	FillingsUpdate:  mu: +0.584293705  nElectrons: 358.000000
	SubspaceRotationAdjust: set factor to 0.347
ElecMinimize: Iter:   1  F: -1125.191462520433788  |grad|_K:  2.650e-05  alpha:  3.727e-01  linmin: -3.008e-03  t[s]:  79512.83
	FillingsUpdate:  mu: +0.584691013  nElectrons: 358.000000
	SubspaceRotationAdjust: set factor to 0.228
ElecMinimize: Iter:   2  F: -1125.222837179829867  |grad|_K:  1.282e-05  alpha:  2.697e-01  linmin: -4.305e-04  t[s]:  80193.48
ElecMinimize: 	Predicted alpha/alphaT>3.000000, increasing alphaT to 8.089717e-01.
	FillingsUpdate:  mu: +0.583773274  nElectrons: 358.000000
	SubspaceRotationAdjust: set factor to 0.257
ElecMinimize: Iter:   3  F: -1125.245823156624510  |grad|_K:  1.082e-05  alpha:  8.359e-01  linmin: -5.537e-06  t[s]:  81032.18
	FillingsUpdate:  mu: +0.583730216  nElectrons: 358.000000
	SubspaceRotationAdjust: set factor to 0.332
ElecMinimize: Iter:   4  F: -1125.253113424710136  |grad|_K:  4.505e-06  alpha:  3.746e-01  linmin: -5.049e-05  t[s]:  81713.23
	FillingsUpdate:  mu: +0.583522520  nElectrons: 358.000000
	SubspaceRotationAdjust: set factor to 0.379
ElecMinimize: Iter:   5  F: -1125.254657592933427  |grad|_K:  2.311e-06  alpha:  4.577e-01  linmin: -3.821e-06  t[s]:  82394.03
	FillingsUpdate:  mu: +0.583594025  nElectrons: 358.000000
	SubspaceRotationAdjust: set factor to 0.496
ElecMinimize: Iter:   6  F: -1125.255167086468646  |grad|_K:  1.467e-06  alpha:  5.740e-01  linmin: -1.236e-05  t[s]:  83074.95
	FillingsUpdate:  mu: +0.583383619  nElectrons: 358.000000
	SubspaceRotationAdjust: set factor to 0.445
ElecMinimize: Iter:   7  F: -1125.255405683104755  |grad|_K:  1.300e-06  alpha:  6.675e-01  linmin:  2.141e-05  t[s]:  83755.62
	FillingsUpdate:  mu: +0.583596429  nElectrons: 358.000000
	SubspaceRotationAdjust: set factor to 0.37
ElecMinimize: Iter:   8  F: -1125.255514099862239  |grad|_K:  7.931e-07  alpha:  3.867e-01  linmin:  7.887e-06  t[s]:  84436.48
	FillingsUpdate:  mu: +0.583578428  nElectrons: 358.000000
	SubspaceRotationAdjust: set factor to 0.329
ElecMinimize: Iter:   9  F: -1125.255566515061219  |grad|_K:  4.579e-07  alpha:  5.017e-01  linmin:  3.399e-06  t[s]:  85117.29
	FillingsUpdate:  mu: +0.583527105  nElectrons: 358.000000
	SubspaceRotationAdjust: set factor to 0.36
ElecMinimize: Iter:  10  F: -1125.255579532488582  |grad|_K:  2.149e-07  alpha:  3.738e-01  linmin:  9.873e-08  t[s]:  85797.95
	FillingsUpdate:  mu: +0.583554372  nElectrons: 358.000000
	SubspaceRotationAdjust: set factor to 0.398
ElecMinimize: Iter:  11  F: -1125.255583014082504  |grad|_K:  1.112e-07  alpha:  4.539e-01  linmin: -6.366e-07  t[s]:  86478.57
	FillingsUpdate:  mu: +0.583552350  nElectrons: 358.000000
	SubspaceRotationAdjust: set factor to 0.485
ElecMinimize: Iter:  12  F: -1125.255584143054421  |grad|_K:  5.794e-08  alpha:  5.499e-01  linmin: -8.011e-07  t[s]:  87159.12
	FillingsUpdate:  mu: +0.583547712  nElectrons: 358.000000
	SubspaceRotationAdjust: set factor to 0.616
ElecMinimize: Iter:  13  F: -1125.255584517811940  |grad|_K:  4.374e-08  alpha:  6.718e-01  linmin: -1.304e-07  t[s]:  87839.47
	FillingsUpdate:  mu: +0.583547614  nElectrons: 358.000000
	SubspaceRotationAdjust: set factor to 0.705
ElecMinimize: Iter:  14  F: -1125.255584669731888  |grad|_K:  3.217e-08  alpha:  4.780e-01  linmin: -3.172e-07  t[s]:  88520.35
	FillingsUpdate:  mu: +0.583549543  nElectrons: 358.000000
	SubspaceRotationAdjust: set factor to 0.618
ElecMinimize: Iter:  15  F: -1125.255584736612718  |grad|_K:  2.258e-08  alpha:  3.891e-01  linmin: -3.110e-08  t[s]:  89201.39
	FillingsUpdate:  mu: +0.583547096  nElectrons: 358.000000
	SubspaceRotationAdjust: set factor to 0.424
ElecMinimize: Iter:  16  F: -1125.255584761029922  |grad|_K:  1.439e-08  alpha:  2.881e-01  linmin:  2.458e-07  t[s]:  89881.84
	FillingsUpdate:  mu: +0.583548056  nElectrons: 358.000000
	SubspaceRotationAdjust: set factor to 0.416
ElecMinimize: Iter:  17  F: -1125.255584774217596  |grad|_K:  7.685e-09  alpha:  3.846e-01  linmin:  3.887e-06  t[s]:  90562.81
	FillingsUpdate:  mu: +0.583548377  nElectrons: 358.000000
	SubspaceRotationAdjust: set factor to 0.533
ElecMinimize: Iter:  18  F: -1125.255584779556557  |grad|_K:  4.555e-09  alpha:  5.468e-01  linmin:  2.346e-07  t[s]:  91243.87
	FillingsUpdate:  mu: +0.583547910  nElectrons: 358.000000
	SubspaceRotationAdjust: set factor to 0.566
ElecMinimize: Iter:  19  F: -1125.255584781054495  |grad|_K:  3.428e-09  alpha:  4.392e-01  linmin: -2.041e-06  t[s]:  91925.14
ElecMinimize: Converged (|Delta F|<1.000000e-08 for 2 iters).
Setting wave functions to eigenvectors of Hamiltonian

# Ionic positions in cartesian coordinates:
ion Au   0.023050837224583   0.022992859429414   0.022721295474923 1
ion Au  -0.415008610455164   3.855974730228939   3.853317906255379 1
ion Au   3.854146370305635  -0.415407204949921   3.850777122978074 1
ion Au   3.854368503315626   3.854357387763944  -0.412728826088168 1
ion Au   0.023322007894240   0.023333184921338   7.685745490223937 1
ion Au  -0.108348886688155   3.855237295805479  11.566854987321735 1
ion Au   3.855547121931749  -0.108475790313376  11.566642275091652 1
ion Au   3.853436777189871   3.853610054592831   8.133349034225773 1
ion Au   0.022481103761134   7.688113765202102   0.022814672737973 1
ion Au  -0.108674003876701  11.566743156458784   3.854920815078068 1
ion Au   3.853720507660259   8.134654906432051   3.853378963174648 1
ion Au   3.855651837412221  11.565936735694571  -0.110754774408404 1
ion Au   0.022999672893232   7.688049003782294   7.687111081022632 1
ion Au  -0.044088956041338  11.565571153382214  11.564493914787027 1
ion Au   3.855417933078130   7.818674899819309  11.565993354819737 1
ion Au   3.855286880988559  11.567560949465005   7.818501950924533 1
ion Au   7.688291230630239   0.022554447131672   0.022481135324169 1
ion Au   8.135007492575699   3.853519766978860   3.853016034487394 1
ion Au  11.567765850411506  -0.108039149119530   3.854779703222491 1
ion Au  11.567062827539111   3.855302184461865  -0.109778362633332 1
ion Au   7.687483210432692   0.023313590926733   7.685717130784854 1
ion Au   7.818856924093116   3.854977968916713  11.566388064828370 1
ion Au  11.565527817269201  -0.044269440863928  11.564584030962992 1
ion Au  11.566857878903271   3.855191900740820   7.819409701898709 1
ion Au   7.687816627586254   7.687323848107577   0.023535678918145 1
ion Au   7.819151941826207  11.567082506023608   3.855015732754525 1
ion Au  11.566140060800741   7.819648602816332   3.855431270610819 1
ion Au  11.565354897789177  11.565480095381989  -0.045521377347111 1
ion Au   7.686846175144308   7.686992130538313   7.686235080573734 1
ion Au   7.754811293144528  11.565128546466928  11.564370612273217 1
ion Au  11.564979243990692   7.754542154435765  11.564869043464821 1
ion Au  11.565143664151734  11.565674327288310   7.755631188548145 1
ion O   3.865516767117650   3.864572432052999   3.866619067708540 1

# Forces in Cartesian coordinates:
force Au   0.000478663224272   0.000490870271804   0.000515018775520 1
force Au   0.000174798936784  -0.000031933033536   0.000028891515172 1
force Au   0.000011575274107   0.000176415155718   0.000088775365697 1
force Au   0.000024039897608   0.000037322938755   0.000053964170446 1
force Au   0.000514799267483   0.000506344954465  -0.000502069562377 1
force Au  -0.000370668821462   0.000020769833637  -0.000022140544699 1
force Au   0.000009712057372  -0.000367322189068  -0.000027436859775 1
force Au   0.000022467187920   0.000016311258794  -0.000111482426335 1
force Au   0.000546391618119  -0.000475141548594   0.000546571582131 1
force Au  -0.000509448177789  -0.000009741543097  -0.000027533367972 1
force Au   0.000018372233312  -0.000271338119669  -0.000015941217717 1
force Au   0.000003284420658  -0.000005345854605  -0.000388637347840 1
force Au   0.000527984909934  -0.000528439348549  -0.000551905964116 1
force Au  -0.000117471148419  -0.000023328163958   0.000001748359706 1
force Au   0.000008177377507   0.000403962850446   0.000039567831692 1
force Au   0.000016152195568  -0.000017205099426   0.000446565577297 1
force Au  -0.000474399767070   0.000535346059477   0.000548604226880 1
force Au  -0.000274259532663   0.000030188447774  -0.000005186721238 1
force Au  -0.000041226406784  -0.000533140265627  -0.000024996528843 1
force Au  -0.000026082846085   0.000017005901470  -0.000414990046288 1
force Au  -0.000531849725970   0.000524401068828  -0.000524359984890 1
force Au   0.000394850027932   0.000018354913704   0.000025002219747 1
force Au  -0.000018234696426  -0.000107133786674  -0.000002762360955 1
force Au   0.000003957692915   0.000022908551819   0.000424012739246 1
force Au  -0.000507854471129  -0.000484620474484   0.000555446685181 1
force Au   0.000533773423339  -0.000024577417189   0.000030138466002 1
force Au   0.000010847870494   0.000519245557459   0.000040268761057 1
force Au  -0.000023092337699  -0.000030705498432  -0.000199911319982 1
force Au  -0.000517666562641  -0.000522461157237  -0.000554512504669 1
force Au   0.000113669570690  -0.000014255792368  -0.000030662589604 1
force Au  -0.000007049679734   0.000130470943111  -0.000030957278389 1
force Au  -0.000002889008707  -0.000020037089045   0.000157346487184 1
force O  -0.000094681666623  -0.000088346342464  -0.000084132241039 1

# Energy components:
   Eewald =    -1169.0787001687447173
       EH =      137.1939074773743243
     Eloc =     -104.7566527065976203
      Enl =     -129.6639656790002277
      Exc =    -1000.3433196246834314
 Exc_core =      730.5172324608906820
       KE =      410.8896300532385908
-------------------------------------
     Etot =    -1125.2418681875226412
       TS =        0.0137165935319225
-------------------------------------
        F =    -1125.2555847810544947

IonicMinimize: Iter:   5  F: -1125.255584781054495  |grad|_K:  3.062e-04  alpha:  1.000e+00  linmin: -5.781e-01  t[s]:  92063.10

#--- Lowdin population analysis ---
# oxidation-state Au +0.014 +0.082 +0.082 +0.082 +0.014 +0.003 +0.003 +0.083 +0.014 +0.003 +0.083 +0.003 +0.014 +0.007 +0.003 +0.003 +0.014 +0.083 +0.003 +0.003 +0.014 +0.003 +0.007 +0.003 +0.014 +0.003 +0.003 +0.007 +0.014 +0.007 +0.007 +0.007
# oxidation-state O -0.490


-------- Electronic minimization -----------
	FillingsUpdate:  mu: +0.583538479  nElectrons: 358.000000
ElecMinimize: Iter:   0  F: -1125.255547861086825  |grad|_K:  8.256e-07  alpha:  1.000e+00
	FillingsUpdate:  mu: +0.583503492  nElectrons: 358.000000
	SubspaceRotationAdjust: set factor to 0.558
ElecMinimize: Iter:   1  F: -1125.255607580405695  |grad|_K:  4.455e-07  alpha:  5.273e-01  linmin: -1.107e-06  t[s]:  93339.50
	FillingsUpdate:  mu: +0.583515581  nElectrons: 358.000000
	SubspaceRotationAdjust: set factor to 0.655
ElecMinimize: Iter:   2  F: -1125.255627618151266  |grad|_K:  3.197e-07  alpha:  6.077e-01  linmin:  2.975e-06  t[s]:  94021.11
	FillingsUpdate:  mu: +0.583524779  nElectrons: 358.000000
	SubspaceRotationAdjust: set factor to 0.622
ElecMinimize: Iter:   3  F: -1125.255635593407305  |grad|_K:  1.997e-07  alpha:  4.697e-01  linmin: -3.920e-07  t[s]:  94702.29
	FillingsUpdate:  mu: +0.583509127  nElectrons: 358.000000
	SubspaceRotationAdjust: set factor to 0.49
[...]
ion Au  11.566753046765976   3.855554142568764  -0.115338559427880 1
ion Au   7.680450426104203   0.030278744302370   7.678774128706272 1
ion Au   7.824163136717000   3.855282254063630  11.566744373507358 1
ion Au  11.565336619436207  -0.045076263556039  11.564582047502597 1
ion Au  11.566958063911537   3.855540657796118   7.825122251586574 1
ion Au   7.681140712806627   7.680965247371141   0.030888558947013 1
ion Au   7.826404212421551  11.566787247872746   3.855449356006498 1
ion Au  11.566304586816447   7.826719612600932   3.855985247789593 1
ion Au  11.565101731164296  11.565123338882202  -0.047617416236422 1
ion Au   7.680047648139420   7.680129814314194   7.678910289915319 1
ion Au   7.755791400785216  11.564977585305813  11.563962130347655 1
ion Au  11.564923180993414   7.755751289483761  11.564454678207740 1
ion Au  11.565140995632685  11.565440154683582   7.757157908169911 1
ion O   3.864092833061373   3.863223677087304   3.865324855520991 1

# Forces in Cartesian coordinates:
force Au   0.000048314257756   0.000028105682229   0.000030439316696 1
force Au  -0.000088991872482  -0.000011155216831  -0.000002854043218 1
force Au   0.000016071706918  -0.000088351443093   0.000022704925566 1
force Au   0.000001566557957  -0.000011938834026   0.000098316605244 1
force Au  -0.000004154415909   0.000005734523491  -0.000023654888754 1
force Au   0.000125427882546   0.000009073463792   0.000028445662386 1
force Au  -0.000001870820791   0.000125034981947   0.000057356563042 1
force Au   0.000036764122166   0.000049509793802  -0.000192765864584 1
force Au  -0.000010223987626  -0.000058450146258   0.000051424190479 1
force Au   0.000317372073459   0.000006080965800   0.000002224492418 1
force Au   0.000023792453493  -0.000012666487425   0.000039518356421 1
force Au   0.000027020731699   0.000088336127083   0.000278887484006 1
force Au   0.000068637081654  -0.000016668691366  -0.000053328856859 1
force Au  -0.000412043591115   0.000011304485919  -0.000011777601523 1
force Au   0.000005780481938  -0.000130896556838  -0.000030730258908 1
force Au  -0.000019489990917  -0.000066747349827  -0.000257252079485 1
force Au  -0.000069087451746  -0.000002928450980   0.000045824463592 1
force Au  -0.000007139282707   0.000029513235481   0.000035150515564 1
force Au  -0.000014656803541   0.000307246620130   0.000014964581089 1
force Au   0.000041527054108   0.000046574661417   0.000267006165835 1
force Au   0.000009063312854   0.000058168171628  -0.000034477098379 1
force Au  -0.000128515745156   0.000015227345527  -0.000021973063345 1
force Au  -0.000000010249396  -0.000414226156855  -0.000025655254952 1
force Au  -0.000043676569698  -0.000021818440173  -0.000268293178536 1
force Au  -0.000003756229321  -0.000010541061521   0.000044634970423 1
force Au  -0.000331433586869   0.000001747159271   0.000000405543974 1
force Au   0.000018954285101  -0.000343529009959  -0.000010454588288 1
force Au  -0.000015273376630  -0.000019172007785  -0.000534932786216 1
force Au  -0.000052270231845  -0.000051217181267  -0.000045484506680 1
force Au   0.000406630945568   0.000018765025729   0.000009519915197 1
force Au   0.000012551290953   0.000403102911052   0.000006815943775 1
force Au   0.000027101582906   0.000032616138610   0.000520110155560 1
force O  -0.000078740011889  -0.000071622572669  -0.000056815165818 1

# Energy components:
   Eewald =    -1169.0754868438064022
       EH =      137.1936239959899808
     Eloc =     -104.7587831160464873
      Enl =     -129.6610260677238671
      Exc =    -1000.3424122460456829
 Exc_core =      730.5172740376333422
       KE =      410.8848771697960842
-------------------------------------
     Etot =    -1125.2419330702030038
       TS =        0.0137053705077147
-------------------------------------
        F =    -1125.2556384407107544

IonicMinimize: Iter:   6  F: -1125.255638440710754  |grad|_K:  1.476e-04  alpha:  1.000e+00  linmin:  1.595e-01  t[s]:  99610.73

#--- Lowdin population analysis ---
# oxidation-state Au +0.014 +0.082 +0.082 +0.082 +0.014 +0.003 +0.003 +0.082 +0.014 +0.003 +0.082 +0.003 +0.015 +0.007 +0.003 +0.003 +0.014 +0.082 +0.003 +0.003 +0.015 +0.003 +0.007 +0.003 +0.015 +0.003 +0.003 +0.007 +0.015 +0.007 +0.007 +0.007
# oxidation-state O -0.489


-------- Electronic minimization -----------
	FillingsUpdate:  mu: +0.583513915  nElectrons: 358.000000
ElecMinimize: Iter:   0  F: -1125.255627528947343  |grad|_K:  3.465e-07  alpha:  1.000e+00
	FillingsUpdate:  mu: +0.583515715  nElectrons: 358.000000
	SubspaceRotationAdjust: set factor to 0.411
ElecMinimize: Iter:   1  F: -1125.255636267361524  |grad|_K:  1.382e-07  alpha:  4.379e-01  linmin: -3.418e-07  t[s]: 100888.18
	FillingsUpdate:  mu: +0.583510220  nElectrons: 358.000000
	SubspaceRotationAdjust: set factor to 0.52
ElecMinimize: Iter:   2  F: -1125.255638791127467  |grad|_K:  1.195e-07  alpha:  7.955e-01  linmin: -9.327e-07  t[s]: 101569.80
	FillingsUpdate:  mu: +0.583515023  nElectrons: 358.000000
	SubspaceRotationAdjust: set factor to 0.611
ElecMinimize: Iter:   3  F: -1125.255640241052561  |grad|_K:  1.018e-07  alpha:  6.107e-01  linmin:  5.765e-08  t[s]: 102250.77
	FillingsUpdate:  mu: +0.583512710  nElectrons: 358.000000
	SubspaceRotationAdjust: set factor to 0.624
ElecMinimize: Iter:   4  F: -1125.255641022540203  |grad|_K:  4.919e-08  alpha:  4.540e-01  linmin: -2.934e-07  t[s]: 102931.60
	FillingsUpdate:  mu: +0.583511765  nElectrons: 358.000000
	SubspaceRotationAdjust: set factor to 0.69
ElecMinimize: Iter:   5  F: -1125.255641235636176  |grad|_K:  2.590e-08  alpha:  5.301e-01  linmin:  6.084e-07  t[s]: 103612.66
	FillingsUpdate:  mu: +0.583513909  nElectrons: 358.000000
	SubspaceRotationAdjust: set factor to 0.698
ElecMinimize: Iter:   6  F: -1125.255641281460839  |grad|_K:  1.524e-08  alpha:  4.115e-01  linmin: -7.846e-07  t[s]: 104310.44
	FillingsUpdate:  mu: +0.583512328  nElectrons: 358.000000
	SubspaceRotationAdjust: set factor to 0.64
ElecMinimize: Iter:   7  F: -1125.255641297012744  |grad|_K:  8.832e-09  alpha:  4.022e-01  linmin:  2.800e-06  t[s]: 105008.69
	FillingsUpdate:  mu: +0.583513263  nElectrons: 358.000000
	SubspaceRotationAdjust: set factor to 0.519
ElecMinimize: Iter:   8  F: -1125.255641302307595  |grad|_K:  7.102e-09  alpha:  4.097e-01  linmin: -2.331e-06  t[s]: 105706.53
	FillingsUpdate:  mu: +0.583512932  nElectrons: 358.000000
	SubspaceRotationAdjust: set factor to 0.443
ElecMinimize: Iter:   9  F: -1125.255641304609071  |grad|_K:  3.697e-09  alpha:  2.744e-01  linmin:  2.044e-06  t[s]: 106404.51
ElecMinimize: Converged (|Delta F|<1.000000e-08 for 2 iters).
Setting wave functions to eigenvectors of Hamiltonian

# Ionic positions in cartesian coordinates:
ion Au   0.030541622777502   0.030611427359791   0.030636439261893 1
ion Au  -0.418671611056418   3.855364879914808   3.853727777024112 1
ion Au   3.854520535845112  -0.419034665757185   3.852407413158158 1
ion Au   3.854803919707739   3.854884617403505  -0.416746174567346 1
ion Au   0.030973883422345   0.030952509152081   7.678095926863062 1
ion Au  -0.112605951542197   3.855713918830470  11.566777084112115 1
ion Au   3.855768332792212  -0.112680015582170  11.566721763516163 1
ion Au   3.854158332065232   3.854352897055051   8.135891355331271 1
ion Au   0.030567498599457   7.680665295994107   0.031370581878267 1
ion Au  -0.113338142055321  11.566724299669687   3.854539307301928 1
ion Au   3.854257680050386   8.136317720404513   3.853472158416175 1
ion Au   3.856047468466014  11.566695000855757  -0.113990049100241 1
ion Au   0.031520205754476   7.680160973267352   7.678483580201605 1
ion Au  -0.048756128478060  11.565388089454508  11.564436960608294 1
ion Au   3.855675532389934   7.823547651621350  11.566347514232936 1
ion Au   3.855429930788092  11.566786858753186   7.822823554656357 1
ion Au   7.680764259727723   0.030544161431460   0.031025629017743 1
ion Au   8.136674827432223   3.854285091708179   3.853227285171930 1
ion Au  11.567112777400268  -0.113131367754764   3.854527117799607 1
ion Au  11.567128381212591   3.856045254313610  -0.113503587730664 1
ion Au   7.679738917781518   0.031651294028642   7.677651140013947 1
ion Au   7.823614310072535   3.855495078662785  11.566589805370242 1
ion Au  11.565342462236858  -0.048791481587178  11.564353013866466 1
ion Au  11.566587438896320   3.855404908273144   7.823308154468489 1
ion Au   7.680362556323852   7.680162637593635   0.032160297783804 1
ion Au   7.824215594436295  11.566791885679290   3.855517699416416 1
ion Au  11.566521136983182   7.824399745604262   3.855960337529218 1
ion Au  11.564958361327085  11.564929689496232  -0.052645092988914 1
ion Au   7.678799991743374   7.678884554710893   7.677643084037485 1
ion Au   7.759510367231369  11.565161904404318  11.564005984720128 1
ion Au  11.565059637314533   7.759465846885965  11.564471508600205 1
ion Au  11.565419327774247  11.565742115883150   7.761983295728473 1
ion O   3.863219542579532   3.862430222269562   3.864652134300675 1

# Forces in Cartesian coordinates:
force Au  -0.000068088221296  -0.000056368782929  -0.000048822213320 1
force Au   0.000135095767915  -0.000022245986196   0.000024885291296 1
force Au   0.000001744303321   0.000141828719559   0.000059571817599 1
force Au   0.000018488309691   0.000022474780379   0.000034616563015 1
force Au  -0.000035774821016  -0.000040479243997   0.000079410578868 1
force Au  -0.000098435194268  -0.000004254119121  -0.000039216911201 1
force Au  -0.000004715805545  -0.000091169839418  -0.000054469761592 1
force Au  -0.000010237972995  -0.000022358246369  -0.000057246646287 1
force Au  -0.000023187818396   0.000071904723509  -0.000054767313941 1
force Au  -0.000220711239961  -0.000013901005627  -0.000017979703191 1
force Au   0.000006037943529  -0.000170772322365  -0.000027525600390 1
force Au  -0.000014779798784  -0.000052493840886  -0.000146229085555 1
force Au  -0.000067501752042   0.000037650674310   0.000057783148097 1
force Au   0.000326237640485  -0.000004376777727   0.000017143428231 1
force Au  -0.000003970429683   0.000118741438120   0.000037171462355 1
force Au   0.000003512220336   0.000016690597809   0.000175087066766 1
force Au   0.000075038120480  -0.000026080095189  -0.000048063141713 1
force Au  -0.000177340272934   0.000005775141087  -0.000014897966829 1
force Au  -0.000020307769995  -0.000222338018706  -0.000024176795760 1
force Au  -0.000041995142989  -0.000022065138528  -0.000157116390434 1
force Au   0.000038660689523  -0.000062027829439   0.000073245579902 1
force Au   0.000111709955631  -0.000001746005203   0.000017493971168 1
force Au  -0.000002641015358   0.000331339945077   0.000023460642190 1
force Au   0.000012829321925   0.000007979559419   0.000164844848406 1
force Au   0.000041580243328   0.000057977264658  -0.000062776408007 1
force Au   0.000235024809961  -0.000021510768628   0.000015444809339 1
force Au  -0.000008529912451   0.000234602485931   0.000014402933316 1
force Au   0.000008365804643   0.000013655010381   0.000351010935073 1
force Au   0.000082880437681   0.000075739526088   0.000058797238193 1
force Au  -0.000317424567552   0.000001740471457  -0.000015045391001 1
force Au   0.000005881008894  -0.000312082206791  -0.000028565422046 1
force Au  -0.000006518302572  -0.000021407838542  -0.000356869986795 1
force O  -0.000081345433908  -0.000078509723934  -0.000070826726996 1

# Energy components:
   Eewald =    -1169.0752297775682109
       EH =      137.1940550122081390
     Eloc =     -104.7595386230003953
      Enl =     -129.6608390535516264
      Exc =    -1000.3423271024097403
 Exc_core =      730.5172859748431620
       KE =      410.8846622598935028
-------------------------------------
     Etot =    -1125.2419313095851976
       TS =        0.0137099950237682
-------------------------------------
        F =    -1125.2556413046090711

IonicMinimize: Iter:   7  F: -1125.255641304609071  |grad|_K:  1.123e-04  alpha:  1.000e+00  linmin:  8.921e-01  t[s]: 106546.71

#--- Lowdin population analysis ---
# oxidation-state Au +0.014 +0.082 +0.082 +0.082 +0.014 +0.003 +0.003 +0.082 +0.014 +0.003 +0.082 +0.003 +0.015 +0.007 +0.003 +0.003 +0.014 +0.082 +0.003 +0.003 +0.015 +0.003 +0.007 +0.003 +0.015 +0.003 +0.003 +0.007 +0.015 +0.007 +0.007 +0.007
# oxidation-state O -0.489


-------- Electronic minimization -----------
	FillingsUpdate:  mu: +0.583515376  nElectrons: 358.000000
ElecMinimize: Iter:   0  F: -1125.255641518718448  |grad|_K:  1.604e-07  alpha:  1.000e+00
	FillingsUpdate:  mu: +0.583515902  nElectrons: 358.000000
	SubspaceRotationAdjust: set factor to 0.517
ElecMinimize: Iter:   1  F: -1125.255643365204833  |grad|_K:  6.980e-08  alpha:  4.321e-01  linmin:  2.782e-08  t[s]: 107854.61
	FillingsUpdate:  mu: +0.583521140  nElectrons: 358.000000
	SubspaceRotationAdjust: set factor to 0.44
ElecMinimize: Iter:   2  F: -1125.255643904038834  |grad|_K:  6.158e-08  alpha:  6.656e-01  linmin: -1.739e-06  t[s]: 108552.57
	FillingsUpdate:  mu: +0.583514903  nElectrons: 358.000000
	SubspaceRotationAdjust: set factor to 0.373
ElecMinimize: Iter:   3  F: -1125.255644130340443  |grad|_K:  4.165e-08  alpha:  3.591e-01  linmin: -7.026e-08  t[s]: 109250.40
	FillingsUpdate:  mu: +0.583517395  nElectrons: 358.000000
	SubspaceRotationAdjust: set factor to 0.438
ElecMinimize: Iter:   4  F: -1125.255644280350680  |grad|_K:  1.899e-08  alpha:  5.206e-01  linmin:  4.114e-06  t[s]: 109948.36
	FillingsUpdate:  mu: +0.583517759  nElectrons: 358.000000
	SubspaceRotationAdjust: set factor to 0.446
ElecMinimize: Iter:   5  F: -1125.255644305489568  |grad|_K:  1.083e-08  alpha:  4.196e-01  linmin: -2.016e-07  t[s]: 110646.01
	FillingsUpdate:  mu: +0.583516960  nElectrons: 358.000000
	SubspaceRotationAdjust: set factor to 0.49
ElecMinimize: Iter:   6  F: -1125.255644313445828  |grad|_K:  5.564e-09  alpha:  4.078e-01  linmin: -2.084e-06  t[s]: 111343.94
	FillingsUpdate:  mu: +0.583517328  nElectrons: 358.000000
	SubspaceRotationAdjust: set factor to 0.527
ElecMinimize: Iter:   7  F: -1125.255644315653399  |grad|_K:  2.841e-09  alpha:  4.340e-01  linmin: -6.271e-06  t[s]: 112041.87
ElecMinimize: Converged (|Delta F|<1.000000e-08 for 2 iters).
Setting wave functions to eigenvectors of Hamiltonian

# Ionic positions in cartesian coordinates:
ion Au   0.029814370606755   0.029927500057311   0.029949430483532 1
ion Au  -0.417943734973602   3.855364177928485   3.853777798064074 1
ion Au   3.854485368866168  -0.418287866874662   3.852443099952307 1
ion Au   3.854831943589666   3.854936506027050  -0.416518332803744 1
ion Au   0.030387003320227   0.030342067760082   7.678850057793987 1
ion Au  -0.112642377079249   3.855666633633525  11.566633406313123 1
ion Au   3.855748394093543  -0.112697192237285  11.566487742543190 1
ion Au   3.854042804938512   3.854184351492780   8.135825009236740 1
ion Au   0.029997532147851   7.681431210122152   0.030600236203944 1
ion Au  -0.113937324256481  11.566682714188335   3.854509476114963 1
ion Au   3.854217460595839   8.135767418224821   3.853338111566758 1
ion Au   3.855951511548546  11.566392778344332  -0.114415721156012 1
ion Au   0.030697161168219   7.680804588817288   7.679271975843074 1
ion Au  -0.046989053501085  11.565378066894871  11.564505974705378 1
ion Au   3.855645627224864   7.823622273367045  11.566471050994886 1
ion Au   3.855460287631543  11.566968363497171   7.823244570715939 1
ion Au   7.681556793462084   0.029963226639210   0.030282635422851 1
ion Au   8.136096224250835   3.854222763467436   3.853128718318553 1
ion Au  11.567115191925170  -0.113696648298521   3.854455582498560 1
ion Au  11.566955677908870   3.855883141695545  -0.113917448440857 1
ion Au   7.680344214167972   0.030869794617531   7.678427449156214 1
ion Au   7.823671793283183   3.855444444062581  11.566654600908354 1
ion Au  11.565351181669978  -0.047014844339927  11.564468538581757 1
ion Au  11.566698782997953   3.855447682799947   7.823737757744696 1
ion Au   7.680973208096567   7.680812643236356   0.031370867457716 1
ion Au   7.824858736870624  11.566749296103737   3.855531412166157 1
ion Au  11.566454466766164   7.825075629891749   3.855983139466928 1
ion Au  11.565030722572496  11.565032417074031  -0.050505236262437 1
ion Au   7.679628371519434   7.679695200968972   7.678422970817293 1
ion Au   7.757783110132757  11.565147442896251  11.563975142260221 1
ion Au  11.565061725895156   7.757745617639594  11.564406530608638 1
ion Au  11.565355542414842  11.565641118197192   7.759894862385345 1
ion O   3.863220280144608   3.862420482105014   3.864631590337872 1

# Forces in Cartesian coordinates:
force Au   0.000007708625889   0.000006858859079   0.000005801312431 1
force Au  -0.000008943035509  -0.000015226117584   0.000011925148401 1
force Au   0.000007569361329  -0.000006543746793   0.000040217459345 1
force Au   0.000009072941730   0.000006873667405  -0.000006309061610 1
force Au   0.000002510614894   0.000003300789496   0.000010347402530 1
force Au   0.000005003497369   0.000001171317534  -0.000006521292509 1
force Au  -0.000002395474948   0.000007689161605  -0.000004227714885 1
force Au   0.000011481637270   0.000010996059512  -0.000045917484976 1
force Au   0.000007701369508  -0.000010246447700   0.000008569090913 1
force Au   0.000002244579231  -0.000005190724396  -0.000007073726507 1
force Au   0.000011455040825  -0.000055428117787   0.000002447321758 1
force Au   0.000002456162040   0.000006677769358   0.000023736677981 1
force Au   0.000013013105490  -0.000011451855263  -0.000008652292469 1
force Au   0.000006024416251   0.000001261485674   0.000006014470855 1
force Au   0.000000410767604   0.000002115426909   0.000004644039596 1
force Au  -0.000003874982898  -0.000017195821870  -0.000001528208612 1
force Au  -0.000012393946489   0.000008996132751   0.000011043783311 1
force Au  -0.000056949036535   0.000014424107331   0.000006285891031 1
force Au  -0.000016623278735  -0.000003517867821  -0.000006028426502 1
force Au  -0.000006004880909   0.000005913407211   0.000013081744774 1
force Au  -0.000002269355938   0.000010620101889   0.000006771679190 1
force Au  -0.000000345661263   0.000005489633407  -0.000000673765949 1
force Au  -0.000000811737104   0.000008122477052   0.000004651211768 1
force Au  -0.000009647312678  -0.000003035004781  -0.000011457126305 1
force Au  -0.000001699867109   0.000002899189244   0.000000504358098 1
force Au   0.000000645453890  -0.000009400086265   0.000007418901931 1
force Au   0.000002019900800  -0.000004498114840   0.000001491238496 1
force Au  -0.000002430594948  -0.000001677695123  -0.000028333493782 1
force Au  -0.000001946513799  -0.000003914013123  -0.000000699639305 1
force Au  -0.000003857664823   0.000007543578936  -0.000002365873718 1
force Au   0.000008139271870  -0.000001529916984  -0.000009332543638 1
force Au   0.000007066506758   0.000001952443672   0.000019112719864 1
force O  -0.000076056986497  -0.000070188765617  -0.000063229510313 1

# Energy components:
   Eewald =    -1169.0753694281013395
       EH =      137.1941646182673367
     Eloc =     -104.7596282673547705
      Enl =     -129.6611186804426552
      Exc =    -1000.3423704184529015
 Exc_core =      730.5172785419342745
       KE =      410.8851084488758261
-------------------------------------
     Etot =    -1125.2419351852740874
       TS =        0.0137091303794194
-------------------------------------
        F =    -1125.2556443156533987

IonicMinimize: Iter:   8  F: -1125.255644315653399  |grad|_K:  1.761e-05  alpha:  1.000e+00  linmin:  1.152e-01  t[s]: 112183.86
IonicMinimize: Converged (|grad|_K<1.000000e-04).

#--- Lowdin population analysis ---
# oxidation-state Au +0.014 +0.082 +0.082 +0.082 +0.014 +0.003 +0.003 +0.082 +0.014 +0.003 +0.082 +0.003 +0.015 +0.007 +0.003 +0.003 +0.014 +0.082 +0.003 +0.003 +0.015 +0.003 +0.007 +0.003 +0.015 +0.003 +0.003 +0.007 +0.015 +0.007 +0.007 +0.007
# oxidation-state O -0.489


Dumping 'Au32O_oct.Ecomponents' ... done
End date and time: Mon Jan 29 18:44:05 2024  (Duration: 1-7:11:49.13)
Done!
