--------------------------------------------------------------------------
Initialization of PSM library failed.

  Error: PSM is in the finalized state
--------------------------------------------------------------------------

*************** JDFTx 1.7.0  ***************

Start date and time: Sun Jan 28 11:32:24 2024
Executable jdftx with command-line: -i /home/cam559/Valla_project/Au/Au32O_tet.in
Running on hosts (process indices):  node3101.physics.cornell.edu (0-31)
Divided in process groups (process indices):  0 (0)  1 (1)  2 (2)  3 (3)  4 (4)  5 (5)  6 (6)  7 (7)  8 (8)  9 (9)  10 (10)  11 (11)  12 (12)  13 (13)  14 (14)  15 (15)  16 (16)  17 (17)  18 (18)  19 (19)  20 (20)  21 (21)  22 (22)  23 (23)  24 (24)  25 (25)  26 (26)  27 (27)  28 (28)  29 (29)  30 (30)  31 (31)
Resource initialization completed at t[s]:      0.00
Run totals: 32 processes, 32 threads, 0 GPUs


Input parsed successfully to the following command list (including defaults):

basis kpoint-dependent
coords-type Cartesian
core-overlap-check vector
coulomb-interaction Periodic
davidson-band-ratio 1.1
dump End Ecomponents
dump-name Au32O_tet.$VAR
elec-cutoff 20 100
elec-eigen-algo Davidson
elec-ex-corr gga-PBE
elec-smearing Fermi 0.004
electronic-minimize  \
	dirUpdateScheme      FletcherReeves \
	linminMethod         DirUpdateRecommended \
	nIterations          100 \
	history              15 \
	knormThreshold       0 \
	energyDiffThreshold  1e-08 \
	nEnergyDiff          2 \
	alphaTstart          1 \
	alphaTmin            1e-10 \
	updateTestStepSize   yes \
	alphaTreduceFactor   0.1 \
	alphaTincreaseFactor 3 \
	nAlphaAdjustMax      3 \
	wolfeEnergy          0.0001 \
	wolfeGradient        0.9 \
	fdTest               no
exchange-regularization WignerSeitzTruncated
fluid None
fluid-ex-corr lda-TF lda-PZ
fluid-gummel-loop 10 1.000000e-05
fluid-minimize  \
	dirUpdateScheme      PolakRibiere \
	linminMethod         DirUpdateRecommended \
	nIterations          100 \
	history              15 \
	knormThreshold       0 \
	energyDiffThreshold  0 \
	nEnergyDiff          2 \
	alphaTstart          1 \
	alphaTmin            1e-10 \
	updateTestStepSize   yes \
	alphaTreduceFactor   0.1 \
	alphaTincreaseFactor 3 \
	nAlphaAdjustMax      3 \
	wolfeEnergy          0.0001 \
	wolfeGradient        0.9 \
	fdTest               no
fluid-solvent H2O 55.338 ScalarEOS \
	epsBulk 78.4 \
	pMol 0.92466 \
	epsInf 1.77 \
	Pvap 1.06736e-10 \
	sigmaBulk 4.62e-05 \
	Rvdw 2.61727 \
	Res 1.42 \
	tauNuc 343133 \
	poleEl 15 7 1
forces-output-coords Positions
initial-state Au32O_tet.$VAR
ion Au   0.010000000000000   0.000000000000000   0.000000000000000 1
ion Au   0.000000000000000   3.865041000000000   3.855041000000000 1
ion Au   3.855041000000000   0.000000000000000   3.845041000000000 1
ion Au   3.855041000000000   3.855041000000000   0.000000000000000 1
ion Au   0.000000000000000   0.000000000000000   7.710082999999999 1
ion Au   0.000000000000000   3.855041000000000  11.565124000000001 1
ion Au   3.855041000000000   0.000000000000000  11.565124000000001 1
ion Au   3.855041000000000   3.855041000000000   7.710082999999999 1
ion Au   0.000000000000000   7.710082999999999   0.000000000000000 1
ion Au   0.000000000000000  11.565124000000001   3.855041000000000 1
ion Au   3.855041000000000   7.710082999999999   3.855041000000000 1
ion Au   3.855041000000000  11.565124000000001   0.000000000000000 1
ion Au   0.000000000000000   7.710082999999999   7.710082999999999 1
ion Au   0.000000000000000  11.565124000000001  11.565124000000001 1
ion Au   3.855041000000000   7.710082999999999  11.565124000000001 1
ion Au   3.855041000000000  11.565124000000001   7.710082999999999 1
ion Au   7.710082999999999   0.000000000000000   0.000000000000000 1
ion Au   7.710082999999999   3.855041000000000   3.855041000000000 1
ion Au  11.565124000000001   0.000000000000000   3.855041000000000 1
ion Au  11.565124000000001   3.855041000000000   0.000000000000000 1
ion Au   7.710082999999999   0.000000000000000   7.710082999999999 1
ion Au   7.710082999999999   3.855041000000000  11.565124000000001 1
ion Au  11.565124000000001   0.000000000000000  11.565124000000001 1
ion Au  11.565124000000001   3.855041000000000   7.710082999999999 1
ion Au   7.710082999999999   7.710082999999999   0.000000000000000 1
ion Au   7.710082999999999  11.565124000000001   3.855041000000000 1
ion Au  11.565124000000001   7.710082999999999   3.855041000000000 1
ion Au  11.565124000000001  11.565124000000001   0.000000000000000 1
ion Au   7.710082999999999   7.710082999999999   7.710082999999999 1
ion Au   7.710082999999999  11.565124000000001  11.565124000000001 1
ion Au  11.565124000000001   7.710082999999999  11.565124000000001 1
ion Au  11.565124000000001  11.565124000000001   7.710082999999999 1
ion O   1.936900000000000   1.936900000000000   1.936900000000000 1
ion-species GBRV/$ID_pbe.uspp
ion-width 0
ionic-minimize  \
	dirUpdateScheme      L-BFGS \
	linminMethod         DirUpdateRecommended \
	nIterations          30 \
	history              15 \
	knormThreshold       0.0001 \
	energyDiffThreshold  1e-06 \
	nEnergyDiff          2 \
	alphaTstart          1 \
	alphaTmin            1e-10 \
	updateTestStepSize   yes \
	alphaTreduceFactor   0.1 \
	alphaTincreaseFactor 3 \
	nAlphaAdjustMax      3 \
	wolfeEnergy          0.0001 \
	wolfeGradient        0.9 \
	fdTest               no
kpoint   0.000000000000   0.000000000000   0.000000000000  1.00000000000000
kpoint-folding 4 4 4 
latt-move-scale 1 1 1
latt-scale 1 1 1 
lattice  \
	  15.420165000000001    0.000000000000000    0.000000000000000  \
	   0.000000000000000   15.420165000000001    0.000000000000000  \
	   0.000000000000000    0.000000000000000   15.420165000000001 
lattice-minimize  \
	dirUpdateScheme      L-BFGS \
	linminMethod         DirUpdateRecommended \
	nIterations          0 \
	history              15 \
	knormThreshold       0 \
	energyDiffThreshold  1e-06 \
	nEnergyDiff          2 \
	alphaTstart          1 \
	alphaTmin            1e-10 \
	updateTestStepSize   yes \
	alphaTreduceFactor   0.1 \
	alphaTincreaseFactor 3 \
	nAlphaAdjustMax      3 \
	wolfeEnergy          0.0001 \
	wolfeGradient        0.9 \
	fdTest               no
lcao-params -1 1e-06 0.004
pcm-variant GLSSA13
spintype no-spin
subspace-rotation-factor 1 yes
symmetries automatic
symmetry-threshold 0.0001



---------- Setting up symmetries ----------

Found 48 point-group symmetries of the bravais lattice
Found 1 space-group symmetries with basis
Applied RMS atom displacement 0 bohrs to make symmetries exact.

---------- Initializing the Grid ----------
R = 
[      15.4202            0            0  ]
[            0      15.4202            0  ]
[            0            0      15.4202  ]
unit cell volume = 3666.63
G =
[   0.407466          0          0  ]
[          0   0.407466          0  ]
[          0          0   0.407466  ]
Minimum fftbox size, Smin = [  72  72  72  ]
Chosen fftbox size, S = [  72  72  72  ]

---------- Initializing tighter grid for wavefunction operations ----------
R = 
[      15.4202            0            0  ]
[            0      15.4202            0  ]
[            0            0      15.4202  ]
unit cell volume = 3666.63
G =
[   0.407466          0          0  ]
[          0   0.407466          0  ]
[          0          0   0.407466  ]
Minimum fftbox size, Smin = [  64  64  64  ]
Chosen fftbox size, S = [  64  64  64  ]

---------- Exchange Correlation functional ----------
Initalized PBE GGA exchange.
Initalized PBE GGA correlation.

---------- Setting up pseudopotentials ----------
Width of ionic core gaussian charges (only for fluid interactions / plotting) set to 0

Reading pseudopotential file '/home/cam559/JDFTx/build/pseudopotentials/GBRV/au_pbe.uspp':
  Title: Au.  Created by USPP 7.3.6 on 14-9-2013
  Reference state energy: -57.375295.  11 valence electrons in orbitals:
    |520>  occupation: 10  eigenvalue: -0.252742
    |600>  occupation: 1  eigenvalue: -0.211744
    |610>  occupation: 0  eigenvalue: -0.028291
  lMax: 3  lLocal: -1  QijEcut: 5
  7 projectors sampled on a log grid with 755 points:
    l: 0  eig: -0.211744  rCut: 2.3
    l: 0  eig: 0.500000  rCut: 2.3
    l: 1  eig: -0.028291  rCut: 2.35
    l: 1  eig: 0.850000  rCut: 2.35
    l: 2  eig: -0.252741  rCut: 2.1
    l: 2  eig: 1.000000  rCut: 2.1
    l: 3  eig: 0.000000  rCut: 2.5
  Partial core density with radius 1
  Transforming core density to a uniform radial grid of dG=0.02 with 1276 points.
  Transforming local potential to a uniform radial grid of dG=0.02 with 1276 points.
  Transforming nonlocal projectors to a uniform radial grid of dG=0.02 with 432 points.
  Transforming density augmentations to a uniform radial grid of dG=0.02 with 1276 points.
  Transforming atomic orbitals to a uniform radial grid of dG=0.02 with 432 points.
  Core radius for overlap checks: 2.50 bohrs.

Reading pseudopotential file '/home/cam559/JDFTx/build/pseudopotentials/GBRV/o_pbe.uspp':
  Title: O.  Created by USPP 7.3.6 on 3-2-2014
  Reference state energy: -15.894388.  6 valence electrons in orbitals:
    |200>  occupation: 2  eigenvalue: -0.878823
    |210>  occupation: 4  eigenvalue: -0.332131
  lMax: 2  lLocal: 2  QijEcut: 6
  5 projectors sampled on a log grid with 511 points:
    l: 0  eig: -0.878823  rCut: 1.25
    l: 0  eig: 0.000000  rCut: 1.25
    l: 1  eig: -0.332132  rCut: 1.25
    l: 1  eig: 0.000000  rCut: 1.25
    l: 2  eig: 1.000000  rCut: 1.25
  Partial core density with radius 0.7
  Transforming core density to a uniform radial grid of dG=0.02 with 1276 points.
  Transforming local potential to a uniform radial grid of dG=0.02 with 1276 points.
  Transforming nonlocal projectors to a uniform radial grid of dG=0.02 with 432 points.
  Transforming density augmentations to a uniform radial grid of dG=0.02 with 1276 points.
  Transforming atomic orbitals to a uniform radial grid of dG=0.02 with 432 points.
  Core radius for overlap checks: 1.25 bohrs.

Initialized 2 species with 33 total atoms.

Folded 1 k-points by 4x4x4 to 64 k-points.

---------- Setting up k-points, bands, fillings ----------
Adding inversion symmetry to k-mesh for non-inversion-symmetric unit cell.
Reduced to 36 k-points under symmetry. 
Computing the number of bands and number of electrons
Calculating initial fillings.
nElectrons: 358.000000   nBands: 292   nStates: 36

----- Setting up reduced wavefunction bases (one per k-point) -----
average nbasis = 15663.641 , ideal nbasis = 15664.122

---------- Setting up ewald sum ----------
Optimum gaussian width for ewald sums = 3.434895 bohr.
Real space sum over 729 unit cells with max indices [  4  4  4  ]
Reciprocal space sum over 4913 terms with max indices [  8  8  8  ]

---------- Allocating electronic variables ----------
Initializing wave functions:  linear combination of atomic orbitals
Au pseudo-atom occupations:   s ( 1 )  p ( 0 )  d ( 10 )
O pseudo-atom occupations:   s ( 2 )  p ( 4 )
	FillingsUpdate:  mu: +0.581339117  nElectrons: 358.000000
LCAOMinimize: Iter:   0  F: -1124.4339621060441914  |grad|_K:  6.740e-04  alpha:  1.000e+00
	FillingsUpdate:  mu: +0.605090107  nElectrons: 358.000000
LCAOMinimize: Iter:   1  F: -1124.5438443848556744  |grad|_K:  7.273e-04  alpha:  3.482e-01  linmin:  8.390e-02  cgtest: -5.451e-01  t[s]:    433.60
	FillingsUpdate:  mu: +0.604988681  nElectrons: 358.000000
LCAOMinimize: Iter:   2  F: -1124.5863245193613693  |grad|_K:  5.307e-04  alpha:  8.349e-02  linmin: -1.940e-02  cgtest:  9.559e-01  t[s]:    549.43
LCAOMinimize: Encountered beta<0, resetting CG.
	FillingsUpdate:  mu: +0.587818095  nElectrons: 358.000000
LCAOMinimize: Iter:   3  F: -1124.6454631975548182  |grad|_K:  1.806e-04  alpha:  1.401e-01  linmin:  6.394e-02  cgtest: -1.903e-01  t[s]:    665.26
	FillingsUpdate:  mu: +0.589612810  nElectrons: 358.000000
LCAOMinimize: Iter:   4  F: -1124.6561833028229103  |grad|_K:  7.339e-05  alpha:  2.351e-01  linmin: -2.233e-02  cgtest:  5.686e-01  t[s]:    781.14
LCAOMinimize: Encountered beta<0, resetting CG.
	FillingsUpdate:  mu: +0.590238931  nElectrons: 358.000000
LCAOMinimize: Iter:   5  F: -1124.6572524871789938  |grad|_K:  2.303e-05  alpha:  1.291e-01  linmin:  2.038e-03  cgtest: -8.413e-03  t[s]:    897.09
	FillingsUpdate:  mu: +0.590223179  nElectrons: 358.000000
LCAOMinimize: Iter:   6  F: -1124.6575110350684099  |grad|_K:  1.369e-05  alpha:  3.154e-01  linmin: -2.109e-03  cgtest:  1.111e-02  t[s]:   1014.82
	FillingsUpdate:  mu: +0.590586202  nElectrons: 358.000000
LCAOMinimize: Iter:   7  F: -1124.6576130854523399  |grad|_K:  2.109e-06  alpha:  3.511e-01  linmin: -3.683e-03  cgtest: -3.029e-02  t[s]:   1132.69
	FillingsUpdate:  mu: +0.590596474  nElectrons: 358.000000
LCAOMinimize: Iter:   8  F: -1124.6576154269587278  |grad|_K:  1.581e-06  alpha:  3.400e-01  linmin: -1.468e-05  cgtest: -2.667e-03  t[s]:   1250.56
	FillingsUpdate:  mu: +0.590573118  nElectrons: 358.000000
LCAOMinimize: Iter:   9  F: -1124.6576164229868482  |grad|_K:  9.399e-07  alpha:  2.580e-01  linmin:  2.140e-06  cgtest:  1.334e-03  t[s]:   1368.26
	FillingsUpdate:  mu: +0.590575572  nElectrons: 358.000000
LCAOMinimize: Iter:  10  F: -1124.6576167573632574  |grad|_K:  4.445e-07  alpha:  2.450e-01  linmin:  1.071e-05  cgtest:  7.569e-05  t[s]:   1486.08
LCAOMinimize: Converged (|Delta F|<1.000000e-06 for 2 iters).


---- Citations for features of the code used in this run ----

   Software package:
      R. Sundararaman, K. Letchworth-Weaver, K.A. Schwarz, D. Gunceler, Y. Ozhabes and T.A. Arias, 'JDFTx: software for joint density-functional theory', SoftwareX 6, 278 (2017)

   gga-PBE exchange-correlation functional:
      J.P. Perdew, K. Burke and M. Ernzerhof, Phys. Rev. Lett. 77, 3865 (1996)

   Pseudopotentials:
      KF Garrity, JW Bennett, KM Rabe and D Vanderbilt, Comput. Mater. Sci. 81, 446 (2014)

   Total energy minimization with Auxiliary Hamiltonian:
      C. Freysoldt, S. Boeck, and J. Neugebauer, Phys. Rev. B 79, 241103(R) (2009)

This list may not be complete. Please suggest additional citations or
report any other bugs at https://github.com/shankar1729/jdftx/issues

Initialization completed successfully at t[s]:   1621.81


-------- Electronic minimization -----------
	FillingsUpdate:  mu: +0.590575572  nElectrons: 358.000000
ElecMinimize: Iter:   0  F: -1124.657616757363712  |grad|_K:  5.720e-05  alpha:  1.000e+00
	FillingsUpdate:  mu: +0.595491358  nElectrons: 358.000000
	SubspaceRotationAdjust: set factor to 1
ElecMinimize: Iter:   1  F: -1124.935111269266372  |grad|_K:  3.193e-05  alpha:  5.110e-01  linmin:  7.222e-05  t[s]:   2435.40
	FillingsUpdate:  mu: +0.586404142  nElectrons: 358.000000
	SubspaceRotationAdjust: set factor to 0.91
ElecMinimize: Iter:   2  F: -1124.988326970804565  |grad|_K:  1.621e-05  alpha:  3.134e-01  linmin: -4.672e-06  t[s]:   2986.72
	FillingsUpdate:  mu: +0.590374520  nElectrons: 358.000000
	SubspaceRotationAdjust: set factor to 0.686
ElecMinimize: Iter:   3  F: -1125.003911579410214  |grad|_K:  1.735e-05  alpha:  3.569e-01  linmin:  1.803e-05  t[s]:   3538.21
	FillingsUpdate:  mu: +0.587582458  nElectrons: 358.000000
	SubspaceRotationAdjust: set factor to 0.686
ElecMinimize: Iter:   4  F: -1125.014775149671095  |grad|_K:  6.460e-06  alpha:  2.142e-01  linmin: -1.810e-05  t[s]:   4089.83
	FillingsUpdate:  mu: +0.586959135  nElectrons: 358.000000
	SubspaceRotationAdjust: set factor to 0.752
ElecMinimize: Iter:   5  F: -1125.018439111804810  |grad|_K:  4.821e-06  alpha:  5.303e-01  linmin:  6.848e-05  t[s]:   4641.41
	FillingsUpdate:  mu: +0.587685884  nElectrons: 358.000000
	SubspaceRotationAdjust: set factor to 0.501
ElecMinimize: Iter:   6  F: -1125.019271535911685  |grad|_K:  3.135e-06  alpha:  2.196e-01  linmin:  4.989e-06  t[s]:   5192.85
	FillingsUpdate:  mu: +0.587744851  nElectrons: 358.000000
	SubspaceRotationAdjust: set factor to 0.537
ElecMinimize: Iter:   7  F: -1125.019898098223848  |grad|_K:  1.473e-06  alpha:  3.845e-01  linmin:  1.059e-05  t[s]:   5744.35
	FillingsUpdate:  mu: +0.587536152  nElectrons: 358.000000
	SubspaceRotationAdjust: set factor to 0.521
ElecMinimize: Iter:   8  F: -1125.020072372282584  |grad|_K:  1.352e-06  alpha:  4.842e-01  linmin:  1.719e-06  t[s]:   6296.10
	FillingsUpdate:  mu: +0.587689488  nElectrons: 358.000000
	SubspaceRotationAdjust: set factor to 0.414
ElecMinimize: Iter:   9  F: -1125.020179809537922  |grad|_K:  8.218e-07  alpha:  3.537e-01  linmin:  4.272e-06  t[s]:   6847.65
	FillingsUpdate:  mu: +0.587650740  nElectrons: 358.000000
	SubspaceRotationAdjust: set factor to 0.406
ElecMinimize: Iter:  10  F: -1125.020225721140605  |grad|_K:  5.874e-07  alpha:  4.095e-01  linmin:  3.374e-06  t[s]:   7399.57
	FillingsUpdate:  mu: +0.587611116  nElectrons: 358.000000
	SubspaceRotationAdjust: set factor to 0.476
ElecMinimize: Iter:  11  F: -1125.020249554992915  |grad|_K:  3.352e-07  alpha:  4.162e-01  linmin:  1.196e-06  t[s]:   7951.25
	FillingsUpdate:  mu: +0.587634574  nElectrons: 358.000000
	SubspaceRotationAdjust: set factor to 0.427
ElecMinimize: Iter:  12  F: -1125.020257348065343  |grad|_K:  2.299e-07  alpha:  4.175e-01  linmin: -1.963e-06  t[s]:   8502.67
	FillingsUpdate:  mu: +0.587613827  nElectrons: 358.000000
	SubspaceRotationAdjust: set factor to 0.397
ElecMinimize: Iter:  13  F: -1125.020260317711291  |grad|_K:  1.319e-07  alpha:  3.379e-01  linmin: -1.075e-06  t[s]:   9053.98
	FillingsUpdate:  mu: +0.587617082  nElectrons: 358.000000
	SubspaceRotationAdjust: set factor to 0.501
ElecMinimize: Iter:  14  F: -1125.020261673261075  |grad|_K:  8.004e-08  alpha:  4.680e-01  linmin: -1.689e-06  t[s]:   9605.30
	FillingsUpdate:  mu: +0.587622597  nElectrons: 358.000000
	SubspaceRotationAdjust: set factor to 0.445
ElecMinimize: Iter:  15  F: -1125.020262150618237  |grad|_K:  5.858e-08  alpha:  4.476e-01  linmin: -5.616e-07  t[s]:  10156.48
	FillingsUpdate:  mu: +0.587616351  nElectrons: 358.000000
	SubspaceRotationAdjust: set factor to 0.376
ElecMinimize: Iter:  16  F: -1125.020262355131308  |grad|_K:  3.607e-08  alpha:  3.583e-01  linmin: -8.650e-08  t[s]:  10708.03
	FillingsUpdate:  mu: +0.587619586  nElectrons: 358.000000
	SubspaceRotationAdjust: set factor to 0.408
ElecMinimize: Iter:  17  F: -1125.020262453434498  |grad|_K:  2.291e-08  alpha:  4.543e-01  linmin: -6.420e-08  t[s]:  11259.57
	FillingsUpdate:  mu: +0.587619094  nElectrons: 358.000000
	SubspaceRotationAdjust: set factor to 0.397
ElecMinimize: Iter:  18  F: -1125.020262491997755  |grad|_K:  1.396e-08  alpha:  4.421e-01  linmin: -1.186e-07  t[s]:  11811.14
	FillingsUpdate:  mu: +0.587619325  nElectrons: 358.000000
	SubspaceRotationAdjust: set factor to 0.372
ElecMinimize: Iter:  19  F: -1125.020262506058771  |grad|_K:  8.799e-09  alpha:  4.329e-01  linmin: -1.301e-07  t[s]:  12362.64
	FillingsUpdate:  mu: +0.587620266  nElectrons: 358.000000
	SubspaceRotationAdjust: set factor to 0.377
ElecMinimize: Iter:  20  F: -1125.020262511132387  |grad|_K:  5.243e-09  alpha:  3.924e-01  linmin: -2.598e-07  t[s]:  12914.11
	FillingsUpdate:  mu: +0.587619537  nElectrons: 358.000000
	SubspaceRotationAdjust: set factor to 0.392
ElecMinimize: Iter:  21  F: -1125.020262513177158  |grad|_K:  3.373e-09  alpha:  4.485e-01  linmin: -5.347e-07  t[s]:  13465.19
ElecMinimize: Converged (|Delta F|<1.000000e-08 for 2 iters).
Setting wave functions to eigenvectors of Hamiltonian

# Ionic positions in cartesian coordinates:
ion Au   0.010000000000000   0.000000000000000   0.000000000000000 1
ion Au   0.000000000000000   3.865041000000000   3.855041000000000 1
ion Au   3.855041000000000   0.000000000000000   3.845041000000000 1
ion Au   3.855041000000000   3.855041000000000   0.000000000000000 1
ion Au   0.000000000000000   0.000000000000000   7.710082999999999 1
ion Au   0.000000000000000   3.855041000000000  11.565124000000001 1
ion Au   3.855041000000000   0.000000000000000  11.565124000000001 1
ion Au   3.855041000000000   3.855041000000000   7.710082999999999 1
ion Au   0.000000000000000   7.710082999999999   0.000000000000000 1
ion Au   0.000000000000000  11.565124000000001   3.855041000000000 1
ion Au   3.855041000000000   7.710082999999999   3.855041000000000 1
ion Au   3.855041000000000  11.565124000000001   0.000000000000000 1
ion Au   0.000000000000000   7.710082999999999   7.710082999999999 1
ion Au   0.000000000000000  11.565124000000001  11.565124000000001 1
ion Au   3.855041000000000   7.710082999999999  11.565124000000001 1
ion Au   3.855041000000000  11.565124000000001   7.710082999999999 1
ion Au   7.710082999999999   0.000000000000000   0.000000000000000 1
ion Au   7.710082999999999   3.855041000000000   3.855041000000000 1
ion Au  11.565124000000001   0.000000000000000   3.855041000000000 1
ion Au  11.565124000000001   3.855041000000000   0.000000000000000 1
ion Au   7.710082999999999   0.000000000000000   7.710082999999999 1
ion Au   7.710082999999999   3.855041000000000  11.565124000000001 1
ion Au  11.565124000000001   0.000000000000000  11.565124000000001 1
ion Au  11.565124000000001   3.855041000000000   7.710082999999999 1
ion Au   7.710082999999999   7.710082999999999   0.000000000000000 1
ion Au   7.710082999999999  11.565124000000001   3.855041000000000 1
ion Au  11.565124000000001   7.710082999999999   3.855041000000000 1
ion Au  11.565124000000001  11.565124000000001   0.000000000000000 1
ion Au   7.710082999999999   7.710082999999999   7.710082999999999 1
ion Au   7.710082999999999  11.565124000000001  11.565124000000001 1
ion Au  11.565124000000001   7.710082999999999  11.565124000000001 1
ion Au  11.565124000000001  11.565124000000001   7.710082999999999 1
ion O   1.936900000000000   1.936900000000000   1.936900000000000 1

# Forces in Cartesian coordinates:
force Au  -0.142849602135590  -0.142368815014105  -0.142463434811174 1
force Au  -0.145764305479947   0.144301294243480   0.144498423509921 1
force Au   0.148465636968195  -0.149679623576387   0.148705471197804 1
force Au   0.146599786285371   0.146782156617281  -0.147884275444668 1
force Au  -0.001443912307188  -0.001434289897861   0.003928824407769 1
force Au  -0.001595021398031   0.001504758029699  -0.004122193508222 1
force Au   0.001643774022170  -0.001546941823030  -0.004393930595195 1
force Au   0.001579751393387   0.001404295718540   0.004141333627326 1
force Au  -0.001561105050174   0.004281676282240  -0.001701557979591 1
force Au  -0.001611740753589  -0.004053578932955   0.001563076643938 1
force Au   0.001730766017083   0.004356402220664   0.001590892186878 1
force Au   0.001634852054519  -0.004402415156830  -0.001684902639402 1
force Au  -0.000274531359469  -0.000239656820830  -0.000223010557345 1
force Au  -0.000301571071030   0.000426846664828   0.000444200231173 1
force Au   0.000293450740686  -0.000406672804322   0.000422323094829 1
force Au   0.000287833833943   0.000525886171741  -0.000519191774538 1
force Au   0.004386329713477  -0.001551005370137  -0.001692754778774 1
force Au   0.004257992761968   0.001586392060994   0.001629236461477 1
force Au  -0.003867039626359  -0.001431608307163   0.001385989174760 1
force Au  -0.004008856530502   0.001328696258932  -0.001549256893791 1
force Au  -0.000495055949979  -0.000268040388190  -0.000452883797484 1
force Au  -0.000411630626118   0.000289448046233   0.000395901198907 1
force Au   0.000509054753961  -0.000234170199996   0.000551881531808 1
force Au   0.000361664961435   0.000222759133429  -0.000377872705950 1
force Au  -0.000373773345815  -0.000342456178716  -0.000279126292005 1
force Au  -0.000453105709561   0.000419455352145   0.000348887371944 1
force Au   0.000276565956492  -0.000307015251890   0.000288036742032 1
force Au   0.000508359962090   0.000531222625810  -0.000240776485491 1
force Au  -0.000117910561472  -0.000121755934474  -0.000124882416478 1
force Au  -0.000100044859812   0.000110351404907   0.000103559154602 1
force Au   0.000108972921328  -0.000102263319127   0.000102670494698 1
force Au   0.000112972576434   0.000113589245382  -0.000109664868598 1
force O  -0.007595728668466   0.000244111097116  -0.002332441956281 1

# Energy components:
   Eewald =    -1161.4009762964249148
       EH =      143.6622125522935676
     Eloc =     -119.2088039344814945
      Enl =     -129.1549222348344301
      Exc =    -1000.5566946360636393
 Exc_core =      730.5166661375262720
       KE =      411.1369464474486222
-------------------------------------
     Etot =    -1125.0055719645361023
       TS =        0.0146905486410551
-------------------------------------
        F =    -1125.0202625131771583

IonicMinimize: Iter:   0  F: -1125.020262513177158  |grad|_K:  5.082e-02  t[s]:  13589.93

#--- Lowdin population analysis ---
# oxidation-state Au +0.170 +0.172 +0.175 +0.173 +0.000 +0.000 +0.000 +0.000 +0.000 +0.000 +0.000 +0.000 -0.006 -0.005 -0.006 -0.006 +0.000 +0.000 +0.000 +0.000 -0.005 -0.006 -0.005 -0.005 -0.005 -0.006 -0.006 -0.005 -0.000 -0.000 -0.000 -0.000
# oxidation-state O -0.413


-------- Electronic minimization -----------
	FillingsUpdate:  mu: +0.599573430  nElectrons: 358.000000
ElecMinimize: Iter:   0  F: -1124.526343859904955  |grad|_K:  8.749e-05  alpha:  1.000e+00
	FillingsUpdate:  mu: +0.587007818  nElectrons: 358.000000
	SubspaceRotationAdjust: set factor to 0.261
ElecMinimize: Iter:   1  F: -1124.959762163347477  |grad|_K:  3.510e-05  alpha:  3.453e-01  linmin:  2.050e-03  t[s]:  14608.15
	FillingsUpdate:  mu: +0.588197703  nElectrons: 358.000000
	SubspaceRotationAdjust: set factor to 0.191
ElecMinimize: Iter:   2  F: -1125.037241196771220  |grad|_K:  1.919e-05  alpha:  3.821e-01  linmin: -1.597e-03  t[s]:  15169.55
	FillingsUpdate:  mu: +0.587912141  nElectrons: 358.000000
	SubspaceRotationAdjust: set factor to 0.207
ElecMinimize: Iter:   3  F: -1125.079417382050906  |grad|_K:  1.600e-05  alpha:  6.728e-01  linmin: -1.512e-04  t[s]:  15730.79
	FillingsUpdate:  mu: +0.587865742  nElectrons: 358.000000
	SubspaceRotationAdjust: set factor to 0.257
ElecMinimize: Iter:   4  F: -1125.096740410334633  |grad|_K:  8.035e-06  alpha:  4.063e-01  linmin: -6.941e-05  t[s]:  16291.75
	FillingsUpdate:  mu: +0.586699826  nElectrons: 358.000000
	SubspaceRotationAdjust: set factor to 0.371
ElecMinimize: Iter:   5  F: -1125.101819255780811  |grad|_K:  3.978e-06  alpha:  4.732e-01  linmin: -4.125e-06  t[s]:  16845.52
	FillingsUpdate:  mu: +0.586802869  nElectrons: 358.000000
	SubspaceRotationAdjust: set factor to 0.463
ElecMinimize: Iter:   6  F: -1125.103822825816451  |grad|_K:  3.616e-06  alpha:  7.621e-01  linmin:  4.722e-06  t[s]:  17394.99
	FillingsUpdate:  mu: +0.586563157  nElectrons: 358.000000
	SubspaceRotationAdjust: set factor to 0.577
ElecMinimize: Iter:   7  F: -1125.104924852448903  |grad|_K:  2.838e-06  alpha:  5.075e-01  linmin: -8.803e-06  t[s]:  17947.34
	FillingsUpdate:  mu: +0.586600165  nElectrons: 358.000000
	SubspaceRotationAdjust: set factor to 0.673
ElecMinimize: Iter:   8  F: -1125.105584443535236  |grad|_K:  1.825e-06  alpha:  4.926e-01  linmin:  5.946e-06  t[s]:  18499.24
	FillingsUpdate:  mu: +0.586918667  nElectrons: 358.000000
	SubspaceRotationAdjust: set factor to 0.514
ElecMinimize: Iter:   9  F: -1125.105806659708833  |grad|_K:  1.313e-06  alpha:  4.019e-01  linmin: -4.870e-06  t[s]:  19052.00
	FillingsUpdate:  mu: +0.586725119  nElectrons: 358.000000
	SubspaceRotationAdjust: set factor to 0.367
ElecMinimize: Iter:  10  F: -1125.105890025873350  |grad|_K:  6.215e-07  alpha:  2.907e-01  linmin:  9.800e-07  t[s]:  19605.12
	FillingsUpdate:  mu: +0.586718725  nElectrons: 358.000000
	SubspaceRotationAdjust: set factor to 0.427
ElecMinimize: Iter:  11  F: -1125.105918485224720  |grad|_K:  4.299e-07  alpha:  4.434e-01  linmin: -5.757e-07  t[s]:  20158.10
	FillingsUpdate:  mu: +0.586762814  nElectrons: 358.000000
	SubspaceRotationAdjust: set factor to 0.548
ElecMinimize: Iter:  12  F: -1125.105930930941440  |grad|_K:  2.542e-07  alpha:  4.052e-01  linmin: -2.600e-07  t[s]:  20711.28
	FillingsUpdate:  mu: +0.586745525  nElectrons: 358.000000
	SubspaceRotationAdjust: set factor to 0.708
ElecMinimize: Iter:  13  F: -1125.105937869903528  |grad|_K:  1.918e-07  alpha:  6.461e-01  linmin: -1.741e-07  t[s]:  21264.46
	FillingsUpdate:  mu: +0.586742620  nElectrons: 358.000000
	SubspaceRotationAdjust: set factor to 0.83
ElecMinimize: Iter:  14  F: -1125.105940817609280  |grad|_K:  1.566e-07  alpha:  4.822e-01  linmin:  5.023e-08  t[s]:  21817.36
	FillingsUpdate:  mu: +0.586734268  nElectrons: 358.000000
	SubspaceRotationAdjust: set factor to 0.702
ElecMinimize: Iter:  15  F: -1125.105942198937555  |grad|_K:  1.116e-07  alpha:  3.388e-01  linmin:  1.611e-07  t[s]:  22370.56
	FillingsUpdate:  mu: +0.586747848  nElectrons: 358.000000
	SubspaceRotationAdjust: set factor to 0.535
ElecMinimize: Iter:  16  F: -1125.105942739820421  |grad|_K:  6.968e-08  alpha:  2.613e-01  linmin:  4.287e-08  t[s]:  22923.65
	FillingsUpdate:  mu: +0.586740658  nElectrons: 358.000000
	SubspaceRotationAdjust: set factor to 0.611
ElecMinimize: Iter:  17  F: -1125.105943056887781  |grad|_K:  3.985e-08  alpha:  3.931e-01  linmin:  2.443e-07  t[s]:  23476.70
	FillingsUpdate:  mu: +0.586742035  nElectrons: 358.000000
	SubspaceRotationAdjust: set factor to 0.689
ElecMinimize: Iter:  18  F: -1125.105943180378517  |grad|_K:  2.696e-08  alpha:  4.682e-01  linmin:  2.273e-07  t[s]:  24029.75
	FillingsUpdate:  mu: +0.586744304  nElectrons: 358.000000
	SubspaceRotationAdjust: set factor to 0.816
ElecMinimize: Iter:  19  F: -1125.105943234334518  |grad|_K:  1.963e-08  alpha:  4.470e-01  linmin: -4.048e-08  t[s]:  24582.70
	FillingsUpdate:  mu: +0.586741558  nElectrons: 358.000000
	SubspaceRotationAdjust: set factor to 0.844
ElecMinimize: Iter:  20  F: -1125.105943261552738  |grad|_K:  1.550e-08  alpha:  4.253e-01  linmin:  4.257e-07  t[s]:  25135.59
	FillingsUpdate:  mu: +0.586743131  nElectrons: 358.000000
	SubspaceRotationAdjust: set factor to 0.733
ElecMinimize: Iter:  21  F: -1125.105943272816148  |grad|_K:  1.153e-08  alpha:  2.828e-01  linmin: -1.931e-07  t[s]:  25688.59
	FillingsUpdate:  mu: +0.586742845  nElectrons: 358.000000
	SubspaceRotationAdjust: set factor to 0.613
ElecMinimize: Iter:  22  F: -1125.105943280419069  |grad|_K:  7.386e-09  alpha:  3.438e-01  linmin:  3.468e-07  t[s]:  26241.32
	FillingsUpdate:  mu: +0.586743137  nElectrons: 358.000000
	SubspaceRotationAdjust: set factor to 0.616
ElecMinimize: Iter:  23  F: -1125.105943283825127  |grad|_K:  4.601e-09  alpha:  3.763e-01  linmin: -5.350e-07  t[s]:  26794.25
ElecMinimize: Converged (|Delta F|<1.000000e-08 for 2 iters).
Setting wave functions to eigenvectors of Hamiltonian

# Ionic positions in cartesian coordinates:
ion Au  -0.045368992763627  -0.055182708236220  -0.055219495502627 1
ion Au  -0.056498757814226   3.920974186668672   3.911050483945203 1
ion Au   3.912588395960264  -0.058016442935593   3.902681173206659 1
ion Au   3.911865175569698   3.911935791083987  -0.057320661751482 1
ion Au  -0.000558884341028  -0.000555227464529   7.711606451756118 1
ion Au  -0.000617455574355   3.855624973763967  11.563526805299649 1
ion Au   3.855678930459653  -0.000598892356938  11.563421477577563 1
ion Au   3.855654114716882   3.855586033674826   7.711688822227764 1
ion Au  -0.000604309294983   7.711743332082271  -0.000658934748177 1
ion Au  -0.000623936145908  11.563553512709804   3.855647466791839 1
ion Au   3.855712649333899   7.711772296523461   3.855658248344733 1
ion Au   3.855675472225299  11.563418300673602  -0.000652478989553 1
ion Au  -0.000105621840703   7.709990822986671   7.709997163439170 1
ion Au  -0.000116102674425  11.565290165690968  11.565296780300374 1
ion Au   3.855155533094571   7.709926086099672  11.565288300526918 1
ion Au   3.855153355931348  11.565328554288474   7.709882360953876 1
ion Au   7.711783969542293  -0.000600467424093  -0.000655522548909 1
ion Au   7.711734224993576   3.855656615843658   3.855673110928061 1
ion Au  11.563625889866527  -0.000554188056022   3.855578826107028 1
ion Au  11.563570920367761   3.855556730649022  -0.000599901486957 1
ion Au   7.709891900858274  -0.000103178737561   7.709908062518050 1
ion Au   7.709924237258964   3.855153908759145  11.565278059164056 1
ion Au  11.565322103135907  -0.000090050350086  11.565338518534315 1
ion Au  11.565264973535829   3.855128059540874   7.709937137487132 1
ion Au   7.709938911078953   7.709950977037344  -0.000107587520813 1
ion Au   7.709908161146163  11.565287300752152   3.855176836184794 1
ion Au  11.565231988401402   7.709964714257143   3.855153249937118 1
ion Au  11.565321833828373  11.565330622745737  -0.000092722793265 1
ion Au   7.710038085779547   7.710036522423321   7.710035198783057 1
ion Au   7.710045010685089  11.565167489301265  11.565164744776466 1
ion Au  11.565167027844021   7.710044077935139  11.565164400323949 1
ion Au  11.565168578146066  11.565168744317155   7.710041097240540 1
ion O   1.933956616688904   1.936995335752715   1.935996528987360 1

# Forces in Cartesian coordinates:
force Au  -0.106334734782380  -0.106096727407326  -0.106423464550286 1
force Au  -0.107838919334418   0.106894426945971   0.107458794059042 1
force Au   0.108666651532934  -0.109355919462830   0.109181313804343 1
force Au   0.107845065745378   0.107789009431681  -0.108877585433813 1
force Au  -0.001118368264671  -0.001106659139552   0.002668688222365 1
force Au  -0.001279717538694   0.001184551270178  -0.002867549425091 1
force Au   0.001301398691327  -0.001219675262231  -0.003057003728346 1
force Au   0.001232937067387   0.001071052621536   0.002814516605057 1
force Au  -0.001245327654171   0.003303002090847  -0.001377190521747 1
force Au  -0.001291255745214  -0.003102885118817   0.001249304734667 1
force Au   0.001379555746796   0.003319528231639   0.001252859254547 1
force Au   0.001299135500611  -0.003385109163134  -0.001357366692294 1
force Au   0.000009323137716   0.001479799604227   0.001496894533244 1
force Au  -0.000035471766589  -0.001249274611392  -0.001233283330776 1
force Au  -0.000002328044427   0.001346938390309  -0.001321669400822 1
force Au  -0.000015847590340  -0.001210930391789   0.001221094206120 1
force Au   0.003373714145358  -0.001211775602342  -0.001357617706231 1
force Au   0.003234022200181   0.001243095431004   0.001279148417735 1
force Au  -0.002924290498978  -0.001120740437044   0.001093839708456 1
force Au  -0.003048150300132   0.001023800307445  -0.001243149834148 1
force Au   0.001236927867341   0.000029949836895   0.001263445025251 1
force Au   0.001340307184062  -0.000000855486474  -0.001326817415070 1
force Au  -0.001151609633637   0.000037201285493  -0.001114022376430 1
force Au  -0.001343170609199  -0.000066924893722   0.001333641257622 1
force Au   0.001370499044994   0.001382405788205   0.000011408039970 1
force Au   0.001330021501143  -0.001336843554807   0.000054951380199 1
force Au  -0.001466626097359   0.001450877728763   0.000002523726695 1
force Au  -0.001156542074815  -0.001135792189917   0.000029046093747 1
force Au  -0.000127651248190  -0.000137202800666  -0.000133670820914 1
force Au  -0.000108835587611   0.000126690179515   0.000118504474080 1
force Au   0.000129221217390  -0.000123802151413   0.000123529297941 1
force Au   0.000131266456087   0.000133816907449  -0.000124506968539 1
force O  -0.003355731276236   0.000085997891296  -0.000899934832341 1

# Energy components:
   Eewald =    -1163.4365652269832481
       EH =      141.9587094206918323
     Eloc =     -115.4291163753446341
      Enl =     -129.2367111786054181
      Exc =    -1000.4955086898498848
 Exc_core =      730.5167281141769990
       KE =      411.0309337426676848
-------------------------------------
     Etot =    -1125.0915301932466264
       TS =        0.0144130905783995
-------------------------------------
        F =    -1125.1059432838251269

IonicMinimize: Iter:   1  F: -1125.105943283825127  |grad|_K:  3.754e-02  alpha:  3.876e-01  linmin: -9.997e-01  t[s]:  26919.92

#--- Lowdin population analysis ---
# oxidation-state Au +0.157 +0.158 +0.160 +0.159 +0.004 +0.003 +0.003 +0.004 +0.004 +0.003 +0.003 +0.003 -0.003 -0.003 -0.003 -0.003 +0.003 +0.003 +0.003 +0.004 -0.003 -0.003 -0.003 -0.003 -0.003 -0.003 -0.003 -0.003 +0.002 +0.002 +0.002 +0.002
# oxidation-state O -0.443


-------- Electronic minimization -----------
	FillingsUpdate:  mu: +0.599633219  nElectrons: 358.000000
ElecMinimize: Iter:   0  F: -1124.579432166196511  |grad|_K:  9.062e-05  alpha:  1.000e+00
	FillingsUpdate:  mu: +0.587162116  nElectrons: 358.000000
	SubspaceRotationAdjust: set factor to 0.395
ElecMinimize: Iter:   1  F: -1124.975958895239273  |grad|_K:  4.887e-05  alpha:  2.766e-01  linmin: -3.367e-03  t[s]:  27933.61
	FillingsUpdate:  mu: +0.587560446  nElectrons: 358.000000
	SubspaceRotationAdjust: set factor to 0.289
ElecMinimize: Iter:   2  F: -1125.083108554048067  |grad|_K:  2.292e-05  alpha:  2.613e-01  linmin: -1.233e-03  t[s]:  28486.78
	FillingsUpdate:  mu: +0.586225421  nElectrons: 358.000000
	SubspaceRotationAdjust: set factor to 0.304
ElecMinimize: Iter:   3  F: -1125.127729724917344  |grad|_K:  1.867e-05  alpha:  4.985e-01  linmin: -2.936e-04  t[s]:  29039.94
	FillingsUpdate:  mu: +0.586861026  nElectrons: 358.000000
	SubspaceRotationAdjust: set factor to 0.339
ElecMinimize: Iter:   4  F: -1125.159384001464559  |grad|_K:  9.458e-06  alpha:  5.440e-01  linmin:  7.503e-05  t[s]:  29592.98
	FillingsUpdate:  mu: +0.585932399  nElectrons: 358.000000
	SubspaceRotationAdjust: set factor to 0.476
ElecMinimize: Iter:   5  F: -1125.166477808961190  |grad|_K:  3.927e-06  alpha:  4.776e-01  linmin: -1.981e-05  t[s]:  30146.20
	FillingsUpdate:  mu: +0.585936101  nElectrons: 358.000000
	SubspaceRotationAdjust: set factor to 0.55
ElecMinimize: Iter:   6  F: -1125.167931109876690  |grad|_K:  3.014e-06  alpha:  5.672e-01  linmin:  4.534e-05  t[s]:  30699.43
	FillingsUpdate:  mu: +0.585971641  nElectrons: 358.000000
	SubspaceRotationAdjust: set factor to 0.64
ElecMinimize: Iter:   7  F: -1125.168532629932315  |grad|_K:  1.991e-06  alpha:  3.992e-01  linmin: -4.722e-06  t[s]:  31252.44
	FillingsUpdate:  mu: +0.585793241  nElectrons: 358.000000
	SubspaceRotationAdjust: set factor to 0.612
ElecMinimize: Iter:   8  F: -1125.168860062705335  |grad|_K:  1.371e-06  alpha:  4.971e-01  linmin:  3.886e-05  t[s]:  31805.56
	FillingsUpdate:  mu: +0.586015774  nElectrons: 358.000000
	SubspaceRotationAdjust: set factor to 0.46
ElecMinimize: Iter:   9  F: -1125.168964089120436  |grad|_K:  8.720e-07  alpha:  3.339e-01  linmin: -2.832e-07  t[s]:  32358.70
	FillingsUpdate:  mu: +0.585952977  nElectrons: 358.000000
	SubspaceRotationAdjust: set factor to 0.347
ElecMinimize: Iter:  10  F: -1125.169015897649842  |grad|_K:  4.342e-07  alpha:  4.101e-01  linmin:  2.326e-06  t[s]:  32911.83
	FillingsUpdate:  mu: +0.585935272  nElectrons: 358.000000
	SubspaceRotationAdjust: set factor to 0.378
ElecMinimize: Iter:  11  F: -1125.169027858903974  |grad|_K:  2.668e-07  alpha:  3.819e-01  linmin:  2.439e-07  t[s]:  33464.89
	FillingsUpdate:  mu: +0.585952068  nElectrons: 358.000000
	SubspaceRotationAdjust: set factor to 0.491
ElecMinimize: Iter:  12  F: -1125.169032802861921  |grad|_K:  1.354e-07  alpha:  4.179e-01  linmin:  4.057e-07  t[s]:  34018.07
	FillingsUpdate:  mu: +0.585957793  nElectrons: 358.000000
	SubspaceRotationAdjust: set factor to 0.637
ElecMinimize: Iter:  13  F: -1125.169034861794216  |grad|_K:  1.009e-07  alpha:  6.760e-01  linmin: -1.702e-07  t[s]:  34570.95
	FillingsUpdate:  mu: +0.585944164  nElectrons: 358.000000
	SubspaceRotationAdjust: set factor to 0.826
ElecMinimize: Iter:  14  F: -1125.169035665474212  |grad|_K:  7.681e-08  alpha:  4.750e-01  linmin: -4.971e-08  t[s]:  35123.87
	FillingsUpdate:  mu: +0.585943816  nElectrons: 358.000000
	SubspaceRotationAdjust: set factor to 0.87
ElecMinimize: Iter:  15  F: -1125.169036115942617  |grad|_K:  5.315e-08  alpha:  4.595e-01  linmin:  2.267e-07  t[s]:  35677.37
	FillingsUpdate:  mu: +0.585950308  nElectrons: 358.000000
	SubspaceRotationAdjust: set factor to 0.659
ElecMinimize: Iter:  16  F: -1125.169036246166343  |grad|_K:  4.125e-08  alpha:  2.774e-01  linmin: -2.678e-08  t[s]:  36230.48
	FillingsUpdate:  mu: +0.585946686  nElectrons: 358.000000
	SubspaceRotationAdjust: set factor to 0.626
ElecMinimize: Iter:  17  F: -1125.169036323576620  |grad|_K:  2.034e-08  alpha:  2.738e-01  linmin: -1.230e-07  t[s]:  36783.56
	FillingsUpdate:  mu: +0.585946476  nElectrons: 358.000000
	SubspaceRotationAdjust: set factor to 0.691
ElecMinimize: Iter:  18  F: -1125.169036355062190  |grad|_K:  1.370e-08  alpha:  4.574e-01  linmin: -9.138e-07  t[s]:  37336.66
	FillingsUpdate:  mu: +0.585947591  nElectrons: 358.000000
	SubspaceRotationAdjust: set factor to 0.872
ElecMinimize: Iter:  19  F: -1125.169036368039087  |grad|_K:  8.344e-09  alpha:  4.142e-01  linmin:  8.044e-08  t[s]:  37888.65
	FillingsUpdate:  mu: +0.585946975  nElectrons: 358.000000
	SubspaceRotationAdjust: set factor to 1.07
ElecMinimize: Iter:  20  F: -1125.169036373952167  |grad|_K:  5.986e-09  alpha:  5.079e-01  linmin: -2.190e-06  t[s]:  38441.35
	FillingsUpdate:  mu: +0.585947494  nElectrons: 358.000000
	SubspaceRotationAdjust: set factor to 0.96
ElecMinimize: Iter:  21  F: -1125.169036375807536  |grad|_K:  5.271e-09  alpha:  3.106e-01  linmin: -8.175e-07  t[s]:  38993.87
ElecMinimize: Converged (|Delta F|<1.000000e-08 for 2 iters).
Setting wave functions to eigenvectors of Hamiltonian

# Ionic positions in cartesian coordinates:
ion Au  -0.102890922160032  -0.112751097208635  -0.113332387614755 1
ion Au  -0.113862510754428   3.978029281059281   3.969027245575019 1
ion Au   3.968663445559482  -0.114160086249345   3.959531863769050 1
ion Au   3.968324296779695   3.968084352696528  -0.114452146069922 1
ion Au  -0.001231775555676  -0.001215278574958   7.712678357724776 1
ion Au  -0.001448983289760   3.856355311199335  11.562271179869835 1
ion Au   3.856492123879742  -0.001362658326040  11.562082098720765 1
ion Au   3.856399895364359   3.856198439945821   7.712821558966385 1
ion Au  -0.001403883137973   7.713694566636149  -0.001563331312653 1
ion Au  -0.001460379910560  11.561745815882391   3.856450517376670 1
ion Au   3.856587689697814   7.713675373440513   3.856438175644135 1
ion Au   3.856493835031949  11.561425005986981  -0.001535308386399 1
ion Au   0.000207100238992   7.713208280430037   7.713237257508830 1
ion Au   0.000136367366769  11.562321568046348  11.562347841745492 1
ion Au   3.854827516438466   7.713059210027450  11.562186261542486 1
ion Au   3.854804389230072  11.562329032312659   7.712892474228650 1
ion Au   7.713763085718443  -0.001344007010380  -0.001530318659041 1
ion Au   7.713573291877461   3.856415374433802   3.856463967247657 1
ion Au  11.561972960103219  -0.001245334249408   3.856263255648289 1
ion Au  11.561824278563217   3.856156753626360  -0.001401608373446 1
ion Au   7.712901076302374   0.000243633676871   7.712930850268823 1
ion Au   7.713049612608524   3.854833057462571  11.562194439541761 1
ion Au  11.562459725506004   0.000234455555566  11.562511195544010 1
ion Au  11.562179455456910   3.854747481244338   7.713018864430797 1
ion Au   7.713083555073165   7.713085273446679   0.000220689936507 1
ion Au   7.713058037630236  11.562151491208290   3.854909575473212 1
ion Au  11.561991912519661   7.713197513671616   3.854847216192340 1
ion Au  11.562450340463265  11.562475669478873   0.000229164713359 1
ion Au   7.709906435258930   7.709889804341700   7.709905468450898 1
ion Au   7.709931594025937  11.565296573706760  11.565291351869734 1
ion Au  11.565302808632149   7.709902988442839  11.565302029315260 1
ion Au  11.565304104146620  11.565308571347732   7.709913163834067 1
ion O   1.935493521334982   1.936897582311278   1.936733035277417 1

# Forces in Cartesian coordinates:
force Au  -0.075708260404398  -0.075384613245718  -0.075448466220768 1
force Au  -0.076994684159313   0.076141833710919   0.076384100725557 1
force Au   0.078326941270592  -0.078918057080678   0.078675226637072 1
force Au   0.077408282390479   0.077464353648004  -0.078053355580979 1
force Au  -0.000775310677068  -0.000763414580706   0.001780131516614 1
force Au  -0.000898332860573   0.000834456642116  -0.001948967377035 1
force Au   0.000939696137288  -0.000854721005518  -0.002088140556782 1
force Au   0.000875732350690   0.000741904521359   0.001924154953082 1
force Au  -0.000873161461324   0.002277118283043  -0.000951551147606 1
force Au  -0.000916403224990  -0.002117136877469   0.000845759018221 1
force Au   0.000979888527712   0.002336515954756   0.000844321421222 1
force Au   0.000924492971925  -0.002382328304527  -0.000940043538456 1
force Au   0.000161391493669   0.003048588693809   0.003106677743066 1
force Au   0.000112293091228  -0.002820415814902  -0.002860234564001 1
force Au  -0.000135219512495   0.002838651076021  -0.002876697076974 1
force Au  -0.000143594366540  -0.002683962605697   0.002746887652875 1
force Au   0.002367572805051  -0.000858907240354  -0.000946882527825 1
force Au   0.002276297651260   0.000867454275807   0.000873311796336 1
force Au  -0.001956126559744  -0.000762903227923   0.000708823851325 1
force Au  -0.002067793405038   0.000677934230235  -0.000828481865609 1
force Au   0.002738153183684   0.000153498858741   0.002795097956865 1
force Au   0.002848596075979  -0.000131841724871  -0.002889076667413 1
force Au  -0.002698348141369   0.000175972891670  -0.002709669500182 1
force Au  -0.002878029501889  -0.000212270932157   0.002917337376794 1
force Au   0.002885642246196   0.002888667454049   0.000148419479491 1
force Au   0.002845951974232  -0.002835434649589  -0.000081379539658 1
force Au  -0.003020685936409   0.003006510784377  -0.000153272683954 1
force Au  -0.002684121564867  -0.002656813722354   0.000184444196428 1
force Au  -0.000125288342447  -0.000135438134020  -0.000115743814828 1
force Au  -0.000096920495012   0.000124544752238   0.000104302609926 1
force Au   0.000118140682293  -0.000114738213842   0.000111193998000 1
force Au   0.000122525765513   0.000135831326810  -0.000107241134765 1
force O  -0.003840653813151   0.000029091594246  -0.001199886509049 1

# Energy components:
   Eewald =    -1165.0872068010951352
       EH =      140.5566489379583572
     Eloc =     -112.3327345418523038
      Enl =     -129.3016501413065953
      Exc =    -1000.4476284250396247
 Exc_core =      730.5168078912121246
       KE =      410.9408332358950702
-------------------------------------
     Etot =    -1125.1549298442280360
       TS =        0.0141065315794709
-------------------------------------
        F =    -1125.1690363758075364

IonicMinimize: Iter:   2  F: -1125.169036375807536  |grad|_K:  2.689e-02  alpha:  3.550e-01  linmin: -9.991e-01  t[s]:  39119.21

#--- Lowdin population analysis ---
# oxidation-state Au +0.144 +0.145 +0.147 +0.146 +0.007 +0.006 +0.006 +0.006 +0.006 +0.006 +0.006 +0.006 -0.001 -0.001 -0.001 -0.001 +0.006 +0.006 +0.006 +0.006 -0.001 -0.001 -0.000 -0.001 -0.001 -0.001 -0.001 -0.000 +0.003 +0.003 +0.003 +0.003
# oxidation-state O -0.464


-------- Electronic minimization -----------
	FillingsUpdate:  mu: +0.599819358  nElectrons: 358.000000
ElecMinimize: Iter:   0  F: -1124.613552925991371  |grad|_K:  9.529e-05  alpha:  1.000e+00
	FillingsUpdate:  mu: +0.586559440  nElectrons: 358.000000
	SubspaceRotationAdjust: set factor to 0.633
ElecMinimize: Iter:   1  F: -1124.937153736613027  |grad|_K:  6.272e-05  alpha:  1.839e-01  linmin: -6.198e-03  t[s]:  40131.34
	FillingsUpdate:  mu: +0.587032213  nElectrons: 358.000000
	SubspaceRotationAdjust: set factor to 0.484
ElecMinimize: Iter:   2  F: -1125.110992249229412  |grad|_K:  2.710e-05  alpha:  2.330e-01  linmin: -1.294e-03  t[s]:  40683.31
	FillingsUpdate:  mu: +0.585243022  nElectrons: 358.000000
	SubspaceRotationAdjust: set factor to 0.476
ElecMinimize: Iter:   3  F: -1125.161883620500703  |grad|_K:  1.952e-05  alpha:  4.067e-01  linmin: -3.159e-04  t[s]:  41235.93
	FillingsUpdate:  mu: +0.586250999  nElectrons: 358.000000
	SubspaceRotationAdjust: set factor to 0.472
ElecMinimize: Iter:   4  F: -1125.201680694143761  |grad|_K:  1.146e-05  alpha:  6.242e-01  linmin: -9.878e-06  t[s]:  41788.44
	FillingsUpdate:  mu: +0.585046328  nElectrons: 358.000000
	SubspaceRotationAdjust: set factor to 0.447
ElecMinimize: Iter:   5  F: -1125.210997790055217  |grad|_K:  4.991e-06  alpha:  4.258e-01  linmin:  2.234e-05  t[s]:  42340.66
	FillingsUpdate:  mu: +0.585279128  nElectrons: 358.000000
	SubspaceRotationAdjust: set factor to 0.418
ElecMinimize: Iter:   6  F: -1125.212664613409743  |grad|_K:  2.787e-06  alpha:  4.029e-01  linmin:  9.564e-07  t[s]:  42893.21
	FillingsUpdate:  mu: +0.585226001  nElectrons: 358.000000
	SubspaceRotationAdjust: set factor to 0.438
ElecMinimize: Iter:   7  F: -1125.213262071296185  |grad|_K:  1.518e-06  alpha:  4.631e-01  linmin:  8.196e-05  t[s]:  43445.76
	FillingsUpdate:  mu: +0.585209993  nElectrons: 358.000000
	SubspaceRotationAdjust: set factor to 0.464
ElecMinimize: Iter:   8  F: -1125.213452838624562  |grad|_K:  1.062e-06  alpha:  4.995e-01  linmin: -4.301e-06  t[s]:  43998.48
	FillingsUpdate:  mu: +0.585191010  nElectrons: 358.000000
	SubspaceRotationAdjust: set factor to 0.508
ElecMinimize: Iter:   9  F: -1125.213532262021090  |grad|_K:  6.149e-07  alpha:  4.236e-01  linmin:  9.849e-07  t[s]:  44550.77
	FillingsUpdate:  mu: +0.585251089  nElectrons: 358.000000
	SubspaceRotationAdjust: set factor to 0.499
ElecMinimize: Iter:  10  F: -1125.213567148053698  |grad|_K:  3.836e-07  alpha:  5.553e-01  linmin: -7.194e-07  t[s]:  45103.16
	FillingsUpdate:  mu: +0.585209464  nElectrons: 358.000000
	SubspaceRotationAdjust: set factor to 0.443
ElecMinimize: Iter:  11  F: -1125.213577763461899  |grad|_K:  2.279e-07  alpha:  4.342e-01  linmin:  1.263e-06  t[s]:  45655.46
	FillingsUpdate:  mu: +0.585231617  nElectrons: 358.000000
	SubspaceRotationAdjust: set factor to 0.37
ElecMinimize: Iter:  12  F: -1125.213581171424266  |grad|_K:  1.264e-07  alpha:  3.951e-01  linmin:  2.967e-07  t[s]:  46207.75
	FillingsUpdate:  mu: +0.585229340  nElectrons: 358.000000
	SubspaceRotationAdjust: set factor to 0.372
ElecMinimize: Iter:  13  F: -1125.213582624264973  |grad|_K:  7.781e-08  alpha:  5.475e-01  linmin:  5.147e-07  t[s]:  46760.12
	FillingsUpdate:  mu: +0.585225500  nElectrons: 358.000000
	SubspaceRotationAdjust: set factor to 0.421
ElecMinimize: Iter:  14  F: -1125.213583030257269  |grad|_K:  4.976e-08  alpha:  4.037e-01  linmin: -4.206e-08  t[s]:  47312.51
	FillingsUpdate:  mu: +0.585224429  nElectrons: 358.000000
	SubspaceRotationAdjust: set factor to 0.458
ElecMinimize: Iter:  15  F: -1125.213583240297339  |grad|_K:  2.924e-08  alpha:  5.106e-01  linmin:  6.465e-07  t[s]:  47864.82
	FillingsUpdate:  mu: +0.585225863  nElectrons: 358.000000
	SubspaceRotationAdjust: set factor to 0.49
ElecMinimize: Iter:  16  F: -1125.213583320146427  |grad|_K:  1.696e-08  alpha:  5.621e-01  linmin: -4.608e-07  t[s]:  48416.94
	FillingsUpdate:  mu: +0.585224606  nElectrons: 358.000000
	SubspaceRotationAdjust: set factor to 0.53
ElecMinimize: Iter:  17  F: -1125.213583344992685  |grad|_K:  1.142e-08  alpha:  5.187e-01  linmin:  2.096e-07  t[s]:  48969.12
	FillingsUpdate:  mu: +0.585224945  nElectrons: 358.000000
	SubspaceRotationAdjust: set factor to 0.567
ElecMinimize: Iter:  18  F: -1125.213583354320235  |grad|_K:  6.438e-09  alpha:  4.323e-01  linmin: -5.600e-07  t[s]:  49521.40
	FillingsUpdate:  mu: +0.585225211  nElectrons: 358.000000
	SubspaceRotationAdjust: set factor to 0.541
ElecMinimize: Iter:  19  F: -1125.213583357776770  |grad|_K:  4.514e-09  alpha:  4.990e-01  linmin:  2.317e-06  t[s]:  50073.77
ElecMinimize: Converged (|Delta F|<1.000000e-08 for 2 iters).
Setting wave functions to eigenvectors of Hamiltonian

# Ionic positions in cartesian coordinates:
ion Au  -0.159289649458522  -0.168804346389009  -0.169486851826354 1
ion Au  -0.170647289902099   4.034041752890732   4.025548624927646 1
ion Au   4.026044995490716  -0.171875124276540   4.017638077834405 1
ion Au   4.025240653681185   4.024939099619314  -0.171806671261084 1
ion Au  -0.001845872851185  -0.001806750971545   7.713423470255242 1
ion Au  -0.002239641275224   3.857042962746879  11.561277234436833 1
ion Au   3.857316040545127  -0.002083530427774  11.560995280516270 1
ion Au   3.857118962204455   3.856740391248397   7.713728140354906 1
ion Au  -0.002161401789251   7.715413093300212  -0.002376932863931 1
ion Au  -0.002280841782224  11.560200181907131   3.857128004862157 1
ion Au   3.857433155769486   7.715467163686157   3.857082794937472 1
ion Au   3.857288387640073  11.559534306115713  -0.002334317452914 1
ion Au   0.000900605500134   7.721428453189795   7.721602730876377 1
ion Au   0.000726978853011  11.554496045529442  11.554418402240389 1
ion Au   3.854158302125697   7.720904147639169  11.554223989393103 1
ion Au   3.854117734218351  11.554749706041330   7.720617626035509 1
ion Au   7.715609623764477  -0.002069841613533  -0.002338297235618 1
ion Au   7.715302932266851   3.857108848052008   3.857145333547522 1
ion Au  11.560664241852047  -0.001840698351224   3.856757707012104 1
ion Au  11.560364000359181   3.856609730898643  -0.002044296410374 1
ion Au   7.720566949125192   0.000914404438305   7.720714162297662 1
ion Au   7.720923146993887   3.854177784810371  11.554228242067246 1
ion Au  11.554870863305068   0.000927113731999  11.554867779087305 1
ion Au  11.554261402023622   3.853948855578447   7.721043313762249 1
ion Au   7.721015428076348   7.720994060703264   0.000900435787553 1
ion Au   7.720967620646983  11.554281408364869   3.854340769968981 1
ion Au  11.553783002405812   7.721378410215893   3.854152690037121 1
ion Au  11.554897488231484  11.554971821841900   0.000962067427124 1
ion Au   7.709682615734367   7.709643641896535   7.709726202597841 1
ion Au   7.709763659052013  11.565504341837203  11.565466746177032 1
ion Au  11.565495385542437   7.709690632364176  11.565496677377315 1
ion Au  11.565503851119072  11.565542662303795   7.709740658787536 1
ion O   1.933330670531435   1.936713271077954   1.936044204445384 1

# Forces in Cartesian coordinates:
force Au  -0.051831117123062  -0.051468682649493  -0.051201222533504 1
force Au  -0.052325143674881   0.051562679058284   0.051703229490715 1
force Au   0.052777575022297  -0.053119042180543   0.052844382850621 1
force Au   0.052396158806533   0.052371355171887  -0.052431023710873 1
force Au  -0.000387198318319  -0.000369939206564   0.001193185492793 1
force Au  -0.000467494832531   0.000432447170172  -0.001336226753439 1
force Au   0.000516497831980  -0.000440498208981  -0.001413376890305 1
force Au   0.000451378131572   0.000362057067868   0.001299100399018 1
force Au  -0.000458694446313   0.001368543855952  -0.000458982812691 1
force Au  -0.000490437938559  -0.001257718282849   0.000385312704007 1
force Au   0.000541838777592   0.001399010932211   0.000387179787667 1
force Au   0.000509882390131  -0.001448300588503  -0.000465708807237 1
force Au   0.000052424167598   0.004008506703623   0.004152677526075 1
force Au  -0.000001133735805  -0.003791769032025  -0.003930772348113 1
force Au  -0.000018446368588   0.003879007378337  -0.004015351503424 1
force Au  -0.000030817636344  -0.003755846086891   0.003906441401753 1
force Au   0.001411659750478  -0.000443295852912  -0.000455894835984 1
force Au   0.001352293304780   0.000453102281711   0.000395344602785 1
force Au  -0.001118719605401  -0.000377745737654   0.000284134668748 1
force Au  -0.001223259996244   0.000329374816679  -0.000378143835706 1
force Au   0.003790340343943   0.000047432309843   0.003913563120952 1
force Au   0.003886784260252  -0.000021453687218  -0.004009029773638 1
force Au  -0.003686259635820   0.000042651180654  -0.003801810790010 1
force Au  -0.003875771610183  -0.000083002122353   0.004008984052005 1
force Au   0.003912033451731   0.003899016071466   0.000041787665424 1
force Au   0.003910481890532  -0.003889792240297   0.000006809701236 1
force Au  -0.004025368493902   0.004006812782908  -0.000041170914417 1
force Au  -0.003693231720384  -0.003667609010755   0.000046049637555 1
force Au  -0.000150612782624  -0.000150796383509  -0.000121792898084 1
force Au  -0.000110883650269   0.000140681625242   0.000116425104889 1
force Au   0.000124388601491  -0.000132793380848   0.000137628952654 1
force Au   0.000129142783660   0.000167690105090  -0.000110511608999 1
force O  -0.001886604055595  -0.000138106231991  -0.000644073469631 1

# Energy components:
   Eewald =    -1166.3742551281079614
       EH =      139.4447313792706211
     Eloc =     -109.8899542460263774
      Enl =     -129.3506720214870143
      Exc =    -1000.4117590615369409
 Exc_core =      730.5167473280084778
       KE =      410.8653653716556846
-------------------------------------
     Etot =    -1125.1997963782237093
       TS =        0.0137869795531731
-------------------------------------
        F =    -1125.2135833577767698

IonicMinimize: Iter:   3  F: -1125.213583357776770  |grad|_K:  1.827e-02  alpha:  3.894e-01  linmin: -9.960e-01  t[s]:  50199.13

#--- Lowdin population analysis ---
# oxidation-state Au +0.132 +0.132 +0.133 +0.133 +0.009 +0.009 +0.009 +0.009 +0.009 +0.009 +0.009 +0.009 +0.001 +0.001 +0.001 +0.001 +0.009 +0.009 +0.009 +0.009 +0.001 +0.001 +0.001 +0.001 +0.001 +0.001 +0.001 +0.001 +0.005 +0.005 +0.005 +0.005
# oxidation-state O -0.477


-------- Electronic minimization -----------
	FillingsUpdate:  mu: +0.600249988  nElectrons: 358.000000
ElecMinimize: Iter:   0  F: -1124.593527464628778  |grad|_K:  9.389e-05  alpha:  1.000e+00
	FillingsUpdate:  mu: +0.586776875  nElectrons: 358.000000
	SubspaceRotationAdjust: set factor to 0.34
ElecMinimize: Iter:   1  F: -1125.034281909318452  |grad|_K:  4.702e-05  alpha:  2.831e-01  linmin: -5.114e-03  t[s]:  51207.51
	FillingsUpdate:  mu: +0.585918451  nElectrons: 358.000000
	SubspaceRotationAdjust: set factor to 0.261
ElecMinimize: Iter:   2  F: -1125.154877461780416  |grad|_K:  2.230e-05  alpha:  3.114e-01  linmin: -1.572e-03  t[s]:  51757.61
	FillingsUpdate:  mu: +0.584768623  nElectrons: 358.000000
	SubspaceRotationAdjust: set factor to 0.272
ElecMinimize: Iter:   3  F: -1125.201722149124180  |grad|_K:  1.968e-05  alpha:  5.514e-01  linmin: -2.127e-04  t[s]:  52307.60
	FillingsUpdate:  mu: +0.585288291  nElectrons: 358.000000
	SubspaceRotationAdjust: set factor to 0.32
ElecMinimize: Iter:   4  F: -1125.234241165199592  |grad|_K:  8.764e-06  alpha:  5.036e-01  linmin:  5.942e-05  t[s]:  52857.74
	FillingsUpdate:  mu: +0.584482222  nElectrons: 358.000000
	SubspaceRotationAdjust: set factor to 0.446
ElecMinimize: Iter:   5  F: -1125.240445390351624  |grad|_K:  4.092e-06  alpha:  4.864e-01  linmin: -3.433e-05  t[s]:  53409.06
	FillingsUpdate:  mu: +0.584579667  nElectrons: 358.000000
	SubspaceRotationAdjust: set factor to 0.526
ElecMinimize: Iter:   6  F: -1125.242027291987142  |grad|_K:  3.170e-06  alpha:  5.685e-01  linmin:  4.687e-05  t[s]:  53959.28
	FillingsUpdate:  mu: +0.584503813  nElectrons: 358.000000
	SubspaceRotationAdjust: set factor to 0.65
ElecMinimize: Iter:   7  F: -1125.242735426877971  |grad|_K:  2.168e-06  alpha:  4.250e-01  linmin: -7.823e-06  t[s]:  54509.08
	FillingsUpdate:  mu: +0.584438082  nElectrons: 358.000000
	SubspaceRotationAdjust: set factor to 0.672
ElecMinimize: Iter:   8  F: -1125.243146276230391  |grad|_K:  1.517e-06  alpha:  5.262e-01  linmin:  2.119e-05  t[s]:  55059.29
	FillingsUpdate:  mu: +0.584632051  nElectrons: 358.000000
	SubspaceRotationAdjust: set factor to 0.506
ElecMinimize: Iter:   9  F: -1125.243278636323566  |grad|_K:  9.853e-07  alpha:  3.468e-01  linmin:  6.418e-07  t[s]:  55610.54
	FillingsUpdate:  mu: +0.584554146  nElectrons: 358.000000
	SubspaceRotationAdjust: set factor to 0.369
ElecMinimize: Iter:  10  F: -1125.243339450106987  |grad|_K:  5.118e-07  alpha:  3.770e-01  linmin:  7.347e-06  t[s]:  56161.09
	FillingsUpdate:  mu: +0.584538854  nElectrons: 358.000000
	SubspaceRotationAdjust: set factor to 0.428
ElecMinimize: Iter:  11  F: -1125.243355389524822  |grad|_K:  2.899e-07  alpha:  3.664e-01  linmin: -1.491e-06  t[s]:  56711.30
	FillingsUpdate:  mu: +0.584565343  nElectrons: 358.000000
	SubspaceRotationAdjust: set factor to 0.539
ElecMinimize: Iter:  12  F: -1125.243361341729042  |grad|_K:  1.657e-07  alpha:  4.262e-01  linmin:  1.284e-07  t[s]:  57261.64
	FillingsUpdate:  mu: +0.584557305  nElectrons: 358.000000
	SubspaceRotationAdjust: set factor to 0.763
ElecMinimize: Iter:  13  F: -1125.243364111968731  |grad|_K:  1.165e-07  alpha:  6.073e-01  linmin:  1.028e-06  t[s]:  57812.13
	FillingsUpdate:  mu: +0.584549000  nElectrons: 358.000000
	SubspaceRotationAdjust: set factor to 0.982
ElecMinimize: Iter:  14  F: -1125.243365323659418  |grad|_K:  9.378e-08  alpha:  5.371e-01  linmin:  1.664e-07  t[s]:  58363.61
	FillingsUpdate:  mu: +0.584550329  nElectrons: 358.000000
	SubspaceRotationAdjust: set factor to 0.871
ElecMinimize: Iter:  15  F: -1125.243365833363896  |grad|_K:  7.313e-08  alpha:  3.488e-01  linmin: -9.253e-09  t[s]:  58915.34
	FillingsUpdate:  mu: +0.584555885  nElectrons: 358.000000
	SubspaceRotationAdjust: set factor to 0.632
ElecMinimize: Iter:  16  F: -1125.243366051954354  |grad|_K:  4.703e-08  alpha:  2.459e-01  linmin: -1.512e-07  t[s]:  59467.35
	FillingsUpdate:  mu: +0.584551239  nElectrons: 358.000000
	SubspaceRotationAdjust: set factor to 0.616
ElecMinimize: Iter:  17  F: -1125.243366163978635  |grad|_K:  2.593e-08  alpha:  3.048e-01  linmin: -6.712e-07  t[s]:  60018.87
	FillingsUpdate:  mu: +0.584551574  nElectrons: 358.000000
	SubspaceRotationAdjust: set factor to 0.716
ElecMinimize: Iter:  18  F: -1125.243366216921913  |grad|_K:  1.721e-08  alpha:  4.739e-01  linmin:  5.496e-07  t[s]:  60570.36
	FillingsUpdate:  mu: +0.584553673  nElectrons: 358.000000
	SubspaceRotationAdjust: set factor to 0.922
ElecMinimize: Iter:  19  F: -1125.243366237300052  |grad|_K:  1.211e-08  alpha:  4.135e-01  linmin: -1.534e-06  t[s]:  61121.90
	FillingsUpdate:  mu: +0.584552400  nElectrons: 358.000000
	SubspaceRotationAdjust: set factor to 0.887
ElecMinimize: Iter:  20  F: -1125.243366248005486  |grad|_K:  9.525e-09  alpha:  4.403e-01  linmin:  1.161e-06  t[s]:  61673.91
	FillingsUpdate:  mu: +0.584552637  nElectrons: 358.000000
	SubspaceRotationAdjust: set factor to 0.801
ElecMinimize: Iter:  21  F: -1125.243366252048645  |grad|_K:  6.928e-09  alpha:  2.683e-01  linmin:  1.593e-07  t[s]:  62225.41
	FillingsUpdate:  mu: +0.584552625  nElectrons: 358.000000
	SubspaceRotationAdjust: set factor to 0.643
ElecMinimize: Iter:  22  F: -1125.243366254569310  |grad|_K:  4.498e-09  alpha:  3.192e-01  linmin:  4.074e-06  t[s]:  62777.13
ElecMinimize: Converged (|Delta F|<1.000000e-08 for 2 iters).
Setting wave functions to eigenvectors of Hamiltonian

# Ionic positions in cartesian coordinates:
ion Au  -0.217863297525974  -0.226560096200846  -0.226349854875285 1
ion Au  -0.228388822060709   4.090432525822925   4.082348855748263 1
ion Au   4.082940158164136  -0.228889678118579   4.074686326555236 1
ion Au   4.082451716859288   4.081890784017666  -0.228141867486867 1
ion Au  -0.002003274328443  -0.001905557652790   7.714143168583539 1
ion Au  -0.002562873795827   3.857316146923590  11.560208501592490 1
ion Au   3.857760469461985  -0.002339561307374  11.559888726454336 1
ion Au   3.857388107626104   3.856843610163478   7.714636116553661 1
ion Au  -0.002478546801494   7.716591645014118  -0.002591967560438 1
ion Au  -0.002668571642695  11.559234045244972   3.857192955585822 1
ion Au   3.857893460386244   7.716686505373991   3.857124700861154 1
ion Au   3.857715812241126  11.558188933458556  -0.002582196111644 1
ion Au   0.001408169703075   7.735912675229391   7.736553003729036 1
ion Au   0.001066332624881  11.540638185789279  11.540072411744630 1
ion Au   3.853747427149763   7.735058109631867  11.539605223422056 1
ion Au   3.853667672425234  11.540950915569148   7.734924955868935 1
ion Au   7.716849914382497  -0.002330617703473  -0.002547882568062 1
ion Au   7.716434614571264   3.857382866862295   3.857186335709107 1
ion Au  11.560025296127677  -0.001970040149555   3.856612956441157 1
ion Au  11.559479854661973   3.856659357776740  -0.002097555495179 1
ion Au   7.734469852523210   0.001406937035520   7.734995996035011 1
ion Au   7.735102566207038   3.853769485604583  11.539653504524171 1
ion Au  11.541315884633033   0.001376089052285  11.540893272411601 1
ion Au  11.540158447071340   3.853375354932401   7.735605055349776 1
ion Au   7.735253248697767   7.735166185871476   0.001374635437183 1
ion Au   7.735265651022988  11.540092157240716   3.853979176764085 1
ion Au  11.539218969417703   7.735911000234690   3.853668823834914 1
ion Au  11.541323786384812  11.541476074536003   0.001423207366932 1
ion Au   7.709255597624224   7.709222466996936   7.709402370340551 1
ion Au   7.709458966433680  11.565910345262672  11.565786435510161 1
ion Au  11.565841248185933   7.709315976807522  11.565889397541225 1
ion Au  11.565862643007346  11.566037934970671   7.709441639857874 1
ion O   1.933493518560822   1.936033235709133   1.935897570274581 1

# Forces in Cartesian coordinates:
force Au  -0.030958495431392  -0.030484365107829  -0.030679014397152 1
force Au  -0.031163593852608   0.030527046877064   0.031132836643550 1
force Au   0.031672208419016  -0.031887723057818   0.032217380340049 1
force Au   0.031323074226228   0.031354051226844  -0.031746353318045 1
force Au   0.000032521824827   0.000045091682461   0.000599664491147 1
force Au   0.000011120426268  -0.000011240343080  -0.000668967760993 1
force Au   0.000045402127067   0.000008219588027  -0.000727569550914 1
force Au  -0.000005076328176  -0.000041096917703   0.000658335925428 1
force Au  -0.000021143551752   0.000472810900471   0.000072546449510 1
force Au  -0.000010013884539  -0.000432246245402  -0.000093464902975 1
force Au   0.000060891529348   0.000531605104480  -0.000099895221330 1
force Au   0.000069280170930  -0.000553572407553   0.000041391738268 1
force Au  -0.000330358466364   0.004159644664682   0.004369408623756 1
force Au  -0.000362087358297  -0.004011792863873  -0.004255390693643 1
force Au   0.000365798983786   0.004059022236605  -0.004259968899141 1
force Au   0.000361772417884  -0.003964425505429   0.004171402140975 1
force Au   0.000520679914582  -0.000023273806466   0.000058100360761 1
force Au   0.000519265617233   0.000019435248711  -0.000098425019170 1
force Au  -0.000349247236951   0.000053705761457  -0.000148128167786 1
force Au  -0.000409705533953  -0.000039650155638   0.000110529906078 1
force Au   0.003997063083678  -0.000348375891159   0.004180743264754 1
force Au   0.004080534658757   0.000352157018023  -0.004259679823494 1
force Au  -0.003943455765229  -0.000343373049822  -0.004161997560037 1
force Au  -0.004082052399988   0.000312008987742   0.004267612474400 1
force Au   0.004098244042851   0.004075434772253  -0.000385891861200 1
force Au   0.004102170133000  -0.004046175912001   0.000391258354053 1
force Au  -0.004165994756282   0.004177348669707   0.000354390761737 1
force Au  -0.003983331923364  -0.003957708553539  -0.000365648635863 1
force Au  -0.000178252295970  -0.000174786818598  -0.000157255126890 1
force Au  -0.000135430100271   0.000173517375574   0.000162701942648 1
force Au   0.000145691254477  -0.000160624297790   0.000192166990670 1
force Au   0.000158162195142   0.000215226444232  -0.000144851293293 1
force O  -0.001630651907520  -0.000189181929376  -0.000685108168945 1

# Energy components:
   Eewald =    -1167.3346794546735055
       EH =      138.5978857001079518
     Eloc =     -108.0401272880306465
      Enl =     -129.3861572982515895
      Exc =    -1000.3855900850636544
 Exc_core =      730.5168237412819963
       KE =      410.8019496790871585
-------------------------------------
     Etot =    -1125.2298950055421756
       TS =        0.0134712490270810
-------------------------------------
        F =    -1125.2433662545693096

IonicMinimize: Iter:   4  F: -1125.243366254569310  |grad|_K:  1.108e-02  alpha:  4.600e-01  linmin: -9.876e-01  t[s]:  62902.74

#--- Lowdin population analysis ---
# oxidation-state Au +0.120 +0.120 +0.122 +0.121 +0.012 +0.011 +0.011 +0.012 +0.012 +0.011 +0.012 +0.011 +0.003 +0.003 +0.003 +0.003 +0.012 +0.012 +0.012 +0.012 +0.003 +0.003 +0.003 +0.003 +0.003 +0.002 +0.003 +0.003 +0.006 +0.006 +0.006 +0.006
# oxidation-state O -0.484


-------- Electronic minimization -----------
	FillingsUpdate:  mu: +0.600669139  nElectrons: 358.000000
ElecMinimize: Iter:   0  F: -1124.527625866138578  |grad|_K:  1.007e-04  alpha:  1.000e+00
	FillingsUpdate:  mu: +0.586767860  nElectrons: 358.000000
	SubspaceRotationAdjust: set factor to 0.409
ElecMinimize: Iter:   1  F: -1124.988614775282485  |grad|_K:  5.541e-05  alpha:  2.445e-01  linmin: -7.655e-03  t[s]:  63913.92
	FillingsUpdate:  mu: +0.585547806  nElectrons: 358.000000
	SubspaceRotationAdjust: set factor to 0.33
ElecMinimize: Iter:   2  F: -1125.154691885786406  |grad|_K:  2.478e-05  alpha:  2.942e-01  linmin: -1.683e-03  t[s]:  64465.45
	FillingsUpdate:  mu: +0.583835430  nElectrons: 358.000000
	SubspaceRotationAdjust: set factor to 0.339
ElecMinimize: Iter:   3  F: -1125.208862539139773  |grad|_K:  2.149e-05  alpha:  5.157e-01  linmin: -2.011e-04  t[s]:  65017.09
	FillingsUpdate:  mu: +0.584345978  nElectrons: 358.000000
	SubspaceRotationAdjust: set factor to 0.377
ElecMinimize: Iter:   4  F: -1125.251184099922511  |grad|_K:  9.619e-06  alpha:  5.499e-01  linmin:  1.321e-04  t[s]:  65568.76
	FillingsUpdate:  mu: +0.583820536  nElectrons: 358.000000
	SubspaceRotationAdjust: set factor to 0.474
ElecMinimize: Iter:   5  F: -1125.258250880998276  |grad|_K:  4.247e-06  alpha:  4.603e-01  linmin: -3.150e-05  t[s]:  66120.32
	FillingsUpdate:  mu: +0.583937393  nElectrons: 358.000000
	SubspaceRotationAdjust: set factor to 0.567
ElecMinimize: Iter:   6  F: -1125.259815515104492  |grad|_K:  2.810e-06  alpha:  5.220e-01  linmin:  1.363e-05  t[s]:  66671.84
	FillingsUpdate:  mu: +0.583871933  nElectrons: 358.000000
	SubspaceRotationAdjust: set factor to 0.678
ElecMinimize: Iter:   7  F: -1125.260361974842681  |grad|_K:  1.867e-06  alpha:  4.166e-01  linmin: -9.088e-06  t[s]:  67223.84
	FillingsUpdate:  mu: +0.583841556  nElectrons: 358.000000
	SubspaceRotationAdjust: set factor to 0.622
ElecMinimize: Iter:   8  F: -1125.260637658102496  |grad|_K:  1.403e-06  alpha:  4.758e-01  linmin:  2.217e-05  t[s]:  67775.86
	FillingsUpdate:  mu: +0.583962634  nElectrons: 358.000000
	SubspaceRotationAdjust: set factor to 0.449
ElecMinimize: Iter:   9  F: -1125.260734887368926  |grad|_K:  8.095e-07  alpha:  2.975e-01  linmin:  1.421e-06  t[s]:  68327.50
	FillingsUpdate:  mu: +0.583920412  nElectrons: 358.000000
	SubspaceRotationAdjust: set factor to 0.369
ElecMinimize: Iter:  10  F: -1125.260784734986828  |grad|_K:  4.219e-07  alpha:  4.579e-01  linmin:  1.474e-05  t[s]:  68879.22
	FillingsUpdate:  mu: +0.583909541  nElectrons: 358.000000
	SubspaceRotationAdjust: set factor to 0.453
ElecMinimize: Iter:  11  F: -1125.260797235901464  |grad|_K:  2.217e-07  alpha:  4.228e-01  linmin:  8.775e-07  t[s]:  69430.48
	FillingsUpdate:  mu: +0.583932210  nElectrons: 358.000000
	SubspaceRotationAdjust: set factor to 0.533
ElecMinimize: Iter:  12  F: -1125.260800848411691  |grad|_K:  1.409e-07  alpha:  4.423e-01  linmin: -3.907e-07  t[s]:  69982.17
	FillingsUpdate:  mu: +0.583922325  nElectrons: 358.000000
	SubspaceRotationAdjust: set factor to 0.608
ElecMinimize: Iter:  13  F: -1125.260802651586800  |grad|_K:  9.384e-08  alpha:  5.465e-01  linmin:  3.211e-07  t[s]:  70533.55
	FillingsUpdate:  mu: +0.583914211  nElectrons: 358.000000
	SubspaceRotationAdjust: set factor to 0.625
ElecMinimize: Iter:  14  F: -1125.260803381402411  |grad|_K:  7.446e-08  alpha:  4.987e-01  linmin:  3.170e-07  t[s]:  71083.87
	FillingsUpdate:  mu: +0.583920113  nElectrons: 358.000000
	SubspaceRotationAdjust: set factor to 0.515
ElecMinimize: Iter:  15  F: -1125.260803724577499  |grad|_K:  4.762e-08  alpha:  3.725e-01  linmin:  2.364e-08  t[s]:  71632.96
	FillingsUpdate:  mu: +0.583917893  nElectrons: 358.000000
	SubspaceRotationAdjust: set factor to 0.537
ElecMinimize: Iter:  16  F: -1125.260803877860553  |grad|_K:  2.675e-08  alpha:  4.067e-01  linmin: -6.655e-07  t[s]:  72183.86
	FillingsUpdate:  mu: +0.583917257  nElectrons: 358.000000
	SubspaceRotationAdjust: set factor to 0.582
ElecMinimize: Iter:  17  F: -1125.260803925842083  |grad|_K:  1.658e-08  alpha:  4.037e-01  linmin: -4.475e-07  t[s]:  72735.44
	FillingsUpdate:  mu: +0.583918517  nElectrons: 358.000000
	SubspaceRotationAdjust: set factor to 0.686
ElecMinimize: Iter:  18  F: -1125.260803947563545  |grad|_K:  8.940e-09  alpha:  4.754e-01  linmin: -2.548e-06  t[s]:  73288.09
	FillingsUpdate:  mu: +0.583918472  nElectrons: 358.000000
	SubspaceRotationAdjust: set factor to 0.844
ElecMinimize: Iter:  19  F: -1125.260803955294250  |grad|_K:  6.191e-09  alpha:  5.797e-01  linmin:  2.030e-06  t[s]:  73839.31
	FillingsUpdate:  mu: +0.583918343  nElectrons: 358.000000
	SubspaceRotationAdjust: set factor to 0.842
ElecMinimize: Iter:  20  F: -1125.260803957673488  |grad|_K:  4.470e-09  alpha:  3.770e-01  linmin: -4.154e-06  t[s]:  74391.16
ElecMinimize: Converged (|Delta F|<1.000000e-08 for 2 iters).
Setting wave functions to eigenvectors of Hamiltonian

# Ionic positions in cartesian coordinates:
ion Au  -0.275670980543500  -0.282460825197007  -0.282958435379546 1
ion Au  -0.285016196673859   4.144985853761278   4.139569323095425 1
ion Au   4.139838587043259  -0.285930185381222   4.133922711677116 1
ion Au   4.139117093306436   4.138494740695686  -0.285718056537632 1
ion Au  -0.000997632580129  -0.000842881918835   7.714369058056427 1
ion Au  -0.001603766676147   3.856429285583040  11.559703109370229 1
ion Au   3.857078171168749  -0.001407263264597  11.559289867470200 1
ion Au   3.856485054441718   3.855844167506667   7.715025562810315 1
ion Au  -0.001676839899459   7.716276889091640  -0.001309268692182 1
ion Au  -0.001804303490247  11.559666231178229   3.855854196003985 1
ion Au   3.857229007658069   7.716588558625286   3.855730621996398 1
ion Au   3.857138513997967  11.558218415981452  -0.001449327131823 1
ion Au   0.000342409707674   7.757646227805272   7.759260470801258 1
ion Au  -0.000161408704205  11.519614711114196  11.517861316879321 1
ion Au   3.855013357125144   7.756368866965252  11.517330329842615 1
ion Au   3.854910254639341  11.520098634622055   7.756784731002571 1
ion Au   7.716701974953329  -0.001532971867046  -0.001330754652884 1
ion Au   7.716328454433572   3.856577524909845   3.855776922470196 1
ion Au  11.560785311058817  -0.000879079324303   3.855094776727868 1
ion Au  11.560010186175923   3.855699005807971  -0.000701708591820 1
ion Au   7.755506808281024   0.000251716154931   7.756854045695749 1
ion Au   7.756521067463046   3.854976720534482  11.517405827393043 1
ion Au  11.520619221044463   0.000213263145938  11.519114227962547 1
ion Au  11.518818999773391   3.854407250465683   7.757865046129405 1
ion Au   7.756740068302896   7.756514487089648   0.000036560182039 1
ion Au   7.756831260707003  11.518853235969381   3.855313528632577 1
ion Au  11.517456017336487   7.757772530873084   3.854848414675830 1
ion Au  11.520453216626777  11.520716569849879   0.000150140545209 1
ion Au   7.708476480992696   7.708454823948061   7.708713881038410 1
ion Au   7.708881547909180  11.566705554282558  11.566498368399138 1
ion Au  11.566509029554975   7.708608322044687  11.566745224173580 1
ion Au  11.566584979515158  11.567031052669716   7.708801917455226 1
ion O   1.931438055350458   1.934922566277098   1.934431370499223 1

# Forces in Cartesian coordinates:
force Au  -0.014704215290390  -0.014504774078115  -0.014757469168098 1
force Au  -0.014818675407527   0.014584860962257   0.014991709832238 1
force Au   0.014919091269974  -0.014962974409508   0.015350785912206 1
force Au   0.014826063917099   0.014827852217374  -0.015115465592827 1
force Au   0.000399278107700   0.000409030502966  -0.000148229394655 1
force Au   0.000411733706194  -0.000383148803810   0.000136606833994 1
force Au  -0.000370558864666   0.000391486194377   0.000116199671191 1
force Au  -0.000409249799214  -0.000388212228241  -0.000178760018697 1
force Au   0.000396092637948  -0.000276116013670   0.000572483335047 1
force Au   0.000416837623187   0.000251949956593  -0.000560104613306 1
force Au  -0.000395665761031  -0.000285602450467  -0.000555899124262 1
force Au  -0.000378375034845   0.000266340164551   0.000529300777068 1
force Au  -0.000889057393977   0.003134717185863   0.003283056505282 1
force Au  -0.000876897076098  -0.003049645696724  -0.003257039831516 1
force Au   0.000904507987058   0.003126949259339  -0.003316941577803 1
force Au   0.000895103888665  -0.003112164889384   0.003303943206020 1
force Au  -0.000275993438390   0.000397040344476   0.000550303651886 1
force Au  -0.000279180177774  -0.000388504588658  -0.000577243359795 1
force Au   0.000285527351395   0.000422252356228  -0.000556501223903 1
force Au   0.000296360155444  -0.000382535862574   0.000566729105374 1
force Au   0.003163062227281  -0.000879799896900   0.003291428052928 1
force Au   0.003139528876142   0.000875226922686  -0.003304794042567 1
force Au  -0.003067555766150  -0.000888222046750  -0.003267804616522 1
force Au  -0.003114381714624   0.000882716422812   0.003294261494314 1
force Au   0.003154045796061   0.003125802431809  -0.000940235040604 1
force Au   0.003178219074429  -0.003119226960191   0.000911299888309 1
force Au  -0.003132746871045   0.003152789913754   0.000925302565722 1
force Au  -0.003064595076471  -0.003055705103262  -0.000941798663796 1
force Au  -0.000289358644075  -0.000277948354738  -0.000330177506513 1
force Au  -0.000256445935357   0.000284280345434   0.000332224553728 1
force Au   0.000257278120790  -0.000276946320684   0.000368851702027 1
force Au   0.000269536074166   0.000329378601227  -0.000316496413687 1
force O  -0.000631001712919  -0.000218314261070  -0.000376704026298 1

# Energy components:
   Eewald =    -1167.9575344804331962
       EH =      138.0345624951856962
     Eloc =     -106.8142819014295100
      Enl =     -129.4088952223726210
      Exc =    -1000.3682786297002849
 Exc_core =      730.5171820111419265
       KE =      410.7496206846774385
-------------------------------------
     Etot =    -1125.2476250429306219
       TS =        0.0131789147428437
-------------------------------------
        F =    -1125.2608039576734882

IonicMinimize: Iter:   5  F: -1125.260803957673488  |grad|_K:  5.423e-03  alpha:  6.190e-01  linmin: -9.793e-01  t[s]:  74516.09

#--- Lowdin population analysis ---
# oxidation-state Au +0.109 +0.109 +0.110 +0.110 +0.014 +0.014 +0.014 +0.014 +0.014 +0.014 +0.014 +0.014 +0.004 +0.004 +0.004 +0.004 +0.014 +0.014 +0.014 +0.014 +0.004 +0.004 +0.004 +0.004 +0.004 +0.003 +0.003 +0.004 +0.008 +0.008 +0.008 +0.008
# oxidation-state O -0.486


-------- Electronic minimization -----------
	FillingsUpdate:  mu: +0.600975376  nElectrons: 358.000000
ElecMinimize: Iter:   0  F: -1124.377883624206788  |grad|_K:  1.123e-04  alpha:  1.000e+00
	FillingsUpdate:  mu: +0.586880812  nElectrons: 358.000000
	SubspaceRotationAdjust: set factor to 0.554
ElecMinimize: Iter:   1  F: -1124.868484960740943  |grad|_K:  7.068e-05  alpha:  1.978e-01  linmin: -8.140e-03  t[s]:  75527.34
	FillingsUpdate:  mu: +0.585598478  nElectrons: 358.000000
	SubspaceRotationAdjust: set factor to 0.469
ElecMinimize: Iter:   2  F: -1125.128317521566260  |grad|_K:  2.908e-05  alpha:  2.688e-01  linmin: -1.939e-03  t[s]:  76080.53
	FillingsUpdate:  mu: +0.582825182  nElectrons: 358.000000
	SubspaceRotationAdjust: set factor to 0.469
ElecMinimize: Iter:   3  F: -1125.197684965765575  |grad|_K:  2.439e-05  alpha:  4.788e-01  linmin: -2.039e-04  t[s]:  76633.49
	FillingsUpdate:  mu: +0.583327498  nElectrons: 358.000000
	SubspaceRotationAdjust: set factor to 0.49
[...]
ion Au  11.479501756637880   3.872663312586680   7.798229874385163 1
ion Au   7.797418074229546   7.796868739237419  -0.020451178253165 1
ion Au   7.797420592291627  11.479108081866285   3.875231507838991 1
ion Au  11.478011250892127   7.797725236725523   3.875428522334410 1
ion Au  11.480879218491518  11.481138941264025  -0.020528797232034 1
ion Au   7.699619335983692   7.699718055109384   7.697295969289693 1
ion Au   7.700481799416084  11.575731702324129  11.577622716341104 1
ion Au  11.575488820513621   7.700007272634163  11.578249354939832 1
ion Au  11.575525877699603  11.576348170823431   7.697976309213015 1
ion O   1.929042695861125   1.931552979123763   1.930978624371766 1

# Forces in Cartesian coordinates:
force Au   0.000216939984338   0.000315080986389   0.000363946239819 1
force Au   0.000398317118052  -0.000445140917341  -0.000467484846449 1
force Au  -0.000193866635696   0.000202378049798  -0.000166017471001 1
force Au  -0.000217375134934  -0.000183003301736   0.000293513836636 1
force Au   0.000158583759206   0.000138591654560  -0.000177196241735 1
force Au   0.000162643202369  -0.000134213751960   0.000185358996953 1
force Au  -0.000143658682505   0.000155613561568   0.000178631819098 1
force Au  -0.000122497175137  -0.000128539494354  -0.000165279755234 1
force Au   0.000135665692724  -0.000114023157923   0.000183277364696 1
force Au   0.000123133265523   0.000114879495641  -0.000182167544653 1
force Au  -0.000110490682326  -0.000104255561510  -0.000177739968226 1
force Au  -0.000104150102786   0.000133444163440   0.000197597503839 1
force Au  -0.000026511592580   0.000053489182053   0.000051344152590 1
force Au  -0.000018783180751  -0.000048436632030  -0.000058448927555 1
force Au   0.000038222750896  -0.000029616464949   0.000029509787958 1
force Au   0.000041507951650   0.000034004182037  -0.000022642540417 1
force Au  -0.000114187594571   0.000117206953419   0.000185305944071 1
force Au  -0.000106243769650  -0.000106403149848  -0.000165044503020 1
force Au   0.000089168831048   0.000098397530012  -0.000178729127591 1
force Au   0.000108907397288  -0.000097144286529   0.000179102662523 1
force Au  -0.000013182397608  -0.000045193147845  -0.000008820779363 1
force Au  -0.000007765254880   0.000055120246563  -0.000000838048449 1
force Au  -0.000039990310548  -0.000014577119997  -0.000054535212411 1
force Au  -0.000046650594792   0.000035677002293   0.000064323664645 1
force Au   0.000001018787125   0.000010676804260  -0.000129299964614 1
force Au  -0.000011600471330   0.000011548072460   0.000123692525095 1
force Au  -0.000039513423983   0.000053675553824   0.000102862106195 1
force Au  -0.000063952865683  -0.000067589979681  -0.000107305523825 1
force Au  -0.000165667444794  -0.000179106281891  -0.000162441906359 1
force Au  -0.000174397121823   0.000189780877879   0.000158220984513 1
force Au   0.000196310225447  -0.000170299565765   0.000138167769758 1
force Au   0.000200699208586   0.000178141044498  -0.000145980457812 1
force O  -0.000172084051166   0.000000605259136  -0.000039080480175 1

# Energy components:
   Eewald =    -1168.2312256287839318
       EH =      137.7669915077311202
     Eloc =     -106.2282798074897130
      Enl =     -129.4193918767239779
      Exc =    -1000.3577212481274046
 Exc_core =      730.5174736072337964
       KE =      410.6962087271857058
-------------------------------------
     Etot =    -1125.2559447189746606
       TS =        0.0128216114052386
-------------------------------------
        F =    -1125.2687663303800036

IonicMinimize: Iter:   8  F: -1125.268766330380004  |grad|_K:  1.548e-04  alpha:  1.000e+00  linmin: -4.988e-01  t[s]: 101929.21

#--- Lowdin population analysis ---
# oxidation-state Au +0.096 +0.096 +0.096 +0.096 +0.017 +0.017 +0.017 +0.017 +0.017 +0.017 +0.017 +0.017 +0.004 +0.004 +0.004 +0.004 +0.017 +0.017 +0.017 +0.017 +0.005 +0.004 +0.005 +0.004 +0.004 +0.004 +0.004 +0.004 +0.009 +0.009 +0.009 +0.009
# oxidation-state O -0.482


-------- Electronic minimization -----------
	FillingsUpdate:  mu: +0.583149240  nElectrons: 358.000000
ElecMinimize: Iter:   0  F: -1125.268756256128199  |grad|_K:  3.518e-07  alpha:  1.000e+00
	FillingsUpdate:  mu: +0.583152463  nElectrons: 358.000000
	SubspaceRotationAdjust: set factor to 0.38
ElecMinimize: Iter:   1  F: -1125.268765549843238  |grad|_K:  1.972e-07  alpha:  4.520e-01  linmin:  4.562e-06  t[s]: 102989.77
	FillingsUpdate:  mu: +0.583143558  nElectrons: 358.000000
	SubspaceRotationAdjust: set factor to 0.451
ElecMinimize: Iter:   2  F: -1125.268768991699972  |grad|_K:  1.446e-07  alpha:  5.325e-01  linmin:  5.666e-07  t[s]: 103552.34
	FillingsUpdate:  mu: +0.583148695  nElectrons: 358.000000
	SubspaceRotationAdjust: set factor to 0.528
ElecMinimize: Iter:   3  F: -1125.268771269130866  |grad|_K:  1.108e-07  alpha:  6.552e-01  linmin: -4.308e-07  t[s]: 104114.58
	FillingsUpdate:  mu: +0.583148038  nElectrons: 358.000000
	SubspaceRotationAdjust: set factor to 0.605
ElecMinimize: Iter:   4  F: -1125.268772151446228  |grad|_K:  5.901e-08  alpha:  4.328e-01  linmin: -2.996e-07  t[s]: 104676.53
	FillingsUpdate:  mu: +0.583146126  nElectrons: 358.000000
	SubspaceRotationAdjust: set factor to 0.617
ElecMinimize: Iter:   5  F: -1125.268772398625970  |grad|_K:  2.956e-08  alpha:  4.272e-01  linmin:  2.998e-07  t[s]: 105238.40
	FillingsUpdate:  mu: +0.583147719  nElectrons: 358.000000
	SubspaceRotationAdjust: set factor to 0.501
ElecMinimize: Iter:   6  F: -1125.268772464881295  |grad|_K:  1.377e-08  alpha:  4.562e-01  linmin: -1.082e-06  t[s]: 105800.40
	FillingsUpdate:  mu: +0.583147327  nElectrons: 358.000000
	SubspaceRotationAdjust: set factor to 0.398
ElecMinimize: Iter:   7  F: -1125.268772477260654  |grad|_K:  7.453e-09  alpha:  3.932e-01  linmin:  1.871e-06  t[s]: 106362.26
	FillingsUpdate:  mu: +0.583147240  nElectrons: 358.000000
	SubspaceRotationAdjust: set factor to 0.374
ElecMinimize: Iter:   8  F: -1125.268772481356791  |grad|_K:  4.108e-09  alpha:  4.421e-01  linmin: -2.841e-06  t[s]: 106924.35
	FillingsUpdate:  mu: +0.583147383  nElectrons: 358.000000
	SubspaceRotationAdjust: set factor to 0.399
ElecMinimize: Iter:   9  F: -1125.268772482462737  |grad|_K:  2.252e-09  alpha:  3.934e-01  linmin: -6.486e-06  t[s]: 107486.41
ElecMinimize: Converged (|Delta F|<1.000000e-08 for 2 iters).
Setting wave functions to eigenvectors of Hamiltonian

# Ionic positions in cartesian coordinates:
ion Au  -0.351322253607947  -0.353436991832408  -0.353744486283174 1
ion Au  -0.355318212595612   4.211972383246621   4.209298626899074 1
ion Au   4.212566302724448  -0.357928286882789   4.210344430800734 1
ion Au   4.211888620456527   4.211746498019989  -0.357094826965389 1
ion Au   0.012350287908151   0.012234745354283   7.699666354055938 1
ion Au   0.012000739816862   3.844015419508582  11.574369449558773 1
ion Au   3.844496335406567   0.011720241527490  11.573828821035876 1
ion Au   3.843827169086867   3.843521622603841   7.700085265463574 1
ion Au   0.011536303356138   7.702281883785392   0.015828917077901 1
ion Au   0.011261562519455  11.573141096883621   3.838924180481694 1
ion Au   3.844516649843051   7.702443503504234   3.838844371568568 1
ion Au   3.845058752112876  11.572665831032861   0.015562716415848 1
ion Au  -0.018323108951732   7.798013189633820   7.799975899347714 1
ion Au  -0.017926355013635  11.480249165850923  11.477013833671249 1
ion Au   3.873719058400695   7.795710084481049  11.476866367480138 1
ion Au   3.873493894746663  11.480575587207946   7.797617692756203 1
ion Au   7.702547257058064   0.011289244785160   0.015730216010573 1
ion Au   7.702338275014520   3.844061241278548   3.838818896370305 1
ion Au  11.574023958318923   0.011493001661257   3.838498955335329 1
ion Au  11.573946901245266   3.844035886646813   0.016114436059324 1
ion Au   7.796109848216734  -0.018283776486942   7.797745841310132 1
ion Au   7.796231500729636   3.873441493978314  11.476790911473900 1
ion Au  11.480892639329008  -0.017716657410330  11.477698714802521 1
ion Au  11.478781112623038   3.873021293584652   7.799253795123477 1
ion Au   7.797391908217708   7.796960853318370  -0.022100883952394 1
ion Au   7.797214266736265  11.479303727745886   3.876785337628690 1
ion Au  11.477408785824963   7.798518766352963   3.876639214348503 1
ion Au  11.479980780407489  11.480170896885308  -0.021848590295823 1
ion Au   7.697536121059219   7.697411441254993   7.695336431514924 1
ion Au   7.698272925065117  11.578150596859269  11.579529679615623 1
ion Au  11.578008754722095   7.697828937254979  11.579866026058736 1
ion Au  11.578128674213639  11.578614448696273   7.696230731414337 1
ion O   1.926244545008949   1.931656629669034   1.930406673817131 1

# Forces in Cartesian coordinates:
force Au  -0.000216701041095  -0.000247563135871  -0.000230181840586 1
force Au  -0.000429446178109   0.000444786667928   0.000498456367199 1
force Au  -0.000355795359259   0.000422173898041  -0.000410509427193 1
force Au  -0.000177280192027  -0.000257987817704   0.000282576852616 1
force Au  -0.000040483935516   0.000015741527735  -0.000016186568282 1
force Au  -0.000025312393207   0.000000492093352   0.000015758770995 1
force Au  -0.000018397681587  -0.000007952052961   0.000078721928364 1
force Au  -0.000011692025710   0.000042540813725  -0.000042516654355 1
force Au  -0.000053951342264   0.000035424869104  -0.000008166726634 1
force Au  -0.000051690559273  -0.000015963807409   0.000002624215979 1
force Au   0.000012451829235  -0.000002702761228   0.000049937541932 1
force Au  -0.000005877611317   0.000037082557347  -0.000022860080669 1
force Au  -0.000032150953533  -0.000285257365588  -0.000296615040059 1
force Au   0.000004070313633   0.000178749819668   0.000194281321271 1
force Au   0.000002292791512   0.000088095793868  -0.000076467600372 1
force Au  -0.000013909413733  -0.000133195775586   0.000134236509784 1
force Au  -0.000019937239547   0.000001635920975  -0.000000433236996 1
force Au   0.000004260139326   0.000024269112020   0.000011237356322 1
force Au  -0.000029632598867  -0.000042600860585   0.000047717952654 1
force Au  -0.000039961054445   0.000061742921811  -0.000038219785049 1
force Au   0.000078601235113   0.000033070480827   0.000074602865378 1
force Au  -0.000010976599281  -0.000022462060931   0.000025484373697 1
force Au   0.000095992544697  -0.000026410460089   0.000095576311785 1
force Au   0.000249160795187   0.000058151145197  -0.000242125862804 1
force Au   0.000069858952784   0.000066388129830  -0.000016042804570 1
force Au   0.000103860476203  -0.000105479568729   0.000008630402648 1
force Au   0.000172173328386  -0.000158226724452   0.000098478518129 1
force Au   0.000052106161334   0.000035948034868  -0.000073991048803 1
force Au  -0.000015666788859   0.000042728774555   0.000005095087948 1
force Au  -0.000021926148091  -0.000015232487465  -0.000015603132746 1
force Au  -0.000006045693798  -0.000008856144896   0.000028612809588 1
force Au  -0.000016914517662   0.000018622250546  -0.000029791511137 1
force O   0.000686556947286  -0.000276181825960  -0.000097964271409 1

# Energy components:
   Eewald =    -1168.2329544856677330
       EH =      137.7650331137169246
     Eloc =     -106.2251146460275919
      Enl =     -129.4188951757820689
      Exc =    -1000.3574166677799440
 Exc_core =      730.5174715471368927
       KE =      410.6959197311280150
-------------------------------------
     Etot =    -1125.2559565832755197
       TS =        0.0128158991871862
-------------------------------------
        F =    -1125.2687724824627367

IonicMinimize: Iter:   9  F: -1125.268772482462737  |grad|_K:  1.619e-04  alpha:  1.000e+00  linmin:  4.125e-01  t[s]: 107613.30

#--- Lowdin population analysis ---
# oxidation-state Au +0.096 +0.096 +0.095 +0.096 +0.017 +0.017 +0.017 +0.017 +0.017 +0.017 +0.017 +0.017 +0.004 +0.004 +0.004 +0.004 +0.017 +0.017 +0.017 +0.017 +0.004 +0.004 +0.004 +0.004 +0.004 +0.004 +0.004 +0.004 +0.009 +0.009 +0.009 +0.009
# oxidation-state O -0.482


-------- Electronic minimization -----------
	FillingsUpdate:  mu: +0.583149093  nElectrons: 358.000000
ElecMinimize: Iter:   0  F: -1125.268772110002828  |grad|_K:  1.776e-07  alpha:  1.000e+00
	FillingsUpdate:  mu: +0.583149194  nElectrons: 358.000000
	SubspaceRotationAdjust: set factor to 0.438
ElecMinimize: Iter:   1  F: -1125.268774573054088  |grad|_K:  1.055e-07  alpha:  4.701e-01  linmin:  8.032e-07  t[s]: 108673.26
	FillingsUpdate:  mu: +0.583148593  nElectrons: 358.000000
	SubspaceRotationAdjust: set factor to 0.567
ElecMinimize: Iter:   2  F: -1125.268775563265308  |grad|_K:  8.518e-08  alpha:  5.350e-01  linmin:  2.790e-07  t[s]: 109235.28
	FillingsUpdate:  mu: +0.583148783  nElectrons: 358.000000
	SubspaceRotationAdjust: set factor to 0.712
ElecMinimize: Iter:   3  F: -1125.268776234395091  |grad|_K:  5.679e-08  alpha:  5.567e-01  linmin:  4.350e-07  t[s]: 109797.32
	FillingsUpdate:  mu: +0.583148983  nElectrons: 358.000000
	SubspaceRotationAdjust: set factor to 0.771
ElecMinimize: Iter:   4  F: -1125.268776502278342  |grad|_K:  2.782e-08  alpha:  5.000e-01  linmin: -2.640e-07  t[s]: 110359.44
	FillingsUpdate:  mu: +0.583148541  nElectrons: 358.000000
	SubspaceRotationAdjust: set factor to 0.551
ElecMinimize: Iter:   5  F: -1125.268776553030420  |grad|_K:  1.638e-08  alpha:  3.945e-01  linmin:  1.800e-06  t[s]: 110921.56
	FillingsUpdate:  mu: +0.583148944  nElectrons: 358.000000
	SubspaceRotationAdjust: set factor to 0.378
ElecMinimize: Iter:   6  F: -1125.268776565950702  |grad|_K:  9.334e-09  alpha:  2.897e-01  linmin: -3.895e-06  t[s]: 111483.65
	FillingsUpdate:  mu: +0.583148838  nElectrons: 358.000000
	SubspaceRotationAdjust: set factor to 0.493
ElecMinimize: Iter:   7  F: -1125.268776570847422  |grad|_K:  4.359e-09  alpha:  3.389e-01  linmin: -3.857e-06  t[s]: 112045.56
	FillingsUpdate:  mu: +0.583148796  nElectrons: 358.000000
	SubspaceRotationAdjust: set factor to 0.558
ElecMinimize: Iter:   8  F: -1125.268776572334446  |grad|_K:  2.621e-09  alpha:  4.645e-01  linmin: -2.257e-05  t[s]: 112607.48
ElecMinimize: Converged (|Delta F|<1.000000e-08 for 2 iters).
Setting wave functions to eigenvectors of Hamiltonian

# Ionic positions in cartesian coordinates:
ion Au  -0.351920978648784  -0.354162896730739  -0.354397006607029 1
ion Au  -0.356690214628166   4.213409625991464   4.210899958417212 1
ion Au   4.211179752800808  -0.356304006302162   4.208731155106740 1
ion Au   4.211128538106742   4.210693778604488  -0.355953518775281 1
ion Au   0.012290841533438   0.012364499763772   7.699496496745021 1
ion Au   0.011980736067278   3.843947301494832  11.574523894318999 1
ion Au   3.844371309875507   0.011754996870758  11.574200602909190 1
ion Au   3.843718218981686   3.843594100832179   7.699817373616200 1
ion Au   0.011440051214010   7.702300575061701   0.015881388072467 1
ion Au   0.011169919278807  11.573189285483085   3.838846458261403 1
ion Au   3.844480479419655   7.702320854836104   3.838927293162391 1
ion Au   3.844960985016536  11.572898159017825   0.015560037704998 1
ion Au  -0.018536732764648   7.797016042568740   7.798898754513151 1
ion Au  -0.018002024265095  11.480879299661769  11.477731317414952 1
ion Au   3.873823315396924   7.796024116139006  11.476622116299765 1
ion Au   3.873542092453161  11.480097996002781   7.798061662024261 1
ion Au   7.702377056587285   0.011382394961158   0.015813293820268 1
ion Au   7.702244253459502   3.844055370228604   3.838765222138599 1
ion Au  11.574033644513248   0.011428155056236   3.838577909588142 1
ion Au  11.573920620366902   3.844165411889532   0.016058339987415 1
ion Au   7.796403225260436  -0.018261455213444   7.797976372215786 1
ion Au   7.796202544445081   3.873447689528572  11.476909722867383 1
ion Au  11.481241586398154  -0.017902886791851  11.478073120072557 1
ion Au  11.479661791307622   3.873321899968259   7.798363538022980 1
ion Au   7.797647386446843   7.797194485096280  -0.022270011767411 1
ion Au   7.797583800325521  11.478938337928433   3.876921867920033 1
ion Au  11.478026884750911   7.797951937011059   3.877102978753177 1
ion Au  11.480183619666601  11.480313451901386  -0.022224738685533 1
ion Au   7.697398646742970   7.697469892901249   7.695200973901745 1
ion Au   7.698119159120357  11.578186332708642  11.579610604006557 1
ion Au  11.578085864959204   7.697713609587886  11.580102042919792 1
ion Au  11.578158432390278  11.578759141385417   7.695986033412833 1
ion O   1.928659193421237   1.930696502556978   1.930068747641249 1

# Forces in Cartesian coordinates:
force Au  -0.000057377488202  -0.000002213930265   0.000019275853737 1
force Au   0.000054291498524  -0.000080452144514  -0.000081440439955 1
force Au   0.000070436153004  -0.000057045939181   0.000086479752913 1
force Au   0.000055591260341   0.000069245978049  -0.000012649428232 1
force Au   0.000005366257034  -0.000009595701709  -0.000001230081950 1
force Au   0.000009385915648   0.000005440793609   0.000017319509356 1
force Au   0.000001774224184   0.000006774931079   0.000018197884967 1
force Au   0.000017747553020   0.000007415177436   0.000004296892666 1
force Au  -0.000007964421767   0.000021761194737  -0.000003183501374 1
force Au  -0.000014737529940  -0.000011925731567   0.000006015224650 1
force Au   0.000027676599505   0.000030464463647   0.000006993214950 1
force Au   0.000022680761255  -0.000007534708370   0.000004397610703 1
force Au   0.000033220188894   0.000004364544536   0.000013697723645 1
force Au   0.000031586089438  -0.000008639632981  -0.000019763922556 1
force Au  -0.000021427383525  -0.000034924347762   0.000033943800194 1
force Au  -0.000019759726761   0.000047170588753  -0.000031539917146 1
force Au   0.000017711637064  -0.000021129888396  -0.000000741550556 1
force Au   0.000025692510603   0.000027287772820   0.000016882117576 1
force Au  -0.000036828684377  -0.000028636577501   0.000004153454248 1
force Au  -0.000032694447517   0.000026444427518  -0.000006667154129 1
force Au  -0.000043931001350   0.000020566440831  -0.000023508451317 1
force Au  -0.000030783812841  -0.000012593027772   0.000015197107565 1
force Au  -0.000006942130631   0.000032042258940  -0.000014094583784 1
force Au  -0.000002056644359  -0.000023235554052   0.000017280180465 1
force Au  -0.000016682480211  -0.000003660092544  -0.000007105788719 1
force Au  -0.000024546394349   0.000015813304594   0.000017250069544 1
force Au  -0.000016230174461   0.000018317809805   0.000004633892359 1
force Au  -0.000033746898162  -0.000031596171227  -0.000011684341683 1
force Au   0.000011110072676   0.000001357656597   0.000016553292481 1
force Au  -0.000010736264635   0.000012719756322  -0.000009722877690 1
force Au   0.000012936612831   0.000000525562339  -0.000030812616160 1
force Au   0.000016644818460  -0.000005285207561   0.000016104364008 1
force O  -0.000079365382343  -0.000018688262173  -0.000029558011250 1

# Energy components:
   Eewald =    -1168.2333606638051151
       EH =      137.7647095532652486
     Eloc =     -106.2244290860833615
      Enl =     -129.4189126761156103
      Exc =    -1000.3573964690525600
 Exc_core =      730.5174714569707248
       KE =      410.6959572966678707
-------------------------------------
     Etot =    -1125.2559605881529023
       TS =        0.0128159841814340
-------------------------------------
        F =    -1125.2687765723344455

IonicMinimize: Iter:  10  F: -1125.268776572334446  |grad|_K:  2.919e-05  alpha:  1.000e+00  linmin:  6.825e-01  t[s]: 112734.46
IonicMinimize: Converged (|grad|_K<1.000000e-04).

#--- Lowdin population analysis ---
# oxidation-state Au +0.096 +0.096 +0.096 +0.096 +0.017 +0.017 +0.017 +0.017 +0.017 +0.017 +0.017 +0.017 +0.004 +0.004 +0.004 +0.004 +0.017 +0.017 +0.017 +0.017 +0.004 +0.004 +0.004 +0.004 +0.004 +0.004 +0.004 +0.004 +0.009 +0.009 +0.009 +0.009
# oxidation-state O -0.482


Dumping 'Au32O_tet.Ecomponents' ... done
End date and time: Mon Jan 29 18:53:04 2024  (Duration: 1-7:20:40.02)
Done!
