--------------------------------------------------------------------------
[[15906,1],4]: A high-performance Open MPI point-to-point messaging module
was unable to find any relevant network interfaces:

Module: OpenFabrics (openib)
  Host: node3221

Another transport will be used instead, although this may result in
lower performance.
--------------------------------------------------------------------------

*************** JDFTx 1.7.0  ***************

Start date and time: Wed Apr 17 17:10:18 2024
Executable jdftx with command-line: -i /home/cam559/Valla_project/Nb/Nb2O5.in
Running on hosts (process indices):  node3221.physics.cornell.edu (0-9)
Divided in process groups (process indices):  0 (0)  1 (1)  2 (2)  3 (3)  4 (4)  5 (5)  6 (6)  7 (7)  8 (8)  9 (9)
Resource initialization completed at t[s]:      0.00
Run totals: 10 processes, 40 threads, 0 GPUs


Input parsed successfully to the following command list (including defaults):

basis kpoint-dependent
coords-type Cartesian
core-overlap-check vector
coulomb-interaction Periodic
davidson-band-ratio 1.1
debug  EigsFillings
dump End Dtot Ecomponents
dump-name Nb2O5.$VAR
elec-cutoff 20 100
elec-eigen-algo Davidson
elec-ex-corr gga-PBE
elec-smearing Fermi 0.004
electronic-minimize  \
	dirUpdateScheme      FletcherReeves \
	linminMethod         DirUpdateRecommended \
	nIterations          100 \
	history              15 \
	knormThreshold       0 \
	energyDiffThreshold  1e-08 \
	nEnergyDiff          2 \
	alphaTstart          1 \
	alphaTmin            1e-10 \
	updateTestStepSize   yes \
	alphaTreduceFactor   0.1 \
	alphaTincreaseFactor 3 \
	nAlphaAdjustMax      3 \
	wolfeEnergy          0.0001 \
	wolfeGradient        0.9 \
	fdTest               no
exchange-regularization WignerSeitzTruncated
fluid None
fluid-ex-corr lda-TF lda-PZ
fluid-gummel-loop 10 1.000000e-05
fluid-minimize  \
	dirUpdateScheme      PolakRibiere \
	linminMethod         DirUpdateRecommended \
	nIterations          100 \
	history              15 \
	knormThreshold       0 \
	energyDiffThreshold  0 \
	nEnergyDiff          2 \
	alphaTstart          1 \
	alphaTmin            1e-10 \
	updateTestStepSize   yes \
	alphaTreduceFactor   0.1 \
	alphaTincreaseFactor 3 \
	nAlphaAdjustMax      3 \
	wolfeEnergy          0.0001 \
	wolfeGradient        0.9 \
	fdTest               no
fluid-solvent H2O 55.338 ScalarEOS \
	epsBulk 78.4 \
	pMol 0.92466 \
	epsInf 1.77 \
	Pvap 1.06736e-10 \
	sigmaBulk 4.62e-05 \
	Rvdw 2.61727 \
	Res 1.42 \
	tauNuc 343133 \
	poleEl 15 7 1
forces-output-coords Positions
initial-state Nb2O5.$VAR
ion Nb   1.030195000000000   0.512360000000000   3.443855000000001 1
ion Nb   5.956042000000002   7.065851000000002   7.188415000000001 1
ion O   1.034871000000000   3.910832000000001   3.459473000000000 1
ion O   5.951366000000001   3.667379000000001   7.172797000000001 1
ion O   0.000000000000000   0.000000000000000   0.000000000000000 1
ion O   2.189315000000000   7.542588000000002   7.318684000000002 1
ion O   4.796922000000002   0.035623000000000   3.313586000000000 1
ion-species GBRV/$ID_pbe.uspp
ion-width 0
ionic-minimize  \
	dirUpdateScheme      L-BFGS \
	linminMethod         DirUpdateRecommended \
	nIterations          0 \
	history              15 \
	knormThreshold       0.0001 \
	energyDiffThreshold  1e-06 \
	nEnergyDiff          2 \
	alphaTstart          1 \
	alphaTmin            1e-10 \
	updateTestStepSize   yes \
	alphaTreduceFactor   0.1 \
	alphaTincreaseFactor 3 \
	nAlphaAdjustMax      3 \
	wolfeEnergy          0.0001 \
	wolfeGradient        0.9 \
	fdTest               no
kpoint   0.000000000000   0.000000000000   0.000000000000  1.00000000000000
kpoint-folding 8 8 8 
latt-move-scale 1 1 1
latt-scale 1 1 1 
lattice  \
	   6.986237000000000   -0.029177000000000    0.029177000000000  \
	   0.000000000000000    7.593404000000000   -0.015193000000000  \
	  -2.089863000000000   -0.097538000000000   12.819671000000000 
lattice-minimize  \
	dirUpdateScheme      L-BFGS \
	linminMethod         DirUpdateRecommended \
	nIterations          0 \
	history              15 \
	knormThreshold       0 \
	energyDiffThreshold  1e-06 \
	nEnergyDiff          2 \
	alphaTstart          1 \
	alphaTmin            1e-10 \
	updateTestStepSize   yes \
	alphaTreduceFactor   0.1 \
	alphaTincreaseFactor 3 \
	nAlphaAdjustMax      3 \
	wolfeEnergy          0.0001 \
	wolfeGradient        0.9 \
	fdTest               no
lcao-params -1 1e-06 0.004
pcm-variant GLSSA13
spintype no-spin
subspace-rotation-factor 1 yes
symmetries automatic
symmetry-threshold 0.0001



---------- Setting up symmetries ----------

Found 4 point-group symmetries of the bravais lattice
Found 4 space-group symmetries with basis
Applied RMS atom displacement 2.69133e-06 bohrs to make symmetries exact.

---------- Initializing the Grid ----------
R = 
[      6.98624    -0.029177     0.029177  ]
[            0       7.5934    -0.015193  ]
[     -2.08986    -0.097538      12.8197  ]
unit cell volume = 680.527
G =
[   0.898755 0.00342717 -0.00204147  ]
[ 0.000293154   0.827467 0.00097999  ]
[   0.146517 0.00685445   0.489795  ]
Minimum fftbox size, Smin = [  36  36  60  ]
Chosen fftbox size, S = [  60  36  60  ]

---------- Initializing tighter grid for wavefunction operations ----------
R = 
[      6.98624    -0.029177     0.029177  ]
[            0       7.5934    -0.015193  ]
[     -2.08986    -0.097538      12.8197  ]
unit cell volume = 680.527
G =
[   0.898755 0.00342717 -0.00204147  ]
[ 0.000293154   0.827467 0.00097999  ]
[   0.146517 0.00685445   0.489795  ]
Minimum fftbox size, Smin = [  32  32  52  ]
Chosen fftbox size, S = [  54  32  54  ]

---------- Exchange Correlation functional ----------
Initalized PBE GGA exchange.
Initalized PBE GGA correlation.

---------- Setting up pseudopotentials ----------
Width of ionic core gaussian charges (only for fluid interactions / plotting) set to 0

Reading pseudopotential file '/home/cam559/JDFTx/build/pseudopotentials/GBRV/nb_pbe.uspp':
  Title: Nb.  Created by USPP 7.3.6 on 14-9-2013
  Reference state energy: -58.592548.  13 valence electrons in orbitals:
    |400>  occupation: 2  eigenvalue: -2.145853
    |410>  occupation: 6  eigenvalue: -1.268635
    |420>  occupation: 4  eigenvalue: -0.111734
    |500>  occupation: 1  eigenvalue: -0.146332
    |510>  occupation: 0  eigenvalue: -0.040820
  lMax: 2  lLocal: 3  QijEcut: 5
  6 projectors sampled on a log grid with 627 points:
    l: 0  eig: -2.145854  rCut: 1.8
    l: 0  eig: -0.146334  rCut: 1.8
    l: 1  eig: -1.268634  rCut: 2
    l: 1  eig: 0.150000  rCut: 2
    l: 2  eig: -0.040820  rCut: 2.2
    l: 2  eig: 0.150000  rCut: 2.2
  Partial core density with radius 1.2
  Transforming core density to a uniform radial grid of dG=0.02 with 1896 points.
  Transforming local potential to a uniform radial grid of dG=0.02 with 1896 points.
  Transforming nonlocal projectors to a uniform radial grid of dG=0.02 with 432 points.
  Transforming density augmentations to a uniform radial grid of dG=0.02 with 1896 points.
  Transforming atomic orbitals to a uniform radial grid of dG=0.02 with 432 points.
  Core radius for overlap checks: 2.20 bohrs.

Reading pseudopotential file '/home/cam559/JDFTx/build/pseudopotentials/GBRV/o_pbe.uspp':
  Title: O.  Created by USPP 7.3.6 on 3-2-2014
  Reference state energy: -15.894388.  6 valence electrons in orbitals:
    |200>  occupation: 2  eigenvalue: -0.878823
    |210>  occupation: 4  eigenvalue: -0.332131
  lMax: 2  lLocal: 2  QijEcut: 6
  5 projectors sampled on a log grid with 511 points:
    l: 0  eig: -0.878823  rCut: 1.25
    l: 0  eig: 0.000000  rCut: 1.25
    l: 1  eig: -0.332132  rCut: 1.25
    l: 1  eig: 0.000000  rCut: 1.25
    l: 2  eig: 1.000000  rCut: 1.25
  Partial core density with radius 0.7
  Transforming core density to a uniform radial grid of dG=0.02 with 1896 points.
  Transforming local potential to a uniform radial grid of dG=0.02 with 1896 points.
  Transforming nonlocal projectors to a uniform radial grid of dG=0.02 with 432 points.
  Transforming density augmentations to a uniform radial grid of dG=0.02 with 1896 points.
  Transforming atomic orbitals to a uniform radial grid of dG=0.02 with 432 points.
  Core radius for overlap checks: 1.25 bohrs.

Initialized 2 species with 7 total atoms.

Folded 1 k-points by 8x8x8 to 512 k-points.

---------- Setting up k-points, bands, fillings ----------
Reduced to 150 k-points under symmetry. 
Computing the number of bands and number of electrons
Calculating initial fillings.
nElectrons:  56.000000   nBands: 46   nStates: 150   initial fillings:
2.000000000000000 2.000000000000000 2.000000000000000 2.000000000000000 2.000000000000000 2.000000000000000 2.000000000000000 2.000000000000000 2.000000000000000 2.000000000000000 2.000000000000000 2.000000000000000 2.000000000000000 2.000000000000000 2.000000000000000 2.000000000000000 2.000000000000000 2.000000000000000 2.000000000000000 2.000000000000000 2.000000000000000 2.000000000000000 2.000000000000000 2.000000000000000 2.000000000000000 2.000000000000000 2.000000000000000 2.000000000000000 0.000000000000000 0.000000000000000 0.000000000000000 0.000000000000000 0.000000000000000 0.000000000000000 0.000000000000000 0.000000000000000 0.000000000000000 0.000000000000000 0.000000000000000 0.000000000000000 0.000000000000000 0.000000000000000 0.000000000000000 0.000000000000000 0.000000000000000 0.000000000000000 
2.000000000000000 2.000000000000000 2.000000000000000 2.000000000000000 2.000000000000000 2.000000000000000 2.000000000000000 2.000000000000000 2.000000000000000 2.000000000000000 2.000000000000000 2.000000000000000 2.000000000000000 2.000000000000000 2.000000000000000 2.000000000000000 2.000000000000000 2.000000000000000 2.000000000000000 2.000000000000000 2.000000000000000 2.000000000000000 2.000000000000000 2.000000000000000 2.000000000000000 2.000000000000000 2.000000000000000 2.000000000000000 0.000000000000000 0.000000000000000 0.000000000000000 0.000000000000000 0.000000000000000 0.000000000000000 0.000000000000000 0.000000000000000 0.000000000000000 0.000000000000000 0.000000000000000 0.000000000000000 0.000000000000000 0.000000000000000 0.000000000000000 0.000000000000000 0.000000000000000 0.000000000000000 
2.000000000000000 2.000000000000000 2.000000000000000 2.000000000000000 2.000000000000000 2.000000000000000 2.000000000000000 2.000000000000000 2.000000000000000 2.000000000000000 2.000000000000000 2.000000000000000 2.000000000000000 2.000000000000000 2.000000000000000 2.000000000000000 2.000000000000000 2.000000000000000 2.000000000000000 2.000000000000000 2.000000000000000 2.000000000000000 2.000000000000000 2.000000000000000 2.000000000000000 2.000000000000000 2.000000000000000 2.000000000000000 0.000000000000000 0.000000000000000 0.000000000000000 0.000000000000000 0.000000000000000 0.000000000000000 0.000000000000000 0.000000000000000 0.000000000000000 0.000000000000000 0.000000000000000 0.000000000000000 0.000000000000000 0.000000000000000 0.000000000000000 0.000000000000000 0.000000000000000 0.000000000000000 
2.000000000000000 2.000000000000000 2.000000000000000 2.000000000000000 2.000000000000000 2.000000000000000 2.000000000000000 2.000000000000000 2.000000000000000 2.000000000000000 2.000000000000000 2.000000000000000 2.000000000000000 2.000000000000000 2.000000000000000 2.000000000000000 2.000000000000000 2.000000000000000 2.000000000000000 2.000000000000000 2.000000000000000 2.000000000000000 2.000000000000000 2.000000000000000 2.000000000000000 2.000000000000000 2.000000000000000 2.000000000000000 0.000000000000000 0.000000000000000 0.000000000000000 0.000000000000000 0.000000000000000 0.000000000000000 0.000000000000000 0.000000000000000 0.000000000000000 0.000000000000000 0.000000000000000 0.000000000000000 0.000000000000000 0.000000000000000 0.000000000000000 0.000000000000000 0.000000000000000 0.000000000000000 
2.000000000000000 2.000000000000000 2.000000000000000 2.000000000000000 2.000000000000000 2.000000000000000 2.000000000000000 2.000000000000000 2.000000000000000 2.000000000000000 2.000000000000000 2.000000000000000 2.000000000000000 2.000000000000000 2.000000000000000 2.000000000000000 2.000000000000000 2.000000000000000 2.000000000000000 2.000000000000000 2.000000000000000 2.000000000000000 2.000000000000000 2.000000000000000 2.000000000000000 2.000000000000000 2.000000000000000 2.000000000000000 0.000000000000000 0.000000000000000 0.000000000000000 0.000000000000000 0.000000000000000 0.000000000000000 0.000000000000000 0.000000000000000 0.000000000000000 0.000000000000000 0.000000000000000 0.000000000000000 0.000000000000000 0.000000000000000 0.000000000000000 0.000000000000000 0.000000000000000 0.000000000000000 
2.000000000000000 2.000000000000000 2.000000000000000 2.000000000000000 2.000000000000000 2.000000000000000 2.000000000000000 2.000000000000000 2.000000000000000 2.000000000000000 2.000000000000000 2.000000000000000 2.000000000000000 2.000000000000000 2.000000000000000 2.000000000000000 2.000000000000000 2.000000000000000 2.000000000000000 2.000000000000000 2.000000000000000 2.000000000000000 2.000000000000000 2.000000000000000 2.000000000000000 2.000000000000000 2.000000000000000 2.000000000000000 0.000000000000000 0.000000000000000 0.000000000000000 0.000000000000000 0.000000000000000 0.000000000000000 0.000000000000000 0.000000000000000 0.000000000000000 0.000000000000000 0.000000000000000 0.000000000000000 0.000000000000000 0.000000000000000 0.000000000000000 0.000000000000000 0.000000000000000 0.000000000000000 
2.000000000000000 2.000000000000000 2.000000000000000 2.000000000000000 2.000000000000000 2.000000000000000 2.000000000000000 2.000000000000000 2.000000000000000 2.000000000000000 2.000000000000000 2.000000000000000 2.000000000000000 2.000000000000000 2.000000000000000 2.000000000000000 2.000000000000000 2.000000000000000 2.000000000000000 2.000000000000000 2.000000000000000 2.000000000000000 2.000000000000000 2.000000000000000 2.000000000000000 2.000000000000000 2.000000000000000 2.000000000000000 0.000000000000000 0.000000000000000 0.000000000000000 0.000000000000000 0.000000000000000 0.000000000000000 0.000000000000000 0.000000000000000 0.000000000000000 0.000000000000000 0.000000000000000 0.000000000000000 0.000000000000000 0.000000000000000 0.000000000000000 0.000000000000000 0.000000000000000 0.000000000000000 
2.000000000000000 2.000000000000000 2.000000000000000 2.000000000000000 2.000000000000000 2.000000000000000 2.000000000000000 2.000000000000000 2.000000000000000 2.000000000000000 2.000000000000000 2.000000000000000 2.000000000000000 2.000000000000000 2.000000000000000 2.000000000000000 2.000000000000000 2.000000000000000 2.000000000000000 2.000000000000000 2.000000000000000 2.000000000000000 2.000000000000000 2.000000000000000 2.000000000000000 2.000000000000000 2.000000000000000 2.000000000000000 0.000000000000000 0.000000000000000 0.000000000000000 0.000000000000000 0.000000000000000 0.000000000000000 0.000000000000000 0.000000000000000 0.000000000000000 0.000000000000000 0.000000000000000 0.000000000000000 0.000000000000000 0.000000000000000 0.000000000000000 0.000000000000000 0.000000000000000 0.000000000000000 
2.000000000000000 2.000000000000000 2.000000000000000 2.000000000000000 2.000000000000000 2.000000000000000 2.000000000000000 2.000000000000000 2.000000000000000 2.000000000000000 2.000000000000000 2.000000000000000 2.000000000000000 2.000000000000000 2.000000000000000 2.000000000000000 2.000000000000000 2.000000000000000 2.000000000000000 2.000000000000000 2.000000000000000 2.000000000000000 2.000000000000000 2.000000000000000 2.000000000000000 2.000000000000000 2.000000000000000 2.000000000000000 0.000000000000000 0.000000000000000 0.000000000000000 0.000000000000000 0.000000000000000 0.000000000000000 0.000000000000000 0.000000000000000 0.000000000000000 0.000000000000000 0.000000000000000 0.000000000000000 0.000000000000000 0.000000000000000 0.000000000000000 0.000000000000000 0.000000000000000 0.000000000000000 
2.000000000000000 2.000000000000000 2.000000000000000 2.000000000000000 2.000000000000000 2.000000000000000 2.000000000000000 2.000000000000000 2.000000000000000 2.000000000000000 2.000000000000000 2.000000000000000 2.000000000000000 2.000000000000000 2.000000000000000 2.000000000000000 2.000000000000000 2.000000000000000 2.000000000000000 2.000000000000000 2.000000000000000 2.000000000000000 2.000000000000000 2.000000000000000 2.000000000000000 2.000000000000000 2.000000000000000 2.000000000000000 0.000000000000000 0.000000000000000 0.000000000000000 0.000000000000000 0.000000000000000 0.000000000000000 0.000000000000000 0.000000000000000 0.000000000000000 0.000000000000000 0.000000000000000 0.000000000000000 0.000000000000000 0.000000000000000 0.000000000000000 0.000000000000000 0.000000000000000 0.000000000000000 
2.000000000000000 2.000000000000000 2.000000000000000 2.000000000000000 2.000000000000000 2.000000000000000 2.000000000000000 2.000000000000000 2.000000000000000 2.000000000000000 2.000000000000000 2.000000000000000 2.000000000000000 2.000000000000000 2.000000000000000 2.000000000000000 2.000000000000000 2.000000000000000 2.000000000000000 2.000000000000000 2.000000000000000 2.000000000000000 2.000000000000000 2.000000000000000 2.000000000000000 2.000000000000000 2.000000000000000 2.000000000000000 0.000000000000000 0.000000000000000 0.000000000000000 0.000000000000000 0.000000000000000 0.000000000000000 0.000000000000000 0.000000000000000 0.000000000000000 0.000000000000000 0.000000000000000 0.000000000000000 0.000000000000000 0.000000000000000 0.000000000000000 0.000000000000000 0.000000000000000 0.000000000000000 
2.000000000000000 2.000000000000000 2.000000000000000 2.000000000000000 2.000000000000000 2.000000000000000 2.000000000000000 2.000000000000000 2.000000000000000 2.000000000000000 2.000000000000000 2.000000000000000 2.000000000000000 2.000000000000000 2.000000000000000 2.000000000000000 2.000000000000000 2.000000000000000 2.000000000000000 2.000000000000000 2.000000000000000 2.000000000000000 2.000000000000000 2.000000000000000 2.000000000000000 2.000000000000000 2.000000000000000 2.000000000000000 0.000000000000000 0.000000000000000 0.000000000000000 0.000000000000000 0.000000000000000 0.000000000000000 0.000000000000000 0.000000000000000 0.000000000000000 0.000000000000000 0.000000000000000 0.000000000000000 0.000000000000000 0.000000000000000 0.000000000000000 0.000000000000000 0.000000000000000 0.000000000000000 
2.000000000000000 2.000000000000000 2.000000000000000 2.000000000000000 2.000000000000000 2.000000000000000 2.000000000000000 2.000000000000000 2.000000000000000 2.000000000000000 2.000000000000000 2.000000000000000 2.000000000000000 2.000000000000000 2.000000000000000 2.000000000000000 2.000000000000000 2.000000000000000 2.000000000000000 2.000000000000000 2.000000000000000 2.000000000000000 2.000000000000000 2.000000000000000 2.000000000000000 2.000000000000000 2.000000000000000 2.000000000000000 0.000000000000000 0.000000000000000 0.000000000000000 0.000000000000000 0.000000000000000 0.000000000000000 0.000000000000000 0.000000000000000 0.000000000000000 0.000000000000000 0.000000000000000 0.000000000000000 0.000000000000000 0.000000000000000 0.000000000000000 0.000000000000000 0.000000000000000 0.000000000000000 
2.000000000000000 2.000000000000000 2.000000000000000 2.000000000000000 2.000000000000000 2.000000000000000 2.000000000000000 2.000000000000000 2.000000000000000 2.000000000000000 2.000000000000000 2.000000000000000 2.000000000000000 2.000000000000000 2.000000000000000 2.000000000000000 2.000000000000000 2.000000000000000 2.000000000000000 2.000000000000000 2.000000000000000 2.000000000000000 2.000000000000000 2.000000000000000 2.000000000000000 2.000000000000000 2.000000000000000 2.000000000000000 0.000000000000000 0.000000000000000 0.000000000000000 0.000000000000000 0.000000000000000 0.000000000000000 0.000000000000000 0.000000000000000 0.000000000000000 0.000000000000000 0.000000000000000 0.000000000000000 0.000000000000000 0.000000000000000 0.000000000000000 0.000000000000000 0.000000000000000 0.000000000000000 
2.000000000000000 2.000000000000000 2.000000000000000 2.000000000000000 2.000000000000000 2.000000000000000 2.000000000000000 2.000000000000000 2.000000000000000 2.000000000000000 2.000000000000000 2.000000000000000 2.000000000000000 2.000000000000000 2.000000000000000 2.000000000000000 2.000000000000000 2.000000000000000 2.000000000000000 2.000000000000000 2.000000000000000 2.000000000000000 2.000000000000000 2.000000000000000 2.000000000000000 2.000000000000000 2.000000000000000 2.000000000000000 0.000000000000000 0.000000000000000 0.000000000000000 0.000000000000000 0.000000000000000 0.000000000000000 0.000000000000000 0.000000000000000 0.000000000000000 0.000000000000000 0.000000000000000 0.000000000000000 0.000000000000000 0.000000000000000 0.000000000000000 0.000000000000000 0.000000000000000 0.000000000000000 
2.000000000000000 2.000000000000000 2.000000000000000 2.000000000000000 2.000000000000000 2.000000000000000 2.000000000000000 2.000000000000000 2.000000000000000 2.000000000000000 2.000000000000000 2.000000000000000 2.000000000000000 2.000000000000000 2.000000000000000 2.000000000000000 2.000000000000000 2.000000000000000 2.000000000000000 2.000000000000000 2.000000000000000 2.000000000000000 2.000000000000000 2.000000000000000 2.000000000000000 2.000000000000000 2.000000000000000 2.000000000000000 0.000000000000000 0.000000000000000 0.000000000000000 0.000000000000000 0.000000000000000 0.000000000000000 0.000000000000000 0.000000000000000 0.000000000000000 0.000000000000000 0.000000000000000 0.000000000000000 0.000000000000000 0.000000000000000 0.000000000000000 0.000000000000000 0.000000000000000 0.000000000000000 
2.000000000000000 2.000000000000000 2.000000000000000 2.000000000000000 2.000000000000000 2.000000000000000 2.000000000000000 2.000000000000000 2.000000000000000 2.000000000000000 2.000000000000000 2.000000000000000 2.000000000000000 2.000000000000000 2.000000000000000 2.000000000000000 2.000000000000000 2.000000000000000 2.000000000000000 2.000000000000000 2.000000000000000 2.000000000000000 2.000000000000000 2.000000000000000 2.000000000000000 2.000000000000000 2.000000000000000 2.000000000000000 0.000000000000000 0.000000000000000 0.000000000000000 0.000000000000000 0.000000000000000 0.000000000000000 0.000000000000000 0.000000000000000 0.000000000000000 0.000000000000000 0.000000000000000 0.000000000000000 0.000000000000000 0.000000000000000 0.000000000000000 0.000000000000000 0.000000000000000 0.000000000000000 
2.000000000000000 2.000000000000000 2.000000000000000 2.000000000000000 2.000000000000000 2.000000000000000 2.000000000000000 2.000000000000000 2.000000000000000 2.000000000000000 2.000000000000000 2.000000000000000 2.000000000000000 2.000000000000000 2.000000000000000 2.000000000000000 2.000000000000000 2.000000000000000 2.000000000000000 2.000000000000000 2.000000000000000 2.000000000000000 2.000000000000000 2.000000000000000 2.000000000000000 2.000000000000000 2.000000000000000 2.000000000000000 0.000000000000000 0.000000000000000 0.000000000000000 0.000000000000000 0.000000000000000 0.000000000000000 0.000000000000000 0.000000000000000 0.000000000000000 0.000000000000000 0.000000000000000 0.000000000000000 0.000000000000000 0.000000000000000 0.000000000000000 0.000000000000000 0.000000000000000 0.000000000000000 
2.000000000000000 2.000000000000000 2.000000000000000 2.000000000000000 2.000000000000000 2.000000000000000 2.000000000000000 2.000000000000000 2.000000000000000 2.000000000000000 2.000000000000000 2.000000000000000 2.000000000000000 2.000000000000000 2.000000000000000 2.000000000000000 2.000000000000000 2.000000000000000 2.000000000000000 2.000000000000000 2.000000000000000 2.000000000000000 2.000000000000000 2.000000000000000 2.000000000000000 2.000000000000000 2.000000000000000 2.000000000000000 0.000000000000000 0.000000000000000 0.000000000000000 0.000000000000000 0.000000000000000 0.000000000000000 0.000000000000000 0.000000000000000 0.000000000000000 0.000000000000000 0.000000000000000 0.000000000000000 0.000000000000000 0.000000000000000 0.000000000000000 0.000000000000000 0.000000000000000 0.000000000000000 
2.000000000000000 2.000000000000000 2.000000000000000 2.000000000000000 2.000000000000000 2.000000000000000 2.000000000000000 2.000000000000000 2.000000000000000 2.000000000000000 2.000000000000000 2.000000000000000 2.000000000000000 2.000000000000000 2.000000000000000 2.000000000000000 2.000000000000000 2.000000000000000 2.000000000000000 2.000000000000000 2.000000000000000 2.000000000000000 2.000000000000000 2.000000000000000 2.000000000000000 2.000000000000000 2.000000000000000 2.000000000000000 0.000000000000000 0.000000000000000 0.000000000000000 0.000000000000000 0.000000000000000 0.000000000000000 0.000000000000000 0.000000000000000 0.000000000000000 0.000000000000000 0.000000000000000 0.000000000000000 0.000000000000000 0.000000000000000 0.000000000000000 0.000000000000000 0.000000000000000 0.000000000000000 
2.000000000000000 2.000000000000000 2.000000000000000 2.000000000000000 2.000000000000000 2.000000000000000 2.000000000000000 2.000000000000000 2.000000000000000 2.000000000000000 2.000000000000000 2.000000000000000 2.000000000000000 2.000000000000000 2.000000000000000 2.000000000000000 2.000000000000000 2.000000000000000 2.000000000000000 2.000000000000000 2.000000000000000 2.000000000000000 2.000000000000000 2.000000000000000 2.000000000000000 2.000000000000000 2.000000000000000 2.000000000000000 0.000000000000000 0.000000000000000 0.000000000000000 0.000000000000000 0.000000000000000 0.000000000000000 0.000000000000000 0.000000000000000 0.000000000000000 0.000000000000000 0.000000000000000 0.000000000000000 0.000000000000000 0.000000000000000 0.000000000000000 0.000000000000000 0.000000000000000 0.000000000000000 
2.000000000000000 2.000000000000000 2.000000000000000 2.000000000000000 2.000000000000000 2.000000000000000 2.000000000000000 2.000000000000000 2.000000000000000 2.000000000000000 2.000000000000000 2.000000000000000 2.000000000000000 2.000000000000000 2.000000000000000 2.000000000000000 2.000000000000000 2.000000000000000 2.000000000000000 2.000000000000000 2.000000000000000 2.000000000000000 2.000000000000000 2.000000000000000 2.000000000000000 2.000000000000000 2.000000000000000 2.000000000000000 0.000000000000000 0.000000000000000 0.000000000000000 0.000000000000000 0.000000000000000 0.000000000000000 0.000000000000000 0.000000000000000 0.000000000000000 0.000000000000000 0.000000000000000 0.000000000000000 0.000000000000000 0.000000000000000 0.000000000000000 0.000000000000000 0.000000000000000 0.000000000000000 
2.000000000000000 2.000000000000000 2.000000000000000 2.000000000000000 2.000000000000000 2.000000000000000 2.000000000000000 2.000000000000000 2.000000000000000 2.000000000000000 2.000000000000000 2.000000000000000 2.000000000000000 2.000000000000000 2.000000000000000 2.000000000000000 2.000000000000000 2.000000000000000 2.000000000000000 2.000000000000000 2.000000000000000 2.000000000000000 2.000000000000000 2.000000000000000 2.000000000000000 2.000000000000000 2.000000000000000 2.000000000000000 0.000000000000000 0.000000000000000 0.000000000000000 0.000000000000000 0.000000000000000 0.000000000000000 0.000000000000000 0.000000000000000 0.000000000000000 0.000000000000000 0.000000000000000 0.000000000000000 0.000000000000000 0.000000000000000 0.000000000000000 0.000000000000000 0.000000000000000 0.000000000000000 
2.000000000000000 2.000000000000000 2.000000000000000 2.000000000000000 2.000000000000000 2.000000000000000 2.000000000000000 2.000000000000000 2.000000000000000 2.000000000000000 2.000000000000000 2.000000000000000 2.000000000000000 2.000000000000000 2.000000000000000 2.000000000000000 2.000000000000000 2.000000000000000 2.000000000000000 2.000000000000000 2.000000000000000 2.000000000000000 2.000000000000000 2.000000000000000 2.000000000000000 2.000000000000000 2.000000000000000 2.000000000000000 0.000000000000000 0.000000000000000 0.000000000000000 0.000000000000000 0.000000000000000 0.000000000000000 0.000000000000000 0.000000000000000 0.000000000000000 0.000000000000000 0.000000000000000 0.000000000000000 0.000000000000000 0.000000000000000 0.000000000000000 0.000000000000000 0.000000000000000 0.000000000000000 
2.000000000000000 2.000000000000000 2.000000000000000 2.000000000000000 2.000000000000000 2.000000000000000 2.000000000000000 2.000000000000000 2.000000000000000 2.000000000000000 2.000000000000000 2.000000000000000 2.000000000000000 2.000000000000000 2.000000000000000 2.000000000000000 2.000000000000000 2.000000000000000 2.000000000000000 2.000000000000000 2.000000000000000 2.000000000000000 2.000000000000000 2.000000000000000 2.000000000000000 2.000000000000000 2.000000000000000 2.000000000000000 0.000000000000000 0.000000000000000 0.000000000000000 0.000000000000000 0.000000000000000 0.000000000000000 0.000000000000000 0.000000000000000 0.000000000000000 0.000000000000000 0.000000000000000 0.000000000000000 0.000000000000000 0.000000000000000 0.000000000000000 0.000000000000000 0.000000000000000 0.000000000000000 
2.000000000000000 2.000000000000000 2.000000000000000 2.000000000000000 2.000000000000000 2.000000000000000 2.000000000000000 2.000000000000000 2.000000000000000 2.000000000000000 2.000000000000000 2.000000000000000 2.000000000000000 2.000000000000000 2.000000000000000 2.000000000000000 2.000000000000000 2.000000000000000 2.000000000000000 2.000000000000000 2.000000000000000 2.000000000000000 2.000000000000000 2.000000000000000 2.000000000000000 2.000000000000000 2.000000000000000 2.000000000000000 0.000000000000000 0.000000000000000 0.000000000000000 0.000000000000000 0.000000000000000 0.000000000000000 0.000000000000000 0.000000000000000 0.000000000000000 0.000000000000000 0.000000000000000 0.000000000000000 0.000000000000000 0.000000000000000 0.000000000000000 0.000000000000000 0.000000000000000 0.000000000000000 
2.000000000000000 2.000000000000000 2.000000000000000 2.000000000000000 2.000000000000000 2.000000000000000 2.000000000000000 2.000000000000000 2.000000000000000 2.000000000000000 2.000000000000000 2.000000000000000 2.000000000000000 2.000000000000000 2.000000000000000 2.000000000000000 2.000000000000000 2.000000000000000 2.000000000000000 2.000000000000000 2.000000000000000 2.000000000000000 2.000000000000000 2.000000000000000 2.000000000000000 2.000000000000000 2.000000000000000 2.000000000000000 0.000000000000000 0.000000000000000 0.000000000000000 0.000000000000000 0.000000000000000 0.000000000000000 0.000000000000000 0.000000000000000 0.000000000000000 0.000000000000000 0.000000000000000 0.000000000000000 0.000000000000000 0.000000000000000 0.000000000000000 0.000000000000000 0.000000000000000 0.000000000000000 
2.000000000000000 2.000000000000000 2.000000000000000 2.000000000000000 2.000000000000000 2.000000000000000 2.000000000000000 2.000000000000000 2.000000000000000 2.000000000000000 2.000000000000000 2.000000000000000 2.000000000000000 2.000000000000000 2.000000000000000 2.000000000000000 2.000000000000000 2.000000000000000 2.000000000000000 2.000000000000000 2.000000000000000 2.000000000000000 2.000000000000000 2.000000000000000 2.000000000000000 2.000000000000000 2.000000000000000 2.000000000000000 0.000000000000000 0.000000000000000 0.000000000000000 0.000000000000000 0.000000000000000 0.000000000000000 0.000000000000000 0.000000000000000 0.000000000000000 0.000000000000000 0.000000000000000 0.000000000000000 0.000000000000000 0.000000000000000 0.000000000000000 0.000000000000000 0.000000000000000 0.000000000000000 
2.000000000000000 2.000000000000000 2.000000000000000 2.000000000000000 2.000000000000000 2.000000000000000 2.000000000000000 2.000000000000000 2.000000000000000 2.000000000000000 2.000000000000000 2.000000000000000 2.000000000000000 2.000000000000000 2.000000000000000 2.000000000000000 2.000000000000000 2.000000000000000 2.000000000000000 2.000000000000000 2.000000000000000 2.000000000000000 2.000000000000000 2.000000000000000 2.000000000000000 2.000000000000000 2.000000000000000 2.000000000000000 0.000000000000000 0.000000000000000 0.000000000000000 0.000000000000000 0.000000000000000 0.000000000000000 0.000000000000000 0.000000000000000 0.000000000000000 0.000000000000000 0.000000000000000 0.000000000000000 0.000000000000000 0.000000000000000 0.000000000000000 0.000000000000000 0.000000000000000 0.000000000000000 
2.000000000000000 2.000000000000000 2.000000000000000 2.000000000000000 2.000000000000000 2.000000000000000 2.000000000000000 2.000000000000000 2.000000000000000 2.000000000000000 2.000000000000000 2.000000000000000 2.000000000000000 2.000000000000000 2.000000000000000 2.000000000000000 2.000000000000000 2.000000000000000 2.000000000000000 2.000000000000000 2.000000000000000 2.000000000000000 2.000000000000000 2.000000000000000 2.000000000000000 2.000000000000000 2.000000000000000 2.000000000000000 0.000000000000000 0.000000000000000 0.000000000000000 0.000000000000000 0.000000000000000 0.000000000000000 0.000000000000000 0.000000000000000 0.000000000000000 0.000000000000000 0.000000000000000 0.000000000000000 0.000000000000000 0.000000000000000 0.000000000000000 0.000000000000000 0.000000000000000 0.000000000000000 
2.000000000000000 2.000000000000000 2.000000000000000 2.000000000000000 2.000000000000000 2.000000000000000 2.000000000000000 2.000000000000000 2.000000000000000 2.000000000000000 2.000000000000000 2.000000000000000 2.000000000000000 2.000000000000000 2.000000000000000 2.000000000000000 2.000000000000000 2.000000000000000 2.000000000000000 2.000000000000000 2.000000000000000 2.000000000000000 2.000000000000000 2.000000000000000 2.000000000000000 2.000000000000000 2.000000000000000 2.000000000000000 0.000000000000000 0.000000000000000 0.000000000000000 0.000000000000000 0.000000000000000 0.000000000000000 0.000000000000000 0.000000000000000 0.000000000000000 0.000000000000000 0.000000000000000 0.000000000000000 0.000000000000000 0.000000000000000 0.000000000000000 0.000000000000000 0.000000000000000 0.000000000000000 
2.000000000000000 2.000000000000000 2.000000000000000 2.000000000000000 2.000000000000000 2.000000000000000 2.000000000000000 2.000000000000000 2.000000000000000 2.000000000000000 2.000000000000000 2.000000000000000 2.000000000000000 2.000000000000000 2.000000000000000 2.000000000000000 2.000000000000000 2.000000000000000 2.000000000000000 2.000000000000000 2.000000000000000 2.000000000000000 2.000000000000000 2.000000000000000 2.000000000000000 2.000000000000000 2.000000000000000 2.000000000000000 0.000000000000000 0.000000000000000 0.000000000000000 0.000000000000000 0.000000000000000 0.000000000000000 0.000000000000000 0.000000000000000 0.000000000000000 0.000000000000000 0.000000000000000 0.000000000000000 0.000000000000000 0.000000000000000 0.000000000000000 0.000000000000000 0.000000000000000 0.000000000000000 
2.000000000000000 2.000000000000000 2.000000000000000 2.000000000000000 2.000000000000000 2.000000000000000 2.000000000000000 2.000000000000000 2.000000000000000 2.000000000000000 2.000000000000000 2.000000000000000 2.000000000000000 2.000000000000000 2.000000000000000 2.000000000000000 2.000000000000000 2.000000000000000 2.000000000000000 2.000000000000000 2.000000000000000 2.000000000000000 2.000000000000000 2.000000000000000 2.000000000000000 2.000000000000000 2.000000000000000 2.000000000000000 0.000000000000000 0.000000000000000 0.000000000000000 0.000000000000000 0.000000000000000 0.000000000000000 0.000000000000000 0.000000000000000 0.000000000000000 0.000000000000000 0.000000000000000 0.000000000000000 0.000000000000000 0.000000000000000 0.000000000000000 0.000000000000000 0.000000000000000 0.000000000000000 
2.000000000000000 2.000000000000000 2.000000000000000 2.000000000000000 2.000000000000000 2.000000000000000 2.000000000000000 2.000000000000000 2.000000000000000 2.000000000000000 2.000000000000000 2.000000000000000 2.000000000000000 2.000000000000000 2.000000000000000 2.000000000000000 2.000000000000000 2.000000000000000 2.000000000000000 2.000000000000000 2.000000000000000 2.000000000000000 2.000000000000000 2.000000000000000 2.000000000000000 2.000000000000000 2.000000000000000 2.000000000000000 0.000000000000000 0.000000000000000 0.000000000000000 0.000000000000000 0.000000000000000 0.000000000000000 0.000000000000000 0.000000000000000 0.000000000000000 0.000000000000000 0.000000000000000 0.000000000000000 0.000000000000000 0.000000000000000 0.000000000000000 0.000000000000000 0.000000000000000 0.000000000000000 
2.000000000000000 2.000000000000000 2.000000000000000 2.000000000000000 2.000000000000000 2.000000000000000 2.000000000000000 2.000000000000000 2.000000000000000 2.000000000000000 2.000000000000000 2.000000000000000 2.000000000000000 2.000000000000000 2.000000000000000 2.000000000000000 2.000000000000000 2.000000000000000 2.000000000000000 2.000000000000000 2.000000000000000 2.000000000000000 2.000000000000000 2.000000000000000 2.000000000000000 2.000000000000000 2.000000000000000 2.000000000000000 0.000000000000000 0.000000000000000 0.000000000000000 0.000000000000000 0.000000000000000 0.000000000000000 0.000000000000000 0.000000000000000 0.000000000000000 0.000000000000000 0.000000000000000 0.000000000000000 0.000000000000000 0.000000000000000 0.000000000000000 0.000000000000000 0.000000000000000 0.000000000000000 
2.000000000000000 2.000000000000000 2.000000000000000 2.000000000000000 2.000000000000000 2.000000000000000 2.000000000000000 2.000000000000000 2.000000000000000 2.000000000000000 2.000000000000000 2.000000000000000 2.000000000000000 2.000000000000000 2.000000000000000 2.000000000000000 2.000000000000000 2.000000000000000 2.000000000000000 2.000000000000000 2.000000000000000 2.000000000000000 2.000000000000000 2.000000000000000 2.000000000000000 2.000000000000000 2.000000000000000 2.000000000000000 0.000000000000000 0.000000000000000 0.000000000000000 0.000000000000000 0.000000000000000 0.000000000000000 0.000000000000000 0.000000000000000 0.000000000000000 0.000000000000000 0.000000000000000 0.000000000000000 0.000000000000000 0.000000000000000 0.000000000000000 0.000000000000000 0.000000000000000 0.000000000000000 
2.000000000000000 2.000000000000000 2.000000000000000 2.000000000000000 2.000000000000000 2.000000000000000 2.000000000000000 2.000000000000000 2.000000000000000 2.000000000000000 2.000000000000000 2.000000000000000 2.000000000000000 2.000000000000000 2.000000000000000 2.000000000000000 2.000000000000000 2.000000000000000 2.000000000000000 2.000000000000000 2.000000000000000 2.000000000000000 2.000000000000000 2.000000000000000 2.000000000000000 2.000000000000000 2.000000000000000 2.000000000000000 0.000000000000000 0.000000000000000 0.000000000000000 0.000000000000000 0.000000000000000 0.000000000000000 0.000000000000000 0.000000000000000 0.000000000000000 0.000000000000000 0.000000000000000 0.000000000000000 0.000000000000000 0.000000000000000 0.000000000000000 0.000000000000000 0.000000000000000 0.000000000000000 
2.000000000000000 2.000000000000000 2.000000000000000 2.000000000000000 2.000000000000000 2.000000000000000 2.000000000000000 2.000000000000000 2.000000000000000 2.000000000000000 2.000000000000000 2.000000000000000 2.000000000000000 2.000000000000000 2.000000000000000 2.000000000000000 2.000000000000000 2.000000000000000 2.000000000000000 2.000000000000000 2.000000000000000 2.000000000000000 2.000000000000000 2.000000000000000 2.000000000000000 2.000000000000000 2.000000000000000 2.000000000000000 0.000000000000000 0.000000000000000 0.000000000000000 0.000000000000000 0.000000000000000 0.000000000000000 0.000000000000000 0.000000000000000 0.000000000000000 0.000000000000000 0.000000000000000 0.000000000000000 0.000000000000000 0.000000000000000 0.000000000000000 0.000000000000000 0.000000000000000 0.000000000000000 
2.000000000000000 2.000000000000000 2.000000000000000 2.000000000000000 2.000000000000000 2.000000000000000 2.000000000000000 2.000000000000000 2.000000000000000 2.000000000000000 2.000000000000000 2.000000000000000 2.000000000000000 2.000000000000000 2.000000000000000 2.000000000000000 2.000000000000000 2.000000000000000 2.000000000000000 2.000000000000000 2.000000000000000 2.000000000000000 2.000000000000000 2.000000000000000 2.000000000000000 2.000000000000000 2.000000000000000 2.000000000000000 0.000000000000000 0.000000000000000 0.000000000000000 0.000000000000000 0.000000000000000 0.000000000000000 0.000000000000000 0.000000000000000 0.000000000000000 0.000000000000000 0.000000000000000 0.000000000000000 0.000000000000000 0.000000000000000 0.000000000000000 0.000000000000000 0.000000000000000 0.000000000000000 
2.000000000000000 2.000000000000000 2.000000000000000 2.000000000000000 2.000000000000000 2.000000000000000 2.000000000000000 2.000000000000000 2.000000000000000 2.000000000000000 2.000000000000000 2.000000000000000 2.000000000000000 2.000000000000000 2.000000000000000 2.000000000000000 2.000000000000000 2.000000000000000 2.000000000000000 2.000000000000000 2.000000000000000 2.000000000000000 2.000000000000000 2.000000000000000 2.000000000000000 2.000000000000000 2.000000000000000 2.000000000000000 0.000000000000000 0.000000000000000 0.000000000000000 0.000000000000000 0.000000000000000 0.000000000000000 0.000000000000000 0.000000000000000 0.000000000000000 0.000000000000000 0.000000000000000 0.000000000000000 0.000000000000000 0.000000000000000 0.000000000000000 0.000000000000000 0.000000000000000 0.000000000000000 
2.000000000000000 2.000000000000000 2.000000000000000 2.000000000000000 2.000000000000000 2.000000000000000 2.000000000000000 2.000000000000000 2.000000000000000 2.000000000000000 2.000000000000000 2.000000000000000 2.000000000000000 2.000000000000000 2.000000000000000 2.000000000000000 2.000000000000000 2.000000000000000 2.000000000000000 2.000000000000000 2.000000000000000 2.000000000000000 2.000000000000000 2.000000000000000 2.000000000000000 2.000000000000000 2.000000000000000 2.000000000000000 0.000000000000000 0.000000000000000 0.000000000000000 0.000000000000000 0.000000000000000 0.000000000000000 0.000000000000000 0.000000000000000 0.000000000000000 0.000000000000000 0.000000000000000 0.000000000000000 0.000000000000000 0.000000000000000 0.000000000000000 0.000000000000000 0.000000000000000 0.000000000000000 
2.000000000000000 2.000000000000000 2.000000000000000 2.000000000000000 2.000000000000000 2.000000000000000 2.000000000000000 2.000000000000000 2.000000000000000 2.000000000000000 2.000000000000000 2.000000000000000 2.000000000000000 2.000000000000000 2.000000000000000 2.000000000000000 2.000000000000000 2.000000000000000 2.000000000000000 2.000000000000000 2.000000000000000 2.000000000000000 2.000000000000000 2.000000000000000 2.000000000000000 2.000000000000000 2.000000000000000 2.000000000000000 0.000000000000000 0.000000000000000 0.000000000000000 0.000000000000000 0.000000000000000 0.000000000000000 0.000000000000000 0.000000000000000 0.000000000000000 0.000000000000000 0.000000000000000 0.000000000000000 0.000000000000000 0.000000000000000 0.000000000000000 0.000000000000000 0.000000000000000 0.000000000000000 
2.000000000000000 2.000000000000000 2.000000000000000 2.000000000000000 2.000000000000000 2.000000000000000 2.000000000000000 2.000000000000000 2.000000000000000 2.000000000000000 2.000000000000000 2.000000000000000 2.000000000000000 2.000000000000000 2.000000000000000 2.000000000000000 2.000000000000000 2.000000000000000 2.000000000000000 2.000000000000000 2.000000000000000 2.000000000000000 2.000000000000000 2.000000000000000 2.000000000000000 2.000000000000000 2.000000000000000 2.000000000000000 0.000000000000000 0.000000000000000 0.000000000000000 0.000000000000000 0.000000000000000 0.000000000000000 0.000000000000000 0.000000000000000 0.000000000000000 0.000000000000000 0.000000000000000 0.000000000000000 0.000000000000000 0.000000000000000 0.000000000000000 0.000000000000000 0.000000000000000 0.000000000000000 
2.000000000000000 2.000000000000000 2.000000000000000 2.000000000000000 2.000000000000000 2.000000000000000 2.000000000000000 2.000000000000000 2.000000000000000 2.000000000000000 2.000000000000000 2.000000000000000 2.000000000000000 2.000000000000000 2.000000000000000 2.000000000000000 2.000000000000000 2.000000000000000 2.000000000000000 2.000000000000000 2.000000000000000 2.000000000000000 2.000000000000000 2.000000000000000 2.000000000000000 2.000000000000000 2.000000000000000 2.000000000000000 0.000000000000000 0.000000000000000 0.000000000000000 0.000000000000000 0.000000000000000 0.000000000000000 0.000000000000000 0.000000000000000 0.000000000000000 0.000000000000000 0.000000000000000 0.000000000000000 0.000000000000000 0.000000000000000 0.000000000000000 0.000000000000000 0.000000000000000 0.000000000000000 
2.000000000000000 2.000000000000000 2.000000000000000 2.000000000000000 2.000000000000000 2.000000000000000 2.000000000000000 2.000000000000000 2.000000000000000 2.000000000000000 2.000000000000000 2.000000000000000 2.000000000000000 2.000000000000000 2.000000000000000 2.000000000000000 2.000000000000000 2.000000000000000 2.000000000000000 2.000000000000000 2.000000000000000 2.000000000000000 2.000000000000000 2.000000000000000 2.000000000000000 2.000000000000000 2.000000000000000 2.000000000000000 0.000000000000000 0.000000000000000 0.000000000000000 0.000000000000000 0.000000000000000 0.000000000000000 0.000000000000000 0.000000000000000 0.000000000000000 0.000000000000000 0.000000000000000 0.000000000000000 0.000000000000000 0.000000000000000 0.000000000000000 0.000000000000000 0.000000000000000 0.000000000000000 
2.000000000000000 2.000000000000000 2.000000000000000 2.000000000000000 2.000000000000000 2.000000000000000 2.000000000000000 2.000000000000000 2.000000000000000 2.000000000000000 2.000000000000000 2.000000000000000 2.000000000000000 2.000000000000000 2.000000000000000 2.000000000000000 2.000000000000000 2.000000000000000 2.000000000000000 2.000000000000000 2.000000000000000 2.000000000000000 2.000000000000000 2.000000000000000 2.000000000000000 2.000000000000000 2.000000000000000 2.000000000000000 0.000000000000000 0.000000000000000 0.000000000000000 0.000000000000000 0.000000000000000 0.000000000000000 0.000000000000000 0.000000000000000 0.000000000000000 0.000000000000000 0.000000000000000 0.000000000000000 0.000000000000000 0.000000000000000 0.000000000000000 0.000000000000000 0.000000000000000 0.000000000000000 
2.000000000000000 2.000000000000000 2.000000000000000 2.000000000000000 2.000000000000000 2.000000000000000 2.000000000000000 2.000000000000000 2.000000000000000 2.000000000000000 2.000000000000000 2.000000000000000 2.000000000000000 2.000000000000000 2.000000000000000 2.000000000000000 2.000000000000000 2.000000000000000 2.000000000000000 2.000000000000000 2.000000000000000 2.000000000000000 2.000000000000000 2.000000000000000 2.000000000000000 2.000000000000000 2.000000000000000 2.000000000000000 0.000000000000000 0.000000000000000 0.000000000000000 0.000000000000000 0.000000000000000 0.000000000000000 0.000000000000000 0.000000000000000 0.000000000000000 0.000000000000000 0.000000000000000 0.000000000000000 0.000000000000000 0.000000000000000 0.000000000000000 0.000000000000000 0.000000000000000 0.000000000000000 
2.000000000000000 2.000000000000000 2.000000000000000 2.000000000000000 2.000000000000000 2.000000000000000 2.000000000000000 2.000000000000000 2.000000000000000 2.000000000000000 2.000000000000000 2.000000000000000 2.000000000000000 2.000000000000000 2.000000000000000 2.000000000000000 2.000000000000000 2.000000000000000 2.000000000000000 2.000000000000000 2.000000000000000 2.000000000000000 2.000000000000000 2.000000000000000 2.000000000000000 2.000000000000000 2.000000000000000 2.000000000000000 0.000000000000000 0.000000000000000 0.000000000000000 0.000000000000000 0.000000000000000 0.000000000000000 0.000000000000000 0.000000000000000 0.000000000000000 0.000000000000000 0.000000000000000 0.000000000000000 0.000000000000000 0.000000000000000 0.000000000000000 0.000000000000000 0.000000000000000 0.000000000000000 
2.000000000000000 2.000000000000000 2.000000000000000 2.000000000000000 2.000000000000000 2.000000000000000 2.000000000000000 2.000000000000000 2.000000000000000 2.000000000000000 2.000000000000000 2.000000000000000 2.000000000000000 2.000000000000000 2.000000000000000 2.000000000000000 2.000000000000000 2.000000000000000 2.000000000000000 2.000000000000000 2.000000000000000 2.000000000000000 2.000000000000000 2.000000000000000 2.000000000000000 2.000000000000000 2.000000000000000 2.000000000000000 0.000000000000000 0.000000000000000 0.000000000000000 0.000000000000000 0.000000000000000 0.000000000000000 0.000000000000000 0.000000000000000 0.000000000000000 0.000000000000000 0.000000000000000 0.000000000000000 0.000000000000000 0.000000000000000 0.000000000000000 0.000000000000000 0.000000000000000 0.000000000000000 
2.000000000000000 2.000000000000000 2.000000000000000 2.000000000000000 2.000000000000000 2.000000000000000 2.000000000000000 2.000000000000000 2.000000000000000 2.000000000000000 2.000000000000000 2.000000000000000 2.000000000000000 2.000000000000000 2.000000000000000 2.000000000000000 2.000000000000000 2.000000000000000 2.000000000000000 2.000000000000000 2.000000000000000 2.000000000000000 2.000000000000000 2.000000000000000 2.000000000000000 2.000000000000000 2.000000000000000 2.000000000000000 0.000000000000000 0.000000000000000 0.000000000000000 0.000000000000000 0.000000000000000 0.000000000000000 0.000000000000000 0.000000000000000 0.000000000000000 0.000000000000000 0.000000000000000 0.000000000000000 0.000000000000000 0.000000000000000 0.000000000000000 0.000000000000000 0.000000000000000 0.000000000000000 
2.000000000000000 2.000000000000000 2.000000000000000 2.000000000000000 2.000000000000000 2.000000000000000 2.000000000000000 2.000000000000000 2.000000000000000 2.000000000000000 2.000000000000000 2.000000000000000 2.000000000000000 2.000000000000000 2.000000000000000 2.000000000000000 2.000000000000000 2.000000000000000 2.000000000000000 2.000000000000000 2.000000000000000 2.000000000000000 2.000000000000000 2.000000000000000 2.000000000000000 2.000000000000000 2.000000000000000 2.000000000000000 0.000000000000000 0.000000000000000 0.000000000000000 0.000000000000000 0.000000000000000 0.000000000000000 0.000000000000000 0.000000000000000 0.000000000000000 0.000000000000000 0.000000000000000 0.000000000000000 0.000000000000000 0.000000000000000 0.000000000000000 0.000000000000000 0.000000000000000 0.000000000000000 
2.000000000000000 2.000000000000000 2.000000000000000 2.000000000000000 2.000000000000000 2.000000000000000 2.000000000000000 2.000000000000000 2.000000000000000 2.000000000000000 2.000000000000000 2.000000000000000 2.000000000000000 2.000000000000000 2.000000000000000 2.000000000000000 2.000000000000000 2.000000000000000 2.000000000000000 2.000000000000000 2.000000000000000 2.000000000000000 2.000000000000000 2.000000000000000 2.000000000000000 2.000000000000000 2.000000000000000 2.000000000000000 0.000000000000000 0.000000000000000 0.000000000000000 0.000000000000000 0.000000000000000 0.000000000000000 0.000000000000000 0.000000000000000 0.000000000000000 0.000000000000000 0.000000000000000 0.000000000000000 0.000000000000000 0.000000000000000 0.000000000000000 0.000000000000000 0.000000000000000 0.000000000000000 
2.000000000000000 2.000000000000000 2.000000000000000 2.000000000000000 2.000000000000000 2.000000000000000 2.000000000000000 2.000000000000000 2.000000000000000 2.000000000000000 2.000000000000000 2.000000000000000 2.000000000000000 2.000000000000000 2.000000000000000 2.000000000000000 2.000000000000000 2.000000000000000 2.000000000000000 2.000000000000000 2.000000000000000 2.000000000000000 2.000000000000000 2.000000000000000 2.000000000000000 2.000000000000000 2.000000000000000 2.000000000000000 0.000000000000000 0.000000000000000 0.000000000000000 0.000000000000000 0.000000000000000 0.000000000000000 0.000000000000000 0.000000000000000 0.000000000000000 0.000000000000000 0.000000000000000 0.000000000000000 0.000000000000000 0.000000000000000 0.000000000000000 0.000000000000000 0.000000000000000 0.000000000000000 
2.000000000000000 2.000000000000000 2.000000000000000 2.000000000000000 2.000000000000000 2.000000000000000 2.000000000000000 2.000000000000000 2.000000000000000 2.000000000000000 2.000000000000000 2.000000000000000 2.000000000000000 2.000000000000000 2.000000000000000 2.000000000000000 2.000000000000000 2.000000000000000 2.000000000000000 2.000000000000000 2.000000000000000 2.000000000000000 2.000000000000000 2.000000000000000 2.000000000000000 2.000000000000000 2.000000000000000 2.000000000000000 0.000000000000000 0.000000000000000 0.000000000000000 0.000000000000000 0.000000000000000 0.000000000000000 0.000000000000000 0.000000000000000 0.000000000000000 0.000000000000000 0.000000000000000 0.000000000000000 0.000000000000000 0.000000000000000 0.000000000000000 0.000000000000000 0.000000000000000 0.000000000000000 
2.000000000000000 2.000000000000000 2.000000000000000 2.000000000000000 2.000000000000000 2.000000000000000 2.000000000000000 2.000000000000000 2.000000000000000 2.000000000000000 2.000000000000000 2.000000000000000 2.000000000000000 2.000000000000000 2.000000000000000 2.000000000000000 2.000000000000000 2.000000000000000 2.000000000000000 2.000000000000000 2.000000000000000 2.000000000000000 2.000000000000000 2.000000000000000 2.000000000000000 2.000000000000000 2.000000000000000 2.000000000000000 0.000000000000000 0.000000000000000 0.000000000000000 0.000000000000000 0.000000000000000 0.000000000000000 0.000000000000000 0.000000000000000 0.000000000000000 0.000000000000000 0.000000000000000 0.000000000000000 0.000000000000000 0.000000000000000 0.000000000000000 0.000000000000000 0.000000000000000 0.000000000000000 
2.000000000000000 2.000000000000000 2.000000000000000 2.000000000000000 2.000000000000000 2.000000000000000 2.000000000000000 2.000000000000000 2.000000000000000 2.000000000000000 2.000000000000000 2.000000000000000 2.000000000000000 2.000000000000000 2.000000000000000 2.000000000000000 2.000000000000000 2.000000000000000 2.000000000000000 2.000000000000000 2.000000000000000 2.000000000000000 2.000000000000000 2.000000000000000 2.000000000000000 2.000000000000000 2.000000000000000 2.000000000000000 0.000000000000000 0.000000000000000 0.000000000000000 0.000000000000000 0.000000000000000 0.000000000000000 0.000000000000000 0.000000000000000 0.000000000000000 0.000000000000000 0.000000000000000 0.000000000000000 0.000000000000000 0.000000000000000 0.000000000000000 0.000000000000000 0.000000000000000 0.000000000000000 
2.000000000000000 2.000000000000000 2.000000000000000 2.000000000000000 2.000000000000000 2.000000000000000 2.000000000000000 2.000000000000000 2.000000000000000 2.000000000000000 2.000000000000000 2.000000000000000 2.000000000000000 2.000000000000000 2.000000000000000 2.000000000000000 2.000000000000000 2.000000000000000 2.000000000000000 2.000000000000000 2.000000000000000 2.000000000000000 2.000000000000000 2.000000000000000 2.000000000000000 2.000000000000000 2.000000000000000 2.000000000000000 0.000000000000000 0.000000000000000 0.000000000000000 0.000000000000000 0.000000000000000 0.000000000000000 0.000000000000000 0.000000000000000 0.000000000000000 0.000000000000000 0.000000000000000 0.000000000000000 0.000000000000000 0.000000000000000 0.000000000000000 0.000000000000000 0.000000000000000 0.000000000000000 
2.000000000000000 2.000000000000000 2.000000000000000 2.000000000000000 2.000000000000000 2.000000000000000 2.000000000000000 2.000000000000000 2.000000000000000 2.000000000000000 2.000000000000000 2.000000000000000 2.000000000000000 2.000000000000000 2.000000000000000 2.000000000000000 2.000000000000000 2.000000000000000 2.000000000000000 2.000000000000000 2.000000000000000 2.000000000000000 2.000000000000000 2.000000000000000 2.000000000000000 2.000000000000000 2.000000000000000 2.000000000000000 0.000000000000000 0.000000000000000 0.000000000000000 0.000000000000000 0.000000000000000 0.000000000000000 0.000000000000000 0.000000000000000 0.000000000000000 0.000000000000000 0.000000000000000 0.000000000000000 0.000000000000000 0.000000000000000 0.000000000000000 0.000000000000000 0.000000000000000 0.000000000000000 
2.000000000000000 2.000000000000000 2.000000000000000 2.000000000000000 2.000000000000000 2.000000000000000 2.000000000000000 2.000000000000000 2.000000000000000 2.000000000000000 2.000000000000000 2.000000000000000 2.000000000000000 2.000000000000000 2.000000000000000 2.000000000000000 2.000000000000000 2.000000000000000 2.000000000000000 2.000000000000000 2.000000000000000 2.000000000000000 2.000000000000000 2.000000000000000 2.000000000000000 2.000000000000000 2.000000000000000 2.000000000000000 0.000000000000000 0.000000000000000 0.000000000000000 0.000000000000000 0.000000000000000 0.000000000000000 0.000000000000000 0.000000000000000 0.000000000000000 0.000000000000000 0.000000000000000 0.000000000000000 0.000000000000000 0.000000000000000 0.000000000000000 0.000000000000000 0.000000000000000 0.000000000000000 
2.000000000000000 2.000000000000000 2.000000000000000 2.000000000000000 2.000000000000000 2.000000000000000 2.000000000000000 2.000000000000000 2.000000000000000 2.000000000000000 2.000000000000000 2.000000000000000 2.000000000000000 2.000000000000000 2.000000000000000 2.000000000000000 2.000000000000000 2.000000000000000 2.000000000000000 2.000000000000000 2.000000000000000 2.000000000000000 2.000000000000000 2.000000000000000 2.000000000000000 2.000000000000000 2.000000000000000 2.000000000000000 0.000000000000000 0.000000000000000 0.000000000000000 0.000000000000000 0.000000000000000 0.000000000000000 0.000000000000000 0.000000000000000 0.000000000000000 0.000000000000000 0.000000000000000 0.000000000000000 0.000000000000000 0.000000000000000 0.000000000000000 0.000000000000000 0.000000000000000 0.000000000000000 
2.000000000000000 2.000000000000000 2.000000000000000 2.000000000000000 2.000000000000000 2.000000000000000 2.000000000000000 2.000000000000000 2.000000000000000 2.000000000000000 2.000000000000000 2.000000000000000 2.000000000000000 2.000000000000000 2.000000000000000 2.000000000000000 2.000000000000000 2.000000000000000 2.000000000000000 2.000000000000000 2.000000000000000 2.000000000000000 2.000000000000000 2.000000000000000 2.000000000000000 2.000000000000000 2.000000000000000 2.000000000000000 0.000000000000000 0.000000000000000 0.000000000000000 0.000000000000000 0.000000000000000 0.000000000000000 0.000000000000000 0.000000000000000 0.000000000000000 0.000000000000000 0.000000000000000 0.000000000000000 0.000000000000000 0.000000000000000 0.000000000000000 0.000000000000000 0.000000000000000 0.000000000000000 
2.000000000000000 2.000000000000000 2.000000000000000 2.000000000000000 2.000000000000000 2.000000000000000 2.000000000000000 2.000000000000000 2.000000000000000 2.000000000000000 2.000000000000000 2.000000000000000 2.000000000000000 2.000000000000000 2.000000000000000 2.000000000000000 2.000000000000000 2.000000000000000 2.000000000000000 2.000000000000000 2.000000000000000 2.000000000000000 2.000000000000000 2.000000000000000 2.000000000000000 2.000000000000000 2.000000000000000 2.000000000000000 0.000000000000000 0.000000000000000 0.000000000000000 0.000000000000000 0.000000000000000 0.000000000000000 0.000000000000000 0.000000000000000 0.000000000000000 0.000000000000000 0.000000000000000 0.000000000000000 0.000000000000000 0.000000000000000 0.000000000000000 0.000000000000000 0.000000000000000 0.000000000000000 
2.000000000000000 2.000000000000000 2.000000000000000 2.000000000000000 2.000000000000000 2.000000000000000 2.000000000000000 2.000000000000000 2.000000000000000 2.000000000000000 2.000000000000000 2.000000000000000 2.000000000000000 2.000000000000000 2.000000000000000 2.000000000000000 2.000000000000000 2.000000000000000 2.000000000000000 2.000000000000000 2.000000000000000 2.000000000000000 2.000000000000000 2.000000000000000 2.000000000000000 2.000000000000000 2.000000000000000 2.000000000000000 0.000000000000000 0.000000000000000 0.000000000000000 0.000000000000000 0.000000000000000 0.000000000000000 0.000000000000000 0.000000000000000 0.000000000000000 0.000000000000000 0.000000000000000 0.000000000000000 0.000000000000000 0.000000000000000 0.000000000000000 0.000000000000000 0.000000000000000 0.000000000000000 
2.000000000000000 2.000000000000000 2.000000000000000 2.000000000000000 2.000000000000000 2.000000000000000 2.000000000000000 2.000000000000000 2.000000000000000 2.000000000000000 2.000000000000000 2.000000000000000 2.000000000000000 2.000000000000000 2.000000000000000 2.000000000000000 2.000000000000000 2.000000000000000 2.000000000000000 2.000000000000000 2.000000000000000 2.000000000000000 2.000000000000000 2.000000000000000 2.000000000000000 2.000000000000000 2.000000000000000 2.000000000000000 0.000000000000000 0.000000000000000 0.000000000000000 0.000000000000000 0.000000000000000 0.000000000000000 0.000000000000000 0.000000000000000 0.000000000000000 0.000000000000000 0.000000000000000 0.000000000000000 0.000000000000000 0.000000000000000 0.000000000000000 0.000000000000000 0.000000000000000 0.000000000000000 
2.000000000000000 2.000000000000000 2.000000000000000 2.000000000000000 2.000000000000000 2.000000000000000 2.000000000000000 2.000000000000000 2.000000000000000 2.000000000000000 2.000000000000000 2.000000000000000 2.000000000000000 2.000000000000000 2.000000000000000 2.000000000000000 2.000000000000000 2.000000000000000 2.000000000000000 2.000000000000000 2.000000000000000 2.000000000000000 2.000000000000000 2.000000000000000 2.000000000000000 2.000000000000000 2.000000000000000 2.000000000000000 0.000000000000000 0.000000000000000 0.000000000000000 0.000000000000000 0.000000000000000 0.000000000000000 0.000000000000000 0.000000000000000 0.000000000000000 0.000000000000000 0.000000000000000 0.000000000000000 0.000000000000000 0.000000000000000 0.000000000000000 0.000000000000000 0.000000000000000 0.000000000000000 
2.000000000000000 2.000000000000000 2.000000000000000 2.000000000000000 2.000000000000000 2.000000000000000 2.000000000000000 2.000000000000000 2.000000000000000 2.000000000000000 2.000000000000000 2.000000000000000 2.000000000000000 2.000000000000000 2.000000000000000 2.000000000000000 2.000000000000000 2.000000000000000 2.000000000000000 2.000000000000000 2.000000000000000 2.000000000000000 2.000000000000000 2.000000000000000 2.000000000000000 2.000000000000000 2.000000000000000 2.000000000000000 0.000000000000000 0.000000000000000 0.000000000000000 0.000000000000000 0.000000000000000 0.000000000000000 0.000000000000000 0.000000000000000 0.000000000000000 0.000000000000000 0.000000000000000 0.000000000000000 0.000000000000000 0.000000000000000 0.000000000000000 0.000000000000000 0.000000000000000 0.000000000000000 
2.000000000000000 2.000000000000000 2.000000000000000 2.000000000000000 2.000000000000000 2.000000000000000 2.000000000000000 2.000000000000000 2.000000000000000 2.000000000000000 2.000000000000000 2.000000000000000 2.000000000000000 2.000000000000000 2.000000000000000 2.000000000000000 2.000000000000000 2.000000000000000 2.000000000000000 2.000000000000000 2.000000000000000 2.000000000000000 2.000000000000000 2.000000000000000 2.000000000000000 2.000000000000000 2.000000000000000 2.000000000000000 0.000000000000000 0.000000000000000 0.000000000000000 0.000000000000000 0.000000000000000 0.000000000000000 0.000000000000000 0.000000000000000 0.000000000000000 0.000000000000000 0.000000000000000 0.000000000000000 0.000000000000000 0.000000000000000 0.000000000000000 0.000000000000000 0.000000000000000 0.000000000000000 
2.000000000000000 2.000000000000000 2.000000000000000 2.000000000000000 2.000000000000000 2.000000000000000 2.000000000000000 2.000000000000000 2.000000000000000 2.000000000000000 2.000000000000000 2.000000000000000 2.000000000000000 2.000000000000000 2.000000000000000 2.000000000000000 2.000000000000000 2.000000000000000 2.000000000000000 2.000000000000000 2.000000000000000 2.000000000000000 2.000000000000000 2.000000000000000 2.000000000000000 2.000000000000000 2.000000000000000 2.000000000000000 0.000000000000000 0.000000000000000 0.000000000000000 0.000000000000000 0.000000000000000 0.000000000000000 0.000000000000000 0.000000000000000 0.000000000000000 0.000000000000000 0.000000000000000 0.000000000000000 0.000000000000000 0.000000000000000 0.000000000000000 0.000000000000000 0.000000000000000 0.000000000000000 
2.000000000000000 2.000000000000000 2.000000000000000 2.000000000000000 2.000000000000000 2.000000000000000 2.000000000000000 2.000000000000000 2.000000000000000 2.000000000000000 2.000000000000000 2.000000000000000 2.000000000000000 2.000000000000000 2.000000000000000 2.000000000000000 2.000000000000000 2.000000000000000 2.000000000000000 2.000000000000000 2.000000000000000 2.000000000000000 2.000000000000000 2.000000000000000 2.000000000000000 2.000000000000000 2.000000000000000 2.000000000000000 0.000000000000000 0.000000000000000 0.000000000000000 0.000000000000000 0.000000000000000 0.000000000000000 0.000000000000000 0.000000000000000 0.000000000000000 0.000000000000000 0.000000000000000 0.000000000000000 0.000000000000000 0.000000000000000 0.000000000000000 0.000000000000000 0.000000000000000 0.000000000000000 
2.000000000000000 2.000000000000000 2.000000000000000 2.000000000000000 2.000000000000000 2.000000000000000 2.000000000000000 2.000000000000000 2.000000000000000 2.000000000000000 2.000000000000000 2.000000000000000 2.000000000000000 2.000000000000000 2.000000000000000 2.000000000000000 2.000000000000000 2.000000000000000 2.000000000000000 2.000000000000000 2.000000000000000 2.000000000000000 2.000000000000000 2.000000000000000 2.000000000000000 2.000000000000000 2.000000000000000 2.000000000000000 0.000000000000000 0.000000000000000 0.000000000000000 0.000000000000000 0.000000000000000 0.000000000000000 0.000000000000000 0.000000000000000 0.000000000000000 0.000000000000000 0.000000000000000 0.000000000000000 0.000000000000000 0.000000000000000 0.000000000000000 0.000000000000000 0.000000000000000 0.000000000000000 
2.000000000000000 2.000000000000000 2.000000000000000 2.000000000000000 2.000000000000000 2.000000000000000 2.000000000000000 2.000000000000000 2.000000000000000 2.000000000000000 2.000000000000000 2.000000000000000 2.000000000000000 2.000000000000000 2.000000000000000 2.000000000000000 2.000000000000000 2.000000000000000 2.000000000000000 2.000000000000000 2.000000000000000 2.000000000000000 2.000000000000000 2.000000000000000 2.000000000000000 2.000000000000000 2.000000000000000 2.000000000000000 0.000000000000000 0.000000000000000 0.000000000000000 0.000000000000000 0.000000000000000 0.000000000000000 0.000000000000000 0.000000000000000 0.000000000000000 0.000000000000000 0.000000000000000 0.000000000000000 0.000000000000000 0.000000000000000 0.000000000000000 0.000000000000000 0.000000000000000 0.000000000000000 
2.000000000000000 2.000000000000000 2.000000000000000 2.000000000000000 2.000000000000000 2.000000000000000 2.000000000000000 2.000000000000000 2.000000000000000 2.000000000000000 2.000000000000000 2.000000000000000 2.000000000000000 2.000000000000000 2.000000000000000 2.000000000000000 2.000000000000000 2.000000000000000 2.000000000000000 2.000000000000000 2.000000000000000 2.000000000000000 2.000000000000000 2.000000000000000 2.000000000000000 2.000000000000000 2.000000000000000 2.000000000000000 0.000000000000000 0.000000000000000 0.000000000000000 0.000000000000000 0.000000000000000 0.000000000000000 0.000000000000000 0.000000000000000 0.000000000000000 0.000000000000000 0.000000000000000 0.000000000000000 0.000000000000000 0.000000000000000 0.000000000000000 0.000000000000000 0.000000000000000 0.000000000000000 
2.000000000000000 2.000000000000000 2.000000000000000 2.000000000000000 2.000000000000000 2.000000000000000 2.000000000000000 2.000000000000000 2.000000000000000 2.000000000000000 2.000000000000000 2.000000000000000 2.000000000000000 2.000000000000000 2.000000000000000 2.000000000000000 2.000000000000000 2.000000000000000 2.000000000000000 2.000000000000000 2.000000000000000 2.000000000000000 2.000000000000000 2.000000000000000 2.000000000000000 2.000000000000000 2.000000000000000 2.000000000000000 0.000000000000000 0.000000000000000 0.000000000000000 0.000000000000000 0.000000000000000 0.000000000000000 0.000000000000000 0.000000000000000 0.000000000000000 0.000000000000000 0.000000000000000 0.000000000000000 0.000000000000000 0.000000000000000 0.000000000000000 0.000000000000000 0.000000000000000 0.000000000000000 
2.000000000000000 2.000000000000000 2.000000000000000 2.000000000000000 2.000000000000000 2.000000000000000 2.000000000000000 2.000000000000000 2.000000000000000 2.000000000000000 2.000000000000000 2.000000000000000 2.000000000000000 2.000000000000000 2.000000000000000 2.000000000000000 2.000000000000000 2.000000000000000 2.000000000000000 2.000000000000000 2.000000000000000 2.000000000000000 2.000000000000000 2.000000000000000 2.000000000000000 2.000000000000000 2.000000000000000 2.000000000000000 0.000000000000000 0.000000000000000 0.000000000000000 0.000000000000000 0.000000000000000 0.000000000000000 0.000000000000000 0.000000000000000 0.000000000000000 0.000000000000000 0.000000000000000 0.000000000000000 0.000000000000000 0.000000000000000 0.000000000000000 0.000000000000000 0.000000000000000 0.000000000000000 
2.000000000000000 2.000000000000000 2.000000000000000 2.000000000000000 2.000000000000000 2.000000000000000 2.000000000000000 2.000000000000000 2.000000000000000 2.000000000000000 2.000000000000000 2.000000000000000 2.000000000000000 2.000000000000000 2.000000000000000 2.000000000000000 2.000000000000000 2.000000000000000 2.000000000000000 2.000000000000000 2.000000000000000 2.000000000000000 2.000000000000000 2.000000000000000 2.000000000000000 2.000000000000000 2.000000000000000 2.000000000000000 0.000000000000000 0.000000000000000 0.000000000000000 0.000000000000000 0.000000000000000 0.000000000000000 0.000000000000000 0.000000000000000 0.000000000000000 0.000000000000000 0.000000000000000 0.000000000000000 0.000000000000000 0.000000000000000 0.000000000000000 0.000000000000000 0.000000000000000 0.000000000000000 
2.000000000000000 2.000000000000000 2.000000000000000 2.000000000000000 2.000000000000000 2.000000000000000 2.000000000000000 2.000000000000000 2.000000000000000 2.000000000000000 2.000000000000000 2.000000000000000 2.000000000000000 2.000000000000000 2.000000000000000 2.000000000000000 2.000000000000000 2.000000000000000 2.000000000000000 2.000000000000000 2.000000000000000 2.000000000000000 2.000000000000000 2.000000000000000 2.000000000000000 2.000000000000000 2.000000000000000 2.000000000000000 0.000000000000000 0.000000000000000 0.000000000000000 0.000000000000000 0.000000000000000 0.000000000000000 0.000000000000000 0.000000000000000 0.000000000000000 0.000000000000000 0.000000000000000 0.000000000000000 0.000000000000000 0.000000000000000 0.000000000000000 0.000000000000000 0.000000000000000 0.000000000000000 
2.000000000000000 2.000000000000000 2.000000000000000 2.000000000000000 2.000000000000000 2.000000000000000 2.000000000000000 2.000000000000000 2.000000000000000 2.000000000000000 2.000000000000000 2.000000000000000 2.000000000000000 2.000000000000000 2.000000000000000 2.000000000000000 2.000000000000000 2.000000000000000 2.000000000000000 2.000000000000000 2.000000000000000 2.000000000000000 2.000000000000000 2.000000000000000 2.000000000000000 2.000000000000000 2.000000000000000 2.000000000000000 0.000000000000000 0.000000000000000 0.000000000000000 0.000000000000000 0.000000000000000 0.000000000000000 0.000000000000000 0.000000000000000 0.000000000000000 0.000000000000000 0.000000000000000 0.000000000000000 0.000000000000000 0.000000000000000 0.000000000000000 0.000000000000000 0.000000000000000 0.000000000000000 
2.000000000000000 2.000000000000000 2.000000000000000 2.000000000000000 2.000000000000000 2.000000000000000 2.000000000000000 2.000000000000000 2.000000000000000 2.000000000000000 2.000000000000000 2.000000000000000 2.000000000000000 2.000000000000000 2.000000000000000 2.000000000000000 2.000000000000000 2.000000000000000 2.000000000000000 2.000000000000000 2.000000000000000 2.000000000000000 2.000000000000000 2.000000000000000 2.000000000000000 2.000000000000000 2.000000000000000 2.000000000000000 0.000000000000000 0.000000000000000 0.000000000000000 0.000000000000000 0.000000000000000 0.000000000000000 0.000000000000000 0.000000000000000 0.000000000000000 0.000000000000000 0.000000000000000 0.000000000000000 0.000000000000000 0.000000000000000 0.000000000000000 0.000000000000000 0.000000000000000 0.000000000000000 
2.000000000000000 2.000000000000000 2.000000000000000 2.000000000000000 2.000000000000000 2.000000000000000 2.000000000000000 2.000000000000000 2.000000000000000 2.000000000000000 2.000000000000000 2.000000000000000 2.000000000000000 2.000000000000000 2.000000000000000 2.000000000000000 2.000000000000000 2.000000000000000 2.000000000000000 2.000000000000000 2.000000000000000 2.000000000000000 2.000000000000000 2.000000000000000 2.000000000000000 2.000000000000000 2.000000000000000 2.000000000000000 0.000000000000000 0.000000000000000 0.000000000000000 0.000000000000000 0.000000000000000 0.000000000000000 0.000000000000000 0.000000000000000 0.000000000000000 0.000000000000000 0.000000000000000 0.000000000000000 0.000000000000000 0.000000000000000 0.000000000000000 0.000000000000000 0.000000000000000 0.000000000000000 
2.000000000000000 2.000000000000000 2.000000000000000 2.000000000000000 2.000000000000000 2.000000000000000 2.000000000000000 2.000000000000000 2.000000000000000 2.000000000000000 2.000000000000000 2.000000000000000 2.000000000000000 2.000000000000000 2.000000000000000 2.000000000000000 2.000000000000000 2.000000000000000 2.000000000000000 2.000000000000000 2.000000000000000 2.000000000000000 2.000000000000000 2.000000000000000 2.000000000000000 2.000000000000000 2.000000000000000 2.000000000000000 0.000000000000000 0.000000000000000 0.000000000000000 0.000000000000000 0.000000000000000 0.000000000000000 0.000000000000000 0.000000000000000 0.000000000000000 0.000000000000000 0.000000000000000 0.000000000000000 0.000000000000000 0.000000000000000 0.000000000000000 0.000000000000000 0.000000000000000 0.000000000000000 
2.000000000000000 2.000000000000000 2.000000000000000 2.000000000000000 2.000000000000000 2.000000000000000 2.000000000000000 2.000000000000000 2.000000000000000 2.000000000000000 2.000000000000000 2.000000000000000 2.000000000000000 2.000000000000000 2.000000000000000 2.000000000000000 2.000000000000000 2.000000000000000 2.000000000000000 2.000000000000000 2.000000000000000 2.000000000000000 2.000000000000000 2.000000000000000 2.000000000000000 2.000000000000000 2.000000000000000 2.000000000000000 0.000000000000000 0.000000000000000 0.000000000000000 0.000000000000000 0.000000000000000 0.000000000000000 0.000000000000000 0.000000000000000 0.000000000000000 0.000000000000000 0.000000000000000 0.000000000000000 0.000000000000000 0.000000000000000 0.000000000000000 0.000000000000000 0.000000000000000 0.000000000000000 
2.000000000000000 2.000000000000000 2.000000000000000 2.000000000000000 2.000000000000000 2.000000000000000 2.000000000000000 2.000000000000000 2.000000000000000 2.000000000000000 2.000000000000000 2.000000000000000 2.000000000000000 2.000000000000000 2.000000000000000 2.000000000000000 2.000000000000000 2.000000000000000 2.000000000000000 2.000000000000000 2.000000000000000 2.000000000000000 2.000000000000000 2.000000000000000 2.000000000000000 2.000000000000000 2.000000000000000 2.000000000000000 0.000000000000000 0.000000000000000 0.000000000000000 0.000000000000000 0.000000000000000 0.000000000000000 0.000000000000000 0.000000000000000 0.000000000000000 0.000000000000000 0.000000000000000 0.000000000000000 0.000000000000000 0.000000000000000 0.000000000000000 0.000000000000000 0.000000000000000 0.000000000000000 
2.000000000000000 2.000000000000000 2.000000000000000 2.000000000000000 2.000000000000000 2.000000000000000 2.000000000000000 2.000000000000000 2.000000000000000 2.000000000000000 2.000000000000000 2.000000000000000 2.000000000000000 2.000000000000000 2.000000000000000 2.000000000000000 2.000000000000000 2.000000000000000 2.000000000000000 2.000000000000000 2.000000000000000 2.000000000000000 2.000000000000000 2.000000000000000 2.000000000000000 2.000000000000000 2.000000000000000 2.000000000000000 0.000000000000000 0.000000000000000 0.000000000000000 0.000000000000000 0.000000000000000 0.000000000000000 0.000000000000000 0.000000000000000 0.000000000000000 0.000000000000000 0.000000000000000 0.000000000000000 0.000000000000000 0.000000000000000 0.000000000000000 0.000000000000000 0.000000000000000 0.000000000000000 
2.000000000000000 2.000000000000000 2.000000000000000 2.000000000000000 2.000000000000000 2.000000000000000 2.000000000000000 2.000000000000000 2.000000000000000 2.000000000000000 2.000000000000000 2.000000000000000 2.000000000000000 2.000000000000000 2.000000000000000 2.000000000000000 2.000000000000000 2.000000000000000 2.000000000000000 2.000000000000000 2.000000000000000 2.000000000000000 2.000000000000000 2.000000000000000 2.000000000000000 2.000000000000000 2.000000000000000 2.000000000000000 0.000000000000000 0.000000000000000 0.000000000000000 0.000000000000000 0.000000000000000 0.000000000000000 0.000000000000000 0.000000000000000 0.000000000000000 0.000000000000000 0.000000000000000 0.000000000000000 0.000000000000000 0.000000000000000 0.000000000000000 0.000000000000000 0.000000000000000 0.000000000000000 
2.000000000000000 2.000000000000000 2.000000000000000 2.000000000000000 2.000000000000000 2.000000000000000 2.000000000000000 2.000000000000000 2.000000000000000 2.000000000000000 2.000000000000000 2.000000000000000 2.000000000000000 2.000000000000000 2.000000000000000 2.000000000000000 2.000000000000000 2.000000000000000 2.000000000000000 2.000000000000000 2.000000000000000 2.000000000000000 2.000000000000000 2.000000000000000 2.000000000000000 2.000000000000000 2.000000000000000 2.000000000000000 0.000000000000000 0.000000000000000 0.000000000000000 0.000000000000000 0.000000000000000 0.000000000000000 0.000000000000000 0.000000000000000 0.000000000000000 0.000000000000000 0.000000000000000 0.000000000000000 0.000000000000000 0.000000000000000 0.000000000000000 0.000000000000000 0.000000000000000 0.000000000000000 
2.000000000000000 2.000000000000000 2.000000000000000 2.000000000000000 2.000000000000000 2.000000000000000 2.000000000000000 2.000000000000000 2.000000000000000 2.000000000000000 2.000000000000000 2.000000000000000 2.000000000000000 2.000000000000000 2.000000000000000 2.000000000000000 2.000000000000000 2.000000000000000 2.000000000000000 2.000000000000000 2.000000000000000 2.000000000000000 2.000000000000000 2.000000000000000 2.000000000000000 2.000000000000000 2.000000000000000 2.000000000000000 0.000000000000000 0.000000000000000 0.000000000000000 0.000000000000000 0.000000000000000 0.000000000000000 0.000000000000000 0.000000000000000 0.000000000000000 0.000000000000000 0.000000000000000 0.000000000000000 0.000000000000000 0.000000000000000 0.000000000000000 0.000000000000000 0.000000000000000 0.000000000000000 
[...]
  38   0.000000e+00   5.187432e-01   5.187432e-01
  39   0.000000e+00   5.730512e-01   5.730511e-01
  40   0.000000e+00   6.662905e-01   6.662883e-01
  41   0.000000e+00   6.987627e-01   6.987613e-01
  42   0.000000e+00   7.699671e-01   7.699676e-01
  43   0.000000e+00   8.143476e-01   8.143475e-01
  44   0.000000e+00   8.229872e-01   8.229873e-01
  45   0.000000e+00   8.408728e-01   8.408760e-01

state = 8   q_k = [ 0 0.125 0.375 ]   w = 0.0078125   spin = 0
band     filling       diag(Hsub)      epsilon   
-------------------------------------------------
   0   2.000000e+00  -1.793027e+00  -1.793027e+00
   1   2.000000e+00  -1.792382e+00  -1.792382e+00
   2   2.000000e+00  -9.207772e-01  -9.207772e-01
   3   2.000000e+00  -9.173340e-01  -9.173340e-01
   4   2.000000e+00  -9.161240e-01  -9.161240e-01
   5   2.000000e+00  -9.152564e-01  -9.152564e-01
   6   2.000000e+00  -9.147183e-01  -9.147183e-01
   7   2.000000e+00  -9.126023e-01  -9.126023e-01
   8   2.000000e+00  -4.210016e-01  -4.210016e-01
   9   2.000000e+00  -4.046854e-01  -4.046854e-01
  10   2.000000e+00  -3.841541e-01  -3.841541e-01
  11   2.000000e+00  -3.737375e-01  -3.737375e-01
  12   2.000000e+00  -3.703036e-01  -3.703036e-01
  13   2.000000e+00   2.870690e-02   2.870690e-02
  14   2.000000e+00   5.433813e-02   5.433813e-02
  15   2.000000e+00   1.010899e-01   1.010899e-01
  16   2.000000e+00   1.139715e-01   1.139715e-01
  17   2.000000e+00   1.245591e-01   1.245591e-01
  18   2.000000e+00   1.340242e-01   1.340242e-01
  19   2.000000e+00   1.344957e-01   1.344957e-01
  20   2.000000e+00   1.506095e-01   1.506095e-01
  21   2.000000e+00   1.551873e-01   1.551873e-01
  22   2.000000e+00   1.680068e-01   1.680068e-01
  23   2.000000e+00   1.691849e-01   1.691849e-01
  24   2.000000e+00   1.775492e-01   1.775492e-01
  25   2.000000e+00   1.784455e-01   1.784455e-01
  26   2.000000e+00   1.864354e-01   1.864354e-01
  27   2.000000e+00   1.899481e-01   1.899481e-01
  28   1.771876e-05   3.142256e-01   3.142256e-01
  29   6.364008e-08   3.367414e-01   3.367414e-01
  30   1.494735e-08   3.425362e-01   3.425362e-01
  31   2.432166e-12   3.774300e-01   3.774300e-01
  32   3.019807e-14   3.949773e-01   3.949773e-01
  33   2.220446e-16   4.143712e-01   4.143712e-01
  34   1.110223e-16   4.167219e-01   4.167219e-01
  35   0.000000e+00   4.555531e-01   4.555531e-01
  36   0.000000e+00   4.776381e-01   4.776381e-01
  37   0.000000e+00   4.923207e-01   4.923207e-01
  38   0.000000e+00   5.271135e-01   5.271134e-01
  39   0.000000e+00   5.532824e-01   5.532824e-01
  40   0.000000e+00   6.833263e-01   6.833222e-01
  41   0.000000e+00   7.118852e-01   7.118622e-01
  42   0.000000e+00   7.460921e-01   7.460844e-01
  43   0.000000e+00   8.014818e-01   8.014555e-01
  44   0.000000e+00   8.154249e-01   8.154248e-01
  45   0.000000e+00   8.486611e-01   8.487224e-01

state = 9   q_k = [ 0 0.125 0.5 ]   w = 0.0078125   spin = 0
band     filling       diag(Hsub)      epsilon   
-------------------------------------------------
   0   2.000000e+00  -1.793018e+00  -1.793018e+00
   1   2.000000e+00  -1.792390e+00  -1.792390e+00
   2   2.000000e+00  -9.198638e-01  -9.198638e-01
   3   2.000000e+00  -9.179036e-01  -9.179036e-01
   4   2.000000e+00  -9.159990e-01  -9.159990e-01
   5   2.000000e+00  -9.152760e-01  -9.152760e-01
   6   2.000000e+00  -9.152109e-01  -9.152109e-01
   7   2.000000e+00  -9.125815e-01  -9.125815e-01
   8   2.000000e+00  -4.201767e-01  -4.201767e-01
   9   2.000000e+00  -4.049071e-01  -4.049071e-01
  10   2.000000e+00  -3.848381e-01  -3.848381e-01
  11   2.000000e+00  -3.737945e-01  -3.737945e-01
  12   2.000000e+00  -3.701373e-01  -3.701373e-01
  13   2.000000e+00   2.667878e-02   2.667878e-02
  14   2.000000e+00   5.357612e-02   5.357612e-02
  15   2.000000e+00   1.060249e-01   1.060249e-01
  16   2.000000e+00   1.116073e-01   1.116073e-01
  17   2.000000e+00   1.250600e-01   1.250600e-01
  18   2.000000e+00   1.349464e-01   1.349464e-01
  19   2.000000e+00   1.382574e-01   1.382574e-01
  20   2.000000e+00   1.473152e-01   1.473152e-01
  21   2.000000e+00   1.557810e-01   1.557810e-01
  22   2.000000e+00   1.647689e-01   1.647689e-01
  23   2.000000e+00   1.695198e-01   1.695198e-01
  24   2.000000e+00   1.771871e-01   1.771871e-01
  25   2.000000e+00   1.785009e-01   1.785009e-01
  26   2.000000e+00   1.862339e-01   1.862339e-01
  27   2.000000e+00   1.928189e-01   1.928189e-01
  28   2.236403e-05   3.132944e-01   3.132944e-01
  29   7.390063e-08   3.361434e-01   3.361434e-01
  30   1.174507e-08   3.435006e-01   3.435006e-01
  31   4.007128e-12   3.754328e-01   3.754328e-01
  32   3.441691e-14   3.944578e-01   3.944578e-01
  33   7.771561e-16   4.098872e-01   4.098872e-01
  34   1.110223e-16   4.178108e-01   4.178108e-01
  35   0.000000e+00   4.626809e-01   4.626809e-01
  36   0.000000e+00   4.750797e-01   4.750797e-01
  37   0.000000e+00   4.950262e-01   4.950261e-01
  38   0.000000e+00   5.294628e-01   5.294628e-01
  39   0.000000e+00   5.453609e-01   5.453609e-01
  40   0.000000e+00   6.908366e-01   6.908263e-01
  41   0.000000e+00   7.214136e-01   7.214123e-01
  42   0.000000e+00   7.510312e-01   7.509584e-01
  43   0.000000e+00   7.715304e-01   7.716071e-01
  44   0.000000e+00   8.151849e-01   8.151842e-01
  45   0.000000e+00   8.742433e-01   8.742519e-01

state = 10   q_k = [ 0 0.125 -0.375 ]   w = 0.0078125   spin = 0
band     filling       diag(Hsub)      epsilon   
-------------------------------------------------
   0   2.000000e+00  -1.793026e+00  -1.793026e+00
   1   2.000000e+00  -1.792382e+00  -1.792382e+00
   2   2.000000e+00  -9.207960e-01  -9.207960e-01
   3   2.000000e+00  -9.173243e-01  -9.173243e-01
   4   2.000000e+00  -9.160786e-01  -9.160786e-01
   5   2.000000e+00  -9.152560e-01  -9.152560e-01
   6   2.000000e+00  -9.147514e-01  -9.147514e-01
   7   2.000000e+00  -9.126020e-01  -9.126020e-01
   8   2.000000e+00  -4.210237e-01  -4.210237e-01
   9   2.000000e+00  -4.046865e-01  -4.046865e-01
  10   2.000000e+00  -3.841032e-01  -3.841032e-01
  11   2.000000e+00  -3.738870e-01  -3.738870e-01
  12   2.000000e+00  -3.701789e-01  -3.701789e-01
  13   2.000000e+00   2.925509e-02   2.925509e-02
  14   2.000000e+00   5.427694e-02   5.427694e-02
  15   2.000000e+00   9.988709e-02   9.988709e-02
  16   2.000000e+00   1.122710e-01   1.122710e-01
  17   2.000000e+00   1.229489e-01   1.229489e-01
  18   2.000000e+00   1.369514e-01   1.369514e-01
  19   2.000000e+00   1.410803e-01   1.410803e-01
  20   2.000000e+00   1.459703e-01   1.459703e-01
  21   2.000000e+00   1.567887e-01   1.567887e-01
  22   2.000000e+00   1.610140e-01   1.610140e-01
  23   2.000000e+00   1.712520e-01   1.712520e-01
  24   2.000000e+00   1.764796e-01   1.764796e-01
  25   2.000000e+00   1.781985e-01   1.781985e-01
  26   2.000000e+00   1.855994e-01   1.855994e-01
  27   2.000000e+00   1.950600e-01   1.950600e-01
  28   1.699108e-05   3.143934e-01   3.143934e-01
  29   4.193699e-08   3.384094e-01   3.384094e-01
  30   1.584641e-08   3.423025e-01   3.423025e-01
  31   2.703060e-12   3.770075e-01   3.770075e-01
  32   9.270362e-14   3.904983e-01   3.904983e-01
  33   1.110223e-16   4.160401e-01   4.160401e-01
  34   1.110223e-16   4.172567e-01   4.172567e-01
  35   0.000000e+00   4.580947e-01   4.580947e-01
  36   0.000000e+00   4.755895e-01   4.755895e-01
  37   0.000000e+00   4.902203e-01   4.902203e-01
  38   0.000000e+00   5.286326e-01   5.286326e-01
  39   0.000000e+00   5.544195e-01   5.544195e-01
  40   0.000000e+00   6.776662e-01   6.776612e-01
  41   0.000000e+00   7.245618e-01   7.245467e-01
  42   0.000000e+00   7.493985e-01   7.493736e-01
  43   0.000000e+00   7.850707e-01   7.851147e-01
  44   0.000000e+00   8.140381e-01   8.140368e-01
  45   0.000000e+00   8.476590e-01   8.476613e-01

state = 11   q_k = [ 0 0.125 -0.25 ]   w = 0.0078125   spin = 0
band     filling       diag(Hsub)      epsilon   
-------------------------------------------------
   0   2.000000e+00  -1.793047e+00  -1.793047e+00
   1   2.000000e+00  -1.792362e+00  -1.792362e+00
   2   2.000000e+00  -9.221321e-01  -9.221321e-01
   3   2.000000e+00  -9.168505e-01  -9.168505e-01
   4   2.000000e+00  -9.161757e-01  -9.161757e-01
   5   2.000000e+00  -9.152063e-01  -9.152063e-01
   6   2.000000e+00  -9.137308e-01  -9.137308e-01
   7   2.000000e+00  -9.126533e-01  -9.126533e-01
   8   2.000000e+00  -4.228680e-01  -4.228680e-01
   9   2.000000e+00  -4.042636e-01  -4.042636e-01
  10   2.000000e+00  -3.824022e-01  -3.824022e-01
  11   2.000000e+00  -3.739718e-01  -3.739718e-01
  12   2.000000e+00  -3.704392e-01  -3.704392e-01
  13   2.000000e+00   3.630623e-02   3.630623e-02
  14   2.000000e+00   5.613125e-02   5.613125e-02
  15   2.000000e+00   8.798181e-02   8.798181e-02
  16   2.000000e+00   1.108336e-01   1.108336e-01
  17   2.000000e+00   1.246124e-01   1.246124e-01
  18   2.000000e+00   1.306837e-01   1.306837e-01
  19   2.000000e+00   1.456716e-01   1.456716e-01
  20   2.000000e+00   1.477312e-01   1.477312e-01
  21   2.000000e+00   1.576000e-01   1.576000e-01
  22   2.000000e+00   1.587294e-01   1.587294e-01
  23   2.000000e+00   1.733103e-01   1.733103e-01
  24   2.000000e+00   1.759485e-01   1.759485e-01
  25   2.000000e+00   1.775087e-01   1.775087e-01
  26   2.000000e+00   1.849245e-01   1.849245e-01
  27   2.000000e+00   1.957985e-01   1.957985e-01
  28   8.693765e-06   3.170738e-01   3.170738e-01
  29   3.111932e-08   3.396029e-01   3.396029e-01
  30   1.588450e-08   3.422921e-01   3.422921e-01
  31   9.193757e-13   3.813211e-01   3.813211e-01
  32   2.421396e-13   3.866578e-01   3.866578e-01
  33   2.220446e-16   4.151282e-01   4.151282e-01
  34   0.000000e+00   4.291007e-01   4.291007e-01
  35   0.000000e+00   4.464675e-01   4.464675e-01
  36   0.000000e+00   4.772367e-01   4.772367e-01
  37   0.000000e+00   4.848704e-01   4.848704e-01
  38   0.000000e+00   5.211096e-01   5.211096e-01
  39   0.000000e+00   5.751855e-01   5.751855e-01
  40   0.000000e+00   6.587449e-01   6.587429e-01
  41   0.000000e+00   7.146760e-01   7.146754e-01
  42   0.000000e+00   7.554612e-01   7.554590e-01
  43   0.000000e+00   8.116866e-01   8.116859e-01
  44   0.000000e+00   8.219473e-01   8.219515e-01
  45   0.000000e+00   8.268916e-01   8.268930e-01

state = 12   q_k = [ 0 0.125 -0.125 ]   w = 0.0078125   spin = 0
band     filling       diag(Hsub)      epsilon   
-------------------------------------------------
   0   2.000000e+00  -1.793065e+00  -1.793065e+00
   1   2.000000e+00  -1.792343e+00  -1.792343e+00
   2   2.000000e+00  -9.230851e-01  -9.230851e-01
   3   2.000000e+00  -9.167070e-01  -9.167070e-01
   4   2.000000e+00  -9.161887e-01  -9.161887e-01
   5   2.000000e+00  -9.151545e-01  -9.151545e-01
   6   2.000000e+00  -9.128457e-01  -9.128457e-01
   7   2.000000e+00  -9.127067e-01  -9.127067e-01
   8   2.000000e+00  -4.245187e-01  -4.245187e-01
   9   2.000000e+00  -4.039427e-01  -4.039427e-01
  10   2.000000e+00  -3.807313e-01  -3.807313e-01
  11   2.000000e+00  -3.739630e-01  -3.739630e-01
  12   2.000000e+00  -3.708564e-01  -3.708564e-01
  13   2.000000e+00   4.731575e-02   4.731575e-02
  14   2.000000e+00   5.819385e-02   5.819385e-02
  15   2.000000e+00   7.380444e-02   7.380444e-02
  16   2.000000e+00   1.082526e-01   1.082526e-01
  17   2.000000e+00   1.249520e-01   1.249520e-01
  18   2.000000e+00   1.269711e-01   1.269711e-01
  19   2.000000e+00   1.465510e-01   1.465510e-01
  20   2.000000e+00   1.494897e-01   1.494897e-01
  21   2.000000e+00   1.572363e-01   1.572363e-01
  22   2.000000e+00   1.614528e-01   1.614528e-01
  23   2.000000e+00   1.749543e-01   1.749543e-01
  24   2.000000e+00   1.758000e-01   1.758000e-01
  25   2.000000e+00   1.764984e-01   1.764984e-01
  26   2.000000e+00   1.842624e-01   1.842624e-01
  27   2.000000e+00   1.948572e-01   1.948572e-01
  28   4.078104e-06   3.201016e-01   3.201016e-01
  29   6.388927e-08   3.367256e-01   3.367256e-01
  30   7.046655e-09   3.455427e-01   3.455427e-01
  31   4.246603e-13   3.844107e-01   3.844107e-01
  32   2.587930e-13   3.863922e-01   3.863922e-01
  33   4.440892e-16   4.120377e-01   4.120377e-01
  34   0.000000e+00   4.341059e-01   4.341059e-01
  35   0.000000e+00   4.479860e-01   4.479860e-01
  36   0.000000e+00   4.765515e-01   4.765515e-01
  37   0.000000e+00   4.818804e-01   4.818804e-01
  38   0.000000e+00   5.103018e-01   5.103018e-01
  39   0.000000e+00   5.986849e-01   5.986847e-01
  40   0.000000e+00   6.392554e-01   6.392551e-01
  41   0.000000e+00   7.001561e-01   7.001562e-01
  42   0.000000e+00   7.729522e-01   7.729519e-01
  43   0.000000e+00   8.092006e-01   8.091971e-01
  44   0.000000e+00   8.185897e-01   8.185936e-01
  45   0.000000e+00   8.433566e-01   8.433570e-01

state = 13   q_k = [ 0 0.25 0 ]   w = 0.0078125   spin = 0
band     filling       diag(Hsub)      epsilon   
-------------------------------------------------
   0   2.000000e+00  -1.793053e+00  -1.793053e+00
   1   2.000000e+00  -1.792318e+00  -1.792318e+00
   2   2.000000e+00  -9.233611e-01  -9.233611e-01
   3   2.000000e+00  -9.181552e-01  -9.181552e-01
   4   2.000000e+00  -9.175964e-01  -9.175964e-01
   5   2.000000e+00  -9.150749e-01  -9.150749e-01
   6   2.000000e+00  -9.126796e-01  -9.126796e-01
   7   2.000000e+00  -9.125058e-01  -9.125058e-01
   8   2.000000e+00  -4.239635e-01  -4.239635e-01
   9   2.000000e+00  -4.034788e-01  -4.034788e-01
  10   2.000000e+00  -3.797383e-01  -3.797383e-01
  11   2.000000e+00  -3.623835e-01  -3.623835e-01
  12   2.000000e+00  -3.584728e-01  -3.584728e-01
  13   2.000000e+00   5.490269e-02   5.490269e-02
  14   2.000000e+00   5.839403e-02   5.839403e-02
  15   2.000000e+00   6.067195e-02   6.067196e-02
  16   2.000000e+00   8.575741e-02   8.575741e-02
  17   2.000000e+00   9.562646e-02   9.562646e-02
  18   2.000000e+00   1.113459e-01   1.113459e-01
  19   2.000000e+00   1.213568e-01   1.213568e-01
  20   2.000000e+00   1.378064e-01   1.378064e-01
  21   2.000000e+00   1.484837e-01   1.484837e-01
  22   2.000000e+00   1.588093e-01   1.588093e-01
  23   2.000000e+00   1.639480e-01   1.639480e-01
  24   2.000000e+00   1.690017e-01   1.690017e-01
  25   2.000000e+00   1.788910e-01   1.788910e-01
  26   2.000000e+00   1.792091e-01   1.792091e-01
  27   2.000000e+00   2.022059e-01   2.022059e-01
  28   4.743139e-08   3.379177e-01   3.379177e-01
  29   2.470616e-10   3.589463e-01   3.589463e-01
  30   1.893241e-11   3.692201e-01   3.692201e-01
  31   1.498801e-14   3.977891e-01   3.977891e-01
  32   1.343370e-14   3.982139e-01   3.982139e-01
  33   5.551115e-16   4.112793e-01   4.112793e-01
  34   0.000000e+00   4.489655e-01   4.489655e-01
  35   0.000000e+00   4.624869e-01   4.624869e-01
  36   0.000000e+00   4.758423e-01   4.758423e-01
  37   0.000000e+00   5.225438e-01   5.225438e-01
  38   0.000000e+00   5.452928e-01   5.452928e-01
  39   0.000000e+00   6.184195e-01   6.184192e-01
  40   0.000000e+00   6.383762e-01   6.383758e-01
  41   0.000000e+00   6.627041e-01   6.626997e-01
  42   0.000000e+00   7.658169e-01   7.658070e-01
  43   0.000000e+00   8.019057e-01   8.019166e-01
  44   0.000000e+00   8.075292e-01   8.075288e-01
  45   0.000000e+00   8.182973e-01   8.183016e-01

state = 14   q_k = [ 0 0.25 0.125 ]   w = 0.0078125   spin = 0
band     filling       diag(Hsub)      epsilon   
-------------------------------------------------
   0   2.000000e+00  -1.793046e+00  -1.793046e+00
   1   2.000000e+00  -1.792325e+00  -1.792325e+00
   2   2.000000e+00  -9.230230e-01  -9.230230e-01
   3   2.000000e+00  -9.181529e-01  -9.181529e-01
   4   2.000000e+00  -9.176160e-01  -9.176160e-01
   5   2.000000e+00  -9.150972e-01  -9.150972e-01
   6   2.000000e+00  -9.128527e-01  -9.128527e-01
   7   2.000000e+00  -9.126563e-01  -9.126563e-01
   8   2.000000e+00  -4.233218e-01  -4.233218e-01
   9   2.000000e+00  -4.036002e-01  -4.036002e-01
  10   2.000000e+00  -3.802772e-01  -3.802772e-01
  11   2.000000e+00  -3.622731e-01  -3.622731e-01
  12   2.000000e+00  -3.585385e-01  -3.585385e-01
  13   2.000000e+00   4.360890e-02   4.360890e-02
  14   2.000000e+00   5.759589e-02   5.759589e-02
  15   2.000000e+00   7.248911e-02   7.248911e-02
  16   2.000000e+00   8.973004e-02   8.973004e-02
  17   2.000000e+00   9.489934e-02   9.489934e-02
  18   2.000000e+00   1.088353e-01   1.088353e-01
  19   2.000000e+00   1.219415e-01   1.219415e-01
  20   2.000000e+00   1.390992e-01   1.390992e-01
  21   2.000000e+00   1.465043e-01   1.465043e-01
  22   2.000000e+00   1.574036e-01   1.574036e-01
  23   2.000000e+00   1.645029e-01   1.645029e-01
  24   2.000000e+00   1.704137e-01   1.704137e-01
  25   2.000000e+00   1.777406e-01   1.777406e-01
  26   2.000000e+00   1.824033e-01   1.824033e-01
  27   2.000000e+00   2.004267e-01   2.004267e-01
  28   6.991230e-08   3.363658e-01   3.363658e-01
  29   1.737034e-10   3.603555e-01   3.603555e-01
  30   4.140244e-11   3.660915e-01   3.660915e-01
  31   2.642331e-14   3.955193e-01   3.955193e-01
  32   5.218048e-15   4.020166e-01   4.020166e-01
  33   3.330669e-16   4.128015e-01   4.128015e-01
  34   0.000000e+00   4.455264e-01   4.455264e-01
  35   0.000000e+00   4.557016e-01   4.557016e-01
  36   0.000000e+00   4.858089e-01   4.858089e-01
  37   0.000000e+00   5.240283e-01   5.240283e-01
  38   0.000000e+00   5.471150e-01   5.471150e-01
  39   0.000000e+00   6.048994e-01   6.048993e-01
  40   0.000000e+00   6.433007e-01   6.432994e-01
  41   0.000000e+00   6.694550e-01   6.694527e-01
  42   0.000000e+00   7.632016e-01   7.632010e-01
  43   0.000000e+00   8.094111e-01   8.092757e-01
  44   0.000000e+00   8.113920e-01   8.115303e-01
  45   0.000000e+00   8.291155e-01   8.291168e-01

	FillingsUpdate:  mu: +0.267688226  nElectrons: 56.000000
	SubspaceRotationAdjust: set factor to 1.29
ElecMinimize: Iter:  16  F: -195.252209748967971  |grad|_K:  8.804e-09  alpha:  4.089e-01  linmin:  2.524e-07  t[s]:    194.03
ElecMinimize: Converged (|Delta F|<1.000000e-08 for 2 iters).
Setting wave functions to eigenvectors of Hamiltonian

# Ionic positions in cartesian coordinates:
ion Nb   1.030194814788821   0.512360000000000   3.443855055404075 1
ion Nb   5.956042185211181   7.065851000000002   7.188414944595928 1
ion O   1.034867326609739   3.910832000000001   3.459474098857997 1
ion O   5.951369673390261   3.667379000000001   7.172795901142004 1
ion O   0.000000000000001   0.000000000000001   0.000000000000001 1
ion O   2.189311878933853   7.542588000000002   7.318684933635757 1
ion O   4.796925121066147   0.035623000000000   3.313585066364245 1

# Forces in Cartesian coordinates:
force Nb  -0.000338484122931   0.005568010993743  -0.001131524077669 1
force Nb   0.000338484122931  -0.005568010993743   0.001131524077669 1
force O  -0.000366784341490  -0.009404999917399  -0.001226129338400 1
force O   0.000366784341490   0.009404999917399   0.001226129338401 1
force O  -0.000000000000000  -0.000000000000000  -0.000000000000000 1
force O   0.000394133780024  -0.000812978681000   0.001317556221127 1
force O  -0.000394133780024   0.000812978681000  -0.001317556221127 1

# Energy components:
   Eewald =     -123.7193557743513566
       EH =       62.0942488737898515
     Eloc =     -196.1352211756558859
      Enl =       31.1351040915959558
      Exc =      -36.5509311396125653
 Exc_core =        3.7515919145536767
       KE =       64.1723538311243118
-------------------------------------
     Etot =     -195.2522093785559605
       TS =        0.0000003704119991
-------------------------------------
        F =     -195.2522097489679709

IonicMinimize: Iter:   0  F: -195.252209748967971  |grad|_K:  3.451e-03  t[s]:    195.52
IonicMinimize: None of the convergence criteria satisfied after 0 iterations.

#--- Lowdin population analysis ---
# oxidation-state Nb +1.017 +1.017
# oxidation-state O -0.327 -0.327 -0.369 -0.423 -0.423


Dumping 'Nb2O5.d_tot' ... done
Dumping 'Nb2O5.Ecomponents' ... done
End date and time: Wed Apr 17 17:13:35 2024  (Duration: 0-0:03:16.61)
Done!
