--------------------------------------------------------------------------
Initialization of PSM library failed.

  Error: PSM is in the finalized state
--------------------------------------------------------------------------

*************** JDFTx 1.7.0  ***************

Start date and time: Fri Dec  8 14:59:38 2023
Executable jdftx with command-line: -i /home/cam559/Valla_project/Nb/Nb2O5_vacancy.in
Running on hosts (process indices):  node3103.physics.cornell.edu (0-9)
Divided in process groups (process indices):  0 (0)  1 (1)  2 (2)  3 (3)  4 (4)  5 (5)  6 (6)  7 (7)  8 (8)  9 (9)
Resource initialization completed at t[s]:      0.00
Run totals: 10 processes, 30 threads, 0 GPUs


Input parsed successfully to the following command list (including defaults):

basis kpoint-dependent
coords-type Cartesian
core-overlap-check vector
coulomb-interaction Periodic
davidson-band-ratio 1.1
dump End Ecomponents
dump-name Nb2O5.$VAR
elec-cutoff 20 100
elec-eigen-algo Davidson
elec-ex-corr gga-PBE
elec-smearing Fermi 0.004
electronic-minimize  \
	dirUpdateScheme      FletcherReeves \
	linminMethod         DirUpdateRecommended \
	nIterations          100 \
	history              15 \
	knormThreshold       0 \
	energyDiffThreshold  1e-08 \
	nEnergyDiff          2 \
	alphaTstart          1 \
	alphaTmin            1e-10 \
	updateTestStepSize   yes \
	alphaTreduceFactor   0.1 \
	alphaTincreaseFactor 3 \
	nAlphaAdjustMax      3 \
	wolfeEnergy          0.0001 \
	wolfeGradient        0.9 \
	fdTest               no
exchange-regularization WignerSeitzTruncated
fluid None
fluid-ex-corr lda-TF lda-PZ
fluid-gummel-loop 10 1.000000e-05
fluid-minimize  \
	dirUpdateScheme      PolakRibiere \
	linminMethod         DirUpdateRecommended \
	nIterations          100 \
	history              15 \
	knormThreshold       0 \
	energyDiffThreshold  0 \
	nEnergyDiff          2 \
	alphaTstart          1 \
	alphaTmin            1e-10 \
	updateTestStepSize   yes \
	alphaTreduceFactor   0.1 \
	alphaTincreaseFactor 3 \
	nAlphaAdjustMax      3 \
	wolfeEnergy          0.0001 \
	wolfeGradient        0.9 \
	fdTest               no
fluid-solvent H2O 55.338 ScalarEOS \
	epsBulk 78.4 \
	pMol 0.92466 \
	epsInf 1.77 \
	Pvap 1.06736e-10 \
	sigmaBulk 4.62e-05 \
	Rvdw 2.61727 \
	Res 1.42 \
	tauNuc 343133 \
	poleEl 15 7 1
forces-output-coords Positions
initial-state Nb2O5.$VAR
ion Nb   1.030195000000000   0.512360000000000   3.443855000000000 1
ion Nb   5.956042000000001   7.065851000000001   7.188415000000001 1
ion Nb   1.059372000000000   0.497167000000000  16.263527000000000 1
ion Nb   5.985219000000000   7.050658000000002  20.008085999999999 1
ion Nb   1.001018000000000   8.105765000000000   3.346317000000001 1
ion Nb   5.926865000000000  14.659255000000002   7.090877000000001 1
ion Nb   1.030195000000000   8.090572000000000  16.165989000000003 1
ion Nb   5.956043000000000  14.644062000000002  19.910548000000002 1
ion Nb   8.016431000000001   0.512360000000000   1.353992000000000 1
ion Nb  12.942278999999999   7.065851000000001   5.098551000000000 1
ion Nb   8.045609000000001   0.497167000000000  14.173662999999999 1
ion Nb  12.971456000000002   7.050658000000001  17.918223000000001 1
ion Nb   7.987255000000002   8.105765000000000   1.256454000000000 1
ion Nb  12.913102000000000  14.659255000000002   5.001013000000002 1
ion Nb   8.016432000000002   8.090572000000000  14.076125000000001 1
ion Nb  12.942278999999999  14.644062000000002  17.820685000000005 1
ion O   1.034871000000000   3.910832000000001   3.459473000000000 1
ion O   5.951366000000000   3.667379000000000   7.172796999999999 1
ion O   0.000000000000000   0.000000000000000   0.000000000000000 1
ion O   2.189315000000000   7.542588000000001   7.318684000000000 1
ion O   4.796922000000000   0.035623000000000   3.313586000000000 1
ion O   1.064048000000000   3.895639000000000  16.279143999999999 1
ion O   5.980543000000000   3.652186000000000  19.992467999999999 1
ion O   0.029177000000000  -0.015193000000000  12.819671000000000 1
ion O   2.218493000000000   7.527395000000001  20.138355000000001 1
ion O   4.826099000000000   0.020430000000000  16.133258000000001 1
ion O   1.005694000000000  11.504236000000002   3.361935000000001 1
ion O   5.922188999999999  11.260783000000002   7.075259000000000 1
ion O  -0.029177000000000   7.593404000000000  -0.097538000000000 1
ion O   2.160139000000000  15.135993000000001   7.221146000000000 1
ion O   4.767745000000001   7.629027000000002   3.216048000000000 1
ion O   1.034871000000000  11.489044000000000  16.181606000000002 1
ion O   5.951367000000002  11.245590000000002  19.894930000000002 1
ion O  -0.000000000000000   7.578211000000000  12.722132999999999 1
ion O   2.189316000000000  15.120800000000001  20.040817000000001 1
ion O   4.796922000000001   7.613834000000001  16.035720000000001 1
ion O   8.021107000000002   3.910832000000000   1.369610000000000 1
ion O  12.937602999999999   3.667379000000001   5.082934000000000 1
ion O   6.986236999999999   0.000000000000000  -2.089863000000000 1
ion O   9.175552000000001   7.542588000000001   5.228820000000001 1
ion O  11.783158000000002   0.035623000000000   1.223722999999999 1
ion O   8.050284999999999   3.895639000000001  14.189281000000001 1
ion O  12.966780000000002   3.652186000000000  17.902605000000005 1
ion O   7.015414000000001  -0.015193000000000  10.729808000000000 1
ion O   9.204729000000000   7.527395000000001  18.048492000000000 1
ion O  11.812335000000001   0.020430000000000  14.043394000000001 1
ion O   7.991931000000000  11.504236000000002   1.272072000000000 1
ion O  12.908426000000002  11.260783000000000   4.985395999999999 1
ion O   6.957060000000001   7.593404000000000  -2.187401000000000 1
ion O   9.146375000000003  15.135993000000001   5.131282000000001 1
ion O  11.753981000000001   7.629027000000001   1.126185000000000 1
ion O   8.021108000000002  11.489044000000000  14.091743000000001 1
ion O  12.937602999999999  11.245590000000002  17.805067000000001 1
ion O   6.986237000000000   7.578211000000000  10.632270000000002 1
ion O   9.175552000000001  15.120800000000001  17.950953999999996 1
ion-species GBRV/$ID_pbe.uspp
ion-width 0
ionic-minimize  \
	dirUpdateScheme      L-BFGS \
	linminMethod         DirUpdateRecommended \
	nIterations          30 \
	history              15 \
	knormThreshold       0.0001 \
	energyDiffThreshold  1e-05 \
	nEnergyDiff          2 \
	alphaTstart          1 \
	alphaTmin            1e-10 \
	updateTestStepSize   yes \
	alphaTreduceFactor   0.1 \
	alphaTincreaseFactor 3 \
	nAlphaAdjustMax      3 \
	wolfeEnergy          0.0001 \
	wolfeGradient        0.9 \
	fdTest               no
kpoint   0.000000000000   0.000000000000   0.000000000000  1.00000000000000
kpoint-folding 3 3 3 
latt-move-scale 1 1 1
latt-scale 1 1 1 
lattice  \
	  13.972473000000001   -0.058354000000000    0.058355000000000  \
	   0.000000000000000   15.186809000000000   -0.030386000000000  \
	  -4.179727000000000   -0.195076000000000   25.639343000000000 
lattice-minimize  \
	dirUpdateScheme      L-BFGS \
	linminMethod         DirUpdateRecommended \
	nIterations          0 \
	history              15 \
	knormThreshold       0 \
	energyDiffThreshold  1e-06 \
	nEnergyDiff          2 \
	alphaTstart          1 \
	alphaTmin            1e-10 \
	updateTestStepSize   yes \
	alphaTreduceFactor   0.1 \
	alphaTincreaseFactor 3 \
	nAlphaAdjustMax      3 \
	wolfeEnergy          0.0001 \
	wolfeGradient        0.9 \
	fdTest               no
lcao-params -1 1e-06 0.004
pcm-variant GLSSA13
spintype no-spin
subspace-rotation-factor 1 yes
symmetries automatic
symmetry-threshold 0.0001



---------- Setting up symmetries ----------

Found 4 point-group symmetries of the bravais lattice
Found 2 space-group symmetries with basis
Applied RMS atom displacement 2.74852e-06 bohrs to make symmetries exact.

---------- Initializing the Grid ----------
R = 
[      13.9725    -0.058354     0.058355  ]
[            0      15.1868    -0.030386  ]
[     -4.17973    -0.195076      25.6393  ]
unit cell volume = 5444.21
G =
[   0.449378 0.00171358 -0.00102075  ]
[ 0.000146577   0.413733 0.000489995  ]
[  0.0732587 0.00342722   0.244898  ]
Minimum fftbox size, Smin = [  68  72  116  ]
Chosen fftbox size, S = [  120  72  120  ]

---------- Initializing tighter grid for wavefunction operations ----------
R = 
[      13.9725    -0.058354     0.058355  ]
[            0      15.1868    -0.030386  ]
[     -4.17973    -0.195076      25.6393  ]
unit cell volume = 5444.21
G =
[   0.449378 0.00171358 -0.00102075  ]
[ 0.000146577   0.413733 0.000489995  ]
[  0.0732587 0.00342722   0.244898  ]
Minimum fftbox size, Smin = [  60  64  104  ]
Chosen fftbox size, S = [  108  64  108  ]

---------- Exchange Correlation functional ----------
Initalized PBE GGA exchange.
Initalized PBE GGA correlation.

---------- Setting up pseudopotentials ----------
Width of ionic core gaussian charges (only for fluid interactions / plotting) set to 0

Reading pseudopotential file '/home/cam559/JDFTx/build/pseudopotentials/GBRV/nb_pbe.uspp':
  Title: Nb.  Created by USPP 7.3.6 on 14-9-2013
  Reference state energy: -58.592548.  13 valence electrons in orbitals:
    |400>  occupation: 2  eigenvalue: -2.145853
    |410>  occupation: 6  eigenvalue: -1.268635
    |420>  occupation: 4  eigenvalue: -0.111734
    |500>  occupation: 1  eigenvalue: -0.146332
    |510>  occupation: 0  eigenvalue: -0.040820
  lMax: 2  lLocal: 3  QijEcut: 5
  6 projectors sampled on a log grid with 627 points:
    l: 0  eig: -2.145854  rCut: 1.8
    l: 0  eig: -0.146334  rCut: 1.8
    l: 1  eig: -1.268634  rCut: 2
    l: 1  eig: 0.150000  rCut: 2
    l: 2  eig: -0.040820  rCut: 2.2
    l: 2  eig: 0.150000  rCut: 2.2
  Partial core density with radius 1.2
  Transforming core density to a uniform radial grid of dG=0.02 with 1896 points.
  Transforming local potential to a uniform radial grid of dG=0.02 with 1896 points.
  Transforming nonlocal projectors to a uniform radial grid of dG=0.02 with 432 points.
  Transforming density augmentations to a uniform radial grid of dG=0.02 with 1896 points.
  Transforming atomic orbitals to a uniform radial grid of dG=0.02 with 432 points.
  Core radius for overlap checks: 2.20 bohrs.

Reading pseudopotential file '/home/cam559/JDFTx/build/pseudopotentials/GBRV/o_pbe.uspp':
  Title: O.  Created by USPP 7.3.6 on 3-2-2014
  Reference state energy: -15.894388.  6 valence electrons in orbitals:
    |200>  occupation: 2  eigenvalue: -0.878823
    |210>  occupation: 4  eigenvalue: -0.332131
  lMax: 2  lLocal: 2  QijEcut: 6
  5 projectors sampled on a log grid with 511 points:
    l: 0  eig: -0.878823  rCut: 1.25
    l: 0  eig: 0.000000  rCut: 1.25
    l: 1  eig: -0.332132  rCut: 1.25
    l: 1  eig: 0.000000  rCut: 1.25
    l: 2  eig: 1.000000  rCut: 1.25
  Partial core density with radius 0.7
  Transforming core density to a uniform radial grid of dG=0.02 with 1896 points.
  Transforming local potential to a uniform radial grid of dG=0.02 with 1896 points.
  Transforming nonlocal projectors to a uniform radial grid of dG=0.02 with 432 points.
  Transforming density augmentations to a uniform radial grid of dG=0.02 with 1896 points.
  Transforming atomic orbitals to a uniform radial grid of dG=0.02 with 432 points.
  Core radius for overlap checks: 1.25 bohrs.

Initialized 2 species with 55 total atoms.

Folded 1 k-points by 3x3x3 to 27 k-points.

---------- Setting up k-points, bands, fillings ----------
Adding inversion symmetry to k-mesh for non-inversion-symmetric unit cell.
Reduced to 10 k-points under symmetry. 
Computing the number of bands and number of electrons
Calculating initial fillings.
nElectrons: 442.000000   nBands: 364   nStates: 10

----- Setting up reduced wavefunction bases (one per k-point) -----
average nbasis = 23255.444 , ideal nbasis = 23258.092

---------- Setting up ewald sum ----------
Optimum gaussian width for ewald sums = 3.598825 bohr.
Real space sum over 567 unit cells with max indices [  4  4  3  ]
Reciprocal space sum over 7225 terms with max indices [  8  8  12  ]

---------- Allocating electronic variables ----------
Initializing wave functions:  linear combination of atomic orbitals
Nb pseudo-atom occupations:   s ( 2 2 )  p ( 6 0 )  d ( 3 )
O pseudo-atom occupations:   s ( 2 )  p ( 4 )
	FillingsUpdate:  mu: +0.390196027  nElectrons: 442.000000
LCAOMinimize: Iter:   0  F: -1538.5952116930727698  |grad|_K:  4.918e-03  alpha:  1.000e+00
	FillingsUpdate:  mu: +0.320307989  nElectrons: 442.000000
LCAOMinimize: Iter:   1  F: -1542.4221539831057726  |grad|_K:  2.974e-03  alpha:  1.364e-01  linmin: -4.121e-01  cgtest:  8.794e-01  t[s]:    230.28
LCAOMinimize: Encountered beta<0, resetting CG.
	FillingsUpdate:  mu: +0.308804044  nElectrons: 442.000000
LCAOMinimize: Iter:   2  F: -1543.8456060695327778  |grad|_K:  1.272e-03  alpha:  3.084e-01  linmin:  3.493e-01  cgtest: -7.074e-01  t[s]:    298.39
LCAOMinimize: 	Bad step direction: g.d > 0.
LCAOMinimize: 	Undoing step.
LCAOMinimize: 	Step failed: resetting search direction.
	FillingsUpdate:  mu: +0.308804044  nElectrons: 442.000000
LCAOMinimize: Iter:   3  F: -1543.8456060695323231  |grad|_K:  1.272e-03  alpha:  0.000e+00
	FillingsUpdate:  mu: +0.278676140  nElectrons: 442.000000
LCAOMinimize: Iter:   4  F: -1544.0406939954580139  |grad|_K:  1.780e-04  alpha:  1.933e-01  linmin:  2.254e-02  cgtest: -5.438e-02  t[s]:    408.58
	FillingsUpdate:  mu: +0.284204922  nElectrons: 442.000000
LCAOMinimize: Iter:   5  F: -1544.0461576458460513  |grad|_K:  9.970e-05  alpha:  2.591e-01  linmin: -1.570e-02  cgtest:  4.331e-02  t[s]:    477.68
	FillingsUpdate:  mu: +0.278536429  nElectrons: 442.000000
LCAOMinimize: Iter:   6  F: -1544.0482933569464876  |grad|_K:  7.098e-05  alpha:  3.139e-01  linmin:  2.338e-04  cgtest: -4.808e-02  t[s]:    547.07
	FillingsUpdate:  mu: +0.279743725  nElectrons: 442.000000
LCAOMinimize: Iter:   7  F: -1544.0491703901805067  |grad|_K:  1.471e-05  alpha:  2.616e-01  linmin: -5.691e-04  cgtest:  9.662e-02  t[s]:    615.45
	FillingsUpdate:  mu: +0.279776450  nElectrons: 442.000000
LCAOMinimize: Iter:   8  F: -1544.0491971712174291  |grad|_K:  5.209e-06  alpha:  1.858e-01  linmin: -8.552e-05  cgtest: -1.560e-03  t[s]:    685.56
	FillingsUpdate:  mu: +0.279707763  nElectrons: 442.000000
LCAOMinimize: Iter:   9  F: -1544.0492038977847642  |grad|_K:  3.332e-06  alpha:  3.723e-01  linmin:  2.264e-04  cgtest: -9.235e-04  t[s]:    752.57
	FillingsUpdate:  mu: +0.279677853  nElectrons: 442.000000
LCAOMinimize: Iter:  10  F: -1544.0492056989394314  |grad|_K:  1.121e-06  alpha:  2.436e-01  linmin: -7.432e-06  cgtest:  3.760e-03  t[s]:    820.42
	FillingsUpdate:  mu: +0.279732711  nElectrons: 442.000000
LCAOMinimize: Iter:  11  F: -1544.0492059156651976  |grad|_K:  6.825e-07  alpha:  2.587e-01  linmin: -2.528e-05  cgtest: -1.491e-05  t[s]:    889.45
	FillingsUpdate:  mu: +0.279709323  nElectrons: 442.000000
LCAOMinimize: Iter:  12  F: -1544.0492060320932524  |grad|_K:  3.016e-07  alpha:  3.752e-01  linmin:  6.131e-05  cgtest: -4.338e-04  t[s]:    957.61
LCAOMinimize: Converged (|Delta F|<1.000000e-06 for 2 iters).


---- Citations for features of the code used in this run ----

   Software package:
      R. Sundararaman, K. Letchworth-Weaver, K.A. Schwarz, D. Gunceler, Y. Ozhabes and T.A. Arias, 'JDFTx: software for joint density-functional theory', SoftwareX 6, 278 (2017)

   gga-PBE exchange-correlation functional:
      J.P. Perdew, K. Burke and M. Ernzerhof, Phys. Rev. Lett. 77, 3865 (1996)

   Pseudopotentials:
      KF Garrity, JW Bennett, KM Rabe and D Vanderbilt, Comput. Mater. Sci. 81, 446 (2014)

   Total energy minimization with Auxiliary Hamiltonian:
      C. Freysoldt, S. Boeck, and J. Neugebauer, Phys. Rev. B 79, 241103(R) (2009)

This list may not be complete. Please suggest additional citations or
report any other bugs at https://github.com/shankar1729/jdftx/issues

Initialization completed successfully at t[s]:   1011.16


-------- Electronic minimization -----------
	FillingsUpdate:  mu: +0.279709323  nElectrons: 442.000000
ElecMinimize: Iter:   0  F: -1544.049206032093480  |grad|_K:  1.687e-04  alpha:  1.000e+00
	FillingsUpdate:  mu: +0.306552138  nElectrons: 442.000000
	SubspaceRotationAdjust: set factor to 0.805
ElecMinimize: Iter:   1  F: -1545.372745505144621  |grad|_K:  1.092e-04  alpha:  5.415e-01  linmin: -2.480e-04  t[s]:   1377.88
	FillingsUpdate:  mu: +0.290653355  nElectrons: 442.000000
	SubspaceRotationAdjust: set factor to 0.479
ElecMinimize: Iter:   2  F: -1545.691115335467885  |grad|_K:  4.484e-05  alpha:  3.326e-01  linmin:  2.849e-04  t[s]:   1635.15
	FillingsUpdate:  mu: +0.291016141  nElectrons: 442.000000
	SubspaceRotationAdjust: set factor to 0.439
ElecMinimize: Iter:   3  F: -1545.780726345093171  |grad|_K:  2.169e-05  alpha:  5.302e-01  linmin:  3.496e-04  t[s]:   1884.22
	FillingsUpdate:  mu: +0.293278323  nElectrons: 442.000000
	SubspaceRotationAdjust: set factor to 0.499
ElecMinimize: Iter:   4  F: -1545.799379557819293  |grad|_K:  1.033e-05  alpha:  4.715e-01  linmin:  7.540e-05  t[s]:   2134.48
	FillingsUpdate:  mu: +0.292586819  nElectrons: 442.000000
	SubspaceRotationAdjust: set factor to 0.607
ElecMinimize: Iter:   5  F: -1545.804330689596327  |grad|_K:  5.542e-06  alpha:  5.455e-01  linmin:  4.849e-05  t[s]:   2386.91
	FillingsUpdate:  mu: +0.293030988  nElectrons: 442.000000
	SubspaceRotationAdjust: set factor to 0.722
ElecMinimize: Iter:   6  F: -1545.805671359287771  |grad|_K:  3.683e-06  alpha:  5.133e-01  linmin:  2.773e-05  t[s]:   2632.84
	FillingsUpdate:  mu: +0.293256666  nElectrons: 442.000000
	SubspaceRotationAdjust: set factor to 0.897
ElecMinimize: Iter:   7  F: -1545.806208634801578  |grad|_K:  2.030e-06  alpha:  4.663e-01  linmin:  1.745e-05  t[s]:   2876.36
	FillingsUpdate:  mu: +0.293147747  nElectrons: 442.000000
	SubspaceRotationAdjust: set factor to 0.977
ElecMinimize: Iter:   8  F: -1545.806367344070850  |grad|_K:  1.159e-06  alpha:  4.532e-01  linmin:  4.232e-06  t[s]:   3119.70
	FillingsUpdate:  mu: +0.293213893  nElectrons: 442.000000
	SubspaceRotationAdjust: set factor to 0.805
ElecMinimize: Iter:   9  F: -1545.806411017116488  |grad|_K:  5.998e-07  alpha:  3.817e-01  linmin:  1.767e-06  t[s]:   3367.38
	FillingsUpdate:  mu: +0.293114433  nElectrons: 442.000000
	SubspaceRotationAdjust: set factor to 0.624
ElecMinimize: Iter:  10  F: -1545.806423501919880  |grad|_K:  3.461e-07  alpha:  4.071e-01  linmin:  6.165e-07  t[s]:   3612.47
	FillingsUpdate:  mu: +0.293194192  nElectrons: 442.000000
	SubspaceRotationAdjust: set factor to 0.569
ElecMinimize: Iter:  11  F: -1545.806427686594134  |grad|_K:  2.206e-07  alpha:  4.097e-01  linmin:  1.341e-06  t[s]:   3862.68
	FillingsUpdate:  mu: +0.293166686  nElectrons: 442.000000
	SubspaceRotationAdjust: set factor to 0.68
ElecMinimize: Iter:  12  F: -1545.806429395933264  |grad|_K:  1.118e-07  alpha:  4.123e-01  linmin:  2.598e-06  t[s]:   4112.42
	FillingsUpdate:  mu: +0.293159239  nElectrons: 442.000000
	SubspaceRotationAdjust: set factor to 0.862
ElecMinimize: Iter:  13  F: -1545.806429983315184  |grad|_K:  7.595e-08  alpha:  5.530e-01  linmin:  2.547e-06  t[s]:   4361.69
	FillingsUpdate:  mu: +0.293167837  nElectrons: 442.000000
	SubspaceRotationAdjust: set factor to 0.901
ElecMinimize: Iter:  14  F: -1545.806430181195765  |grad|_K:  5.053e-08  alpha:  4.040e-01  linmin:  5.799e-07  t[s]:   4610.11
	FillingsUpdate:  mu: +0.293157258  nElectrons: 442.000000
	SubspaceRotationAdjust: set factor to 0.833
ElecMinimize: Iter:  15  F: -1545.806430265785139  |grad|_K:  3.024e-08  alpha:  3.892e-01  linmin:  3.796e-07  t[s]:   4866.60
	FillingsUpdate:  mu: +0.293165347  nElectrons: 442.000000
	SubspaceRotationAdjust: set factor to 0.703
ElecMinimize: Iter:  16  F: -1545.806430297314137  |grad|_K:  1.769e-08  alpha:  4.053e-01  linmin:  1.625e-07  t[s]:   5114.13
	FillingsUpdate:  mu: +0.293161464  nElectrons: 442.000000
	SubspaceRotationAdjust: set factor to 0.712
ElecMinimize: Iter:  17  F: -1545.806430307073924  |grad|_K:  1.034e-08  alpha:  3.665e-01  linmin:  6.621e-08  t[s]:   5363.84
	FillingsUpdate:  mu: +0.293161967  nElectrons: 442.000000
	SubspaceRotationAdjust: set factor to 0.872
ElecMinimize: Iter:  18  F: -1545.806430311629356  |grad|_K:  6.503e-09  alpha:  5.004e-01  linmin:  3.997e-07  t[s]:   5606.15
ElecMinimize: Converged (|Delta F|<1.000000e-08 for 2 iters).
Setting wave functions to eigenvectors of Hamiltonian

# Ionic positions in cartesian coordinates:
ion Nb   1.030194916822038   0.512360000000000   3.443855024881864 1
ion Nb   5.956041846770534   7.065851000000001   7.188414870622104 1
ion Nb   1.059372166822038   0.497167000000000  16.263526774881864 1
ion Nb   5.985219514635588   7.050658000000002  20.008085846051856 1
ion Nb   1.001017916822070   8.105765000000000   3.346317024881855 1
ion Nb   5.926864846770503  14.659255000000002   7.090876870622113 1
ion Nb   1.030195166822069   8.090572000000002  16.165988774881853 1
ion Nb   5.956042596770502  14.644062000000002  19.910548120622114 1
ion Nb   8.016431513039647   0.512360000000000   1.353991846529268 1
ion Nb  12.942278942988139   7.065851000000001   5.098551192269509 1
ion Nb   8.045609263039648   0.497167000000000  14.173663096529269 1
ion Nb  12.971456192988141   7.050658000000001  17.918222942269509 1
ion Nb   7.987254595174623   8.105765000000000   1.256454121099505 1
ion Nb  12.913101942988110  14.659255000000002   5.001013192269518 1
ion Nb   8.016432263039679   8.090572000000002  14.076125096529259 1
ion Nb  12.942279192988108  14.644062000000002  17.820684942269519 1
ion O   1.034867429452614   3.910832000000001   3.459474068093910 1
ion O   5.951369608710118   3.667379000000001   7.172796245275113 1
ion O   0.000000054905105   0.000000000000000  -0.000000016424319 1
ion O   2.189312035125271   7.542588000000001   7.318684886912930 1
ion O   4.796925420902515   0.035623000000000   3.313585151885847 1
ion O   1.064044679452614   3.895639000000001  16.279145318093907 1
ion O   5.980547002005011   3.652186000000000  19.992466802839811 1
ion O   0.029177304905105  -0.015193000000000  12.819671233575681 1
ion O   2.218489785125270   7.527395000000001  20.138356136912929 1
ion O   4.826102670902516   0.020430000000000  16.133256901885847 1
ion O   1.005690429452583  11.504236000000002   3.361936068093920 1
ion O   5.922192608710086  11.260783000000000   7.075258245275123 1
ion O  -0.029176945094927   7.593404000000000  -0.097538016424309 1
ion O   2.160135117260248  15.135993000000001   7.221147161483166 1
ion O   4.767748420902484   7.629027000000002   3.216047151885856 1
ion O   1.034867679452645  11.489044000000000  16.181607318093899 1
ion O   5.951370084139927  11.245590000000002  19.894929077410069 1
ion O   0.000000304905074   7.578211000000000  12.722133233575692 1
ion O   2.189312785125302  15.120800000000001  20.040818136912918 1
ion O   4.796925670902485   7.613834000000001  16.035718901885858 1
ion O   8.021104025670223   3.910832000000000   1.369610889741313 1
ion O  12.937606430357564   3.667379000000001   5.082932649057463 1
ion O   6.986236733257659   0.000000000000000  -2.089862920206669 1
ion O   9.175548438907665   7.542588000000001   5.228821065265524 1
ion O  11.783161324684910   0.035623000000000   1.223721830238442 1
ion O   8.050281501100059   3.895639000000001  14.189281721876258 1
ion O  12.966783680357567   3.652186000000000  17.902603899057464 1
ion O   7.015414126552552  -0.015193000000000  10.729807637358030 1
ion O   9.204725688907665   7.527395000000001  18.048492815265526 1
ion O  11.812338992549963   0.020430000000000  14.043392805668198 1
ion O   7.991927107805137  11.504236000000002   1.272073164311569 1
ion O  12.908429430357534  11.260783000000000   4.985394649057472 1
ion O   6.957059733257628   7.593404000000000  -2.187400920206659 1
ion O   9.146371438907696  15.135993000000001   5.131283065265515 1
ion O  11.753984324684875   7.629027000000002   1.126183830238452 1
ion O   8.021104501100092  11.489044000000000  14.091743721876250 1
ion O  12.937606680357534  11.245590000000002  17.805065899057475 1
ion O   6.986237126552520   7.578211000000000  10.632269637358043 1
ion O   9.175548688907696  15.120800000000001  17.950954815265515 1

# Forces in Cartesian coordinates:
force Nb  -0.000424609037169   0.005249332912750  -0.001419432012522 1
force Nb   0.000196975528703  -0.005792585820776  -0.001166691304310 1
force Nb  -0.000201137605217   0.002200796577460  -0.001715453737838 1
force Nb  -0.001007992818337  -0.005479031969725  -0.003369634533165 1
force Nb  -0.000906862188488   0.004949158261785  -0.003031563411527 1
force Nb  -0.000369037066142  -0.005592642423902  -0.000672309617566 1
force Nb   0.015872256876204   0.004980902669786  -0.003333188458969 1
force Nb   0.000878723041890  -0.005421886736559   0.002937496630113 1
force Nb  -0.000234794231124   0.005554931339949  -0.000784897208581 1
force Nb  -0.000805295816925  -0.005792585752382  -0.000866871845277 1
force Nb  -0.000773928357135   0.002200796616547  -0.001544109107336 1
force Nb   0.001554345288851  -0.006226720251476   0.005196044521843 1
force Nb  -0.000093018917490   0.005566125892837  -0.000310954354942 1
force Nb  -0.000060777046925  -0.005592642444938  -0.000764522522393 1
force Nb  -0.015095311710750   0.004980904782983   0.005930450276976 1
force Nb   0.000802824874796  -0.004484724417594   0.002683775492232 1
force O  -0.000319411100411  -0.009374970649358  -0.001067764228714 1
force O   0.000421058405430   0.008995096009494   0.001448449200760 1
force O  -0.000041000526584  -0.000083224451283  -0.000137061284310 1
force O   0.000769116313962  -0.000764455213284   0.002571090631204 1
force O  -0.000085023371744   0.000792902734446  -0.001110750424179 1
force O  -0.005919901159549  -0.000949739517784   0.001126518430315 1
force O   0.000275886425113   0.009495155002602   0.000922264929255 1
force O   0.000624557013192   0.000363946991678   0.002184093904755 1
force O  -0.011387067021559  -0.000968928878478  -0.002579039703332 1
force O  -0.000689975087720   0.000796301555401  -0.002306528221542 1
force O  -0.000342116573867  -0.008648615401323  -0.001143666701489 1
force O   0.000455520763123   0.009596167572692   0.001461544186969 1
force O   0.001254876029424   0.003876708810628   0.004194944176851 1
force O   0.000530618399062  -0.000877900320976   0.001773812321761 1
force O   0.000131660278933   0.000776925682762  -0.001209360400339 1
force O  -0.007393619622913  -0.013508966366974   0.002434947627141 1
force O   0.000280778050599   0.009045072455423   0.000938617218539 1
force O  -0.002870623050136  -0.000148447248101   0.004932545690958 1
force O   0.000602480058283  -0.000717032309414   0.000324914049659 1
force O   0.000606602294746  -0.000289291438696   0.002027820043050 1
force O  -0.000386327414905  -0.009480935245806  -0.001291459794844 1
force O   0.000443510920046   0.008995096007962   0.001441732755343 1
force O  -0.000294734367619  -0.000124271096655  -0.000985272003105 1
force O   0.000186229768585  -0.000784948530851   0.000622550327654 1
force O  -0.000538901442835   0.000792902765418  -0.000974977334053 1
force O   0.005566056523131  -0.000949740301575  -0.002309391050597 1
force O  -0.000898997402161   0.009219412200250  -0.003005272097619 1
force O   0.000677413301270   0.000363946988072   0.002168282474281 1
force O   0.008100259624815  -0.000968930208275  -0.008408478765507 1
force O  -0.000601020625095   0.000796332067007  -0.002009160994624 1
force O  -0.000379209092552  -0.009167688166926  -0.001267663846715 1
force O   0.000421900677285   0.009596167574987   0.001471601299738 1
force O  -0.000325266308949  -0.000184592368126  -0.001087337694446 1
force O   0.000485348726965  -0.000869869923458   0.001622479645946 1
force O  -0.000774141224543   0.000776925744573  -0.000938398930725 1
force O   0.007516198867320  -0.013508967384406  -0.002025175605466 1
force O  -0.000225001328177   0.007646038405347  -0.000752160364281 1
force O   0.005107726680932  -0.000148447792536   0.002545902083143 1
force O  -0.000325087263320  -0.000717032246118   0.000602386546296 1

# Energy components:
   Eewald =     -974.9072751324514456
       EH =      493.6502267856341746
     Eloc =    -1558.5548784525410611
      Enl =      246.9057773194986964
      Exc =     -288.6604357581614977
 Exc_core =       29.9476893389797070
       KE =      505.8142473884287256
-------------------------------------
     Etot =    -1545.8046485106128785
       TS =        0.0017818010164745
-------------------------------------
        F =    -1545.8064303116293559

IonicMinimize: Iter:   0  F: -1545.806430311629356  |grad|_K:  4.296e-03  t[s]:   5665.12

#--- Lowdin population analysis ---
# oxidation-state Nb +1.015 +1.012 +1.015 +1.013 +1.014 +1.016 +0.840 +1.015 +1.016 +1.012 +1.015 +0.861 +1.015 +1.016 +0.840 +1.011
# oxidation-state O -0.327 -0.328 -0.368 -0.423 -0.423 -0.329 -0.327 -0.369 -0.412 -0.423 -0.328 -0.327 -0.365 -0.423 -0.423 -0.317 -0.328 -0.365 -0.424 -0.383 -0.327 -0.328 -0.368 -0.424 -0.423 -0.329 -0.327 -0.369 -0.412 -0.422 -0.327 -0.327 -0.369 -0.423 -0.423 -0.317 -0.326 -0.365 -0.424


-------- Electronic minimization -----------
	FillingsUpdate:  mu: +0.295349398  nElectrons: 442.000000
ElecMinimize: Iter:   0  F: -1545.808028751257098  |grad|_K:  3.841e-06  alpha:  1.000e+00
	FillingsUpdate:  mu: +0.293696077  nElectrons: 442.000000
	SubspaceRotationAdjust: set factor to 0.623
ElecMinimize: Iter:   1  F: -1545.808658154276145  |grad|_K:  2.595e-06  alpha:  4.995e-01  linmin: -1.600e-05  t[s]:   6122.06
	FillingsUpdate:  mu: +0.294961682  nElectrons: 442.000000
	SubspaceRotationAdjust: set factor to 0.607
ElecMinimize: Iter:   2  F: -1545.808872293276636  |grad|_K:  1.224e-06  alpha:  3.727e-01  linmin: -8.161e-06  t[s]:   6374.78
	FillingsUpdate:  mu: +0.294634436  nElectrons: 442.000000
	SubspaceRotationAdjust: set factor to 0.563
ElecMinimize: Iter:   3  F: -1545.808928025466912  |grad|_K:  5.685e-07  alpha:  4.357e-01  linmin: -7.538e-06  t[s]:   6621.87
	FillingsUpdate:  mu: +0.294690678  nElectrons: 442.000000
	SubspaceRotationAdjust: set factor to 0.483
ElecMinimize: Iter:   4  F: -1545.808938440893144  |grad|_K:  2.456e-07  alpha:  3.775e-01  linmin: -5.134e-07  t[s]:   6866.76
	FillingsUpdate:  mu: +0.294671433  nElectrons: 442.000000
	SubspaceRotationAdjust: set factor to 0.609
ElecMinimize: Iter:   5  F: -1545.808940633579823  |grad|_K:  9.956e-08  alpha:  4.261e-01  linmin:  6.069e-07  t[s]:   7114.22
	FillingsUpdate:  mu: +0.294667122  nElectrons: 442.000000
	SubspaceRotationAdjust: set factor to 0.684
ElecMinimize: Iter:   6  F: -1545.808941043632558  |grad|_K:  5.437e-08  alpha:  4.849e-01  linmin:  5.822e-07  t[s]:   7365.24
	FillingsUpdate:  mu: +0.294680267  nElectrons: 442.000000
	SubspaceRotationAdjust: set factor to 0.682
ElecMinimize: Iter:   7  F: -1545.808941158094967  |grad|_K:  3.185e-08  alpha:  4.541e-01  linmin:  3.978e-07  t[s]:   7611.07
	FillingsUpdate:  mu: +0.294667536  nElectrons: 442.000000
	SubspaceRotationAdjust: set factor to 0.57
ElecMinimize: Iter:   8  F: -1545.808941197794184  |grad|_K:  1.732e-08  alpha:  4.589e-01  linmin:  3.095e-07  t[s]:   7859.11
	FillingsUpdate:  mu: +0.294673857  nElectrons: 442.000000
	SubspaceRotationAdjust: set factor to 0.44
ElecMinimize: Iter:   9  F: -1545.808941207817270  |grad|_K:  8.286e-09  alpha:  3.918e-01  linmin:  3.188e-08  t[s]:   8108.98
	FillingsUpdate:  mu: +0.294673100  nElectrons: 442.000000
	SubspaceRotationAdjust: set factor to 0.448
ElecMinimize: Iter:  10  F: -1545.808941210374542  |grad|_K:  3.597e-09  alpha:  4.368e-01  linmin:  2.975e-07  t[s]:   8354.43
	FillingsUpdate:  mu: +0.294672410  nElectrons: 442.000000
	SubspaceRotationAdjust: set factor to 0.506
ElecMinimize: Iter:  11  F: -1545.808941210927969  |grad|_K:  1.926e-09  alpha:  5.012e-01  linmin: -9.882e-07  t[s]:   8607.34
ElecMinimize: Converged (|Delta F|<1.000000e-08 for 2 iters).
Setting wave functions to eigenvectors of Hamiltonian

# Ionic positions in cartesian coordinates:
ion Nb   1.029770439858464   0.517609546862840   3.442436034380170 1
ion Nb   5.956238954372831   7.060058628129315   7.187248620828623 1
ion Nb   1.059171161290416   0.499368010527550  16.261811762654855 1
ion Nb   5.984211653890845   7.045179181980367  20.004716653029522 1
ion Nb   1.000111186707176   8.110714372211874   3.343285902981156 1
ion Nb   5.926495941777954  14.653662571526191   7.090205002515375 1
ion Nb   1.046067555771868   8.095553116619877  16.162656027933714 1
ion Nb   5.956921451885987  14.638640327213533  19.913486058763056 1
ion Nb   8.016196850882116   0.517915145290039   1.353207390831515 1
ion Nb  12.941473779244806   7.060058628197709   5.097684761935062 1
ion Nb   8.044835466756108   0.499368010566636  14.172119428932762 1
ion Nb  12.973010670350586   7.044431493698615  17.923419428302179 1
ion Nb   7.987161708330726   8.111331339842927   1.256143608255390 1
ion Nb  12.913041298014779  14.653662571505155   5.000249111257954 1
ion Nb   8.001337083402522   8.095553118733074  14.082055988317061 1
ion Nb  12.943082149936501  14.639577489532495  17.823369159272580 1
ion O   1.034548150425797   3.901457243300731   3.458406745376024 1
ion O   5.951790799189143   3.676374309959584   7.174245135986700 1
ion O  -0.000040813547885  -0.000083010501194  -0.000136636197801 1
ion O   2.190081283512827   7.541823758736807   7.321256419054962 1
ion O   4.796840529604365   0.036416116684536   3.312474842972495 1
ion O   1.058124910366659   3.894689474432306  16.280272278035049 1
ion O   5.980823020503719   3.661681368952692  19.993389509279893 1
ion O   0.029801993991891  -0.014828839058232  12.821855768991265 1
ion O   2.207102850177305   7.526426285071612  20.135777538720426 1
ion O   4.825412827888390   0.021226515505490  16.130950815175137 1
ion O   1.005348444952310  11.495587598548768   3.360792842903259 1
ion O   5.922648261546803  11.270379381522782   7.076720230972917 1
ion O  -0.027921936991908   7.597280922760717  -0.093342630736630 1
ion O   2.160665867732904  15.135115313629115   7.222921415315755 1
ion O   4.767880213255011   7.629804139632852   3.214838232996344 1
ion O   1.027474191903327  11.475535247583116  16.184042707231868 1
ion O   5.951650994264120  11.254635286405515  19.895868136139438 1
ion O  -0.002870186071467   7.578062766701988  12.727066220777477 1
ion O   2.189915397257179  15.120083181640675  20.041143492473406 1
ion O   4.797532405270824   7.613544922511393  16.037747163439736 1
ion O   8.020717830328911   3.901351278704283   1.368319871457298 1
ion O  12.938050073351205   3.676374309958052   5.084374823323634 1
ion O   6.985942130963634  -0.000124057146566  -2.090847750698946 1
ion O   9.175734800749845   7.541803265419239   5.229444057104006 1
ion O  11.782622555315667   0.036416116715508   1.222747294415218 1
ion O   8.055847689696787   3.894689473648515  14.186972772336489 1
ion O  12.965884815029000   3.661405626150340  17.899599068470675 1
ion O   7.016091671927416  -0.014828839061839  10.731976361343140 1
ion O   9.212826080606073   7.526426283741816  18.040084778010847 1
ion O  11.811738103998461   0.021226546017096  14.041384086184401 1
ion O   7.991548030786178  11.495068525783166   1.270805941975682 1
ion O  12.908851463108412  11.270379381525077   4.986866691868038 1
ion O   6.956734599022274   7.593219621581964  -2.188487816390277 1
ion O   9.146856919708256  15.135123344026633   5.132905986422290 1
ion O  11.753210315533929   7.629804139694663   1.125245872818555 1
ion O   8.028620832041007  11.475535246565684  14.089718987781614 1
ion O  12.937381811102952  11.253236252355439  17.804314180204024 1
ion O   6.991344985307046   7.578062766157554  10.634815980952013 1
ion O   9.175223733717973  15.120083181703972  17.951557643322641 1

# Forces in Cartesian coordinates:
force Nb  -0.000271803244548   0.002060358327142  -0.000908615202801 1
force Nb   0.000362247176538  -0.002650822727677   0.000127728954349 1
force Nb  -0.000644677320704   0.002561539204099  -0.001029958558112 1
force Nb  -0.000800516137239  -0.002259722785313  -0.002676057578316 1
force Nb  -0.000534425881886   0.002355584994375  -0.001786540414040 1
force Nb  -0.000236682990352  -0.002463318392755  -0.000340576610043 1
force Nb   0.011444336160280   0.000160105852597  -0.002460279509241 1
force Nb   0.000561317373344  -0.002403254044852   0.001876436390100 1
force Nb  -0.000103522350939   0.002445717671824  -0.000346066442471 1
force Nb  -0.000232599731281  -0.002650822687085   0.000305671463517 1
force Nb  -0.000026815702299   0.002561539161937  -0.001214785688006 1
force Nb   0.000973535414869  -0.002666719625158   0.003254446354701 1
force Nb  -0.000110220740792   0.002540232693273  -0.000368458591855 1
force Nb   0.000010778693957  -0.002463318409641  -0.000414602300436 1
force Nb  -0.010915415400513   0.000160107378406   0.004228416766768 1
force Nb   0.000384263040451  -0.002308078291521   0.001284558766062 1
force O  -0.000305631672876  -0.005921317062336  -0.001021700770696 1
force O   0.000394319326288   0.005512100551917   0.001289936055525 1
force O   0.000069687485734   0.000012260529617   0.000232959356641 1
force O   0.000704654117439  -0.000596683752215   0.002355598973390 1
force O  -0.000067498474157   0.000609075167413  -0.000960171789349 1
force O  -0.005407001234363  -0.001445087142856   0.001082475445331 1
force O   0.000227426590062   0.006565615957259   0.000760267809148 1
force O   0.000480751366234   0.000165381459589   0.001416894047396 1
force O  -0.008389428034119  -0.000873560896015  -0.002411461382523 1
force O  -0.000622304008713   0.000491842913322  -0.002080309541636 1
force O  -0.000305151514971  -0.005254812251881  -0.001020095643529 1
force O   0.000419706709164   0.006164399054302   0.001353097446565 1
force O   0.001190370926974   0.003626433236354   0.003979309088160 1
force O   0.000439679770590  -0.000664105160526   0.001469812196637 1
force O   0.000134312860189   0.000550112305522  -0.001035147201670 1
force O  -0.006685066310911  -0.007588772616356   0.002419602155508 1
force O   0.000242244227348   0.005141286798782   0.000809801914343 1
force O  -0.002960201878310  -0.000274313295039   0.002914312680900 1
force O   0.000757932640480  -0.000593504674040   0.000378645250706 1
force O   0.000832130585492  -0.000522281797660   0.002781741998523 1
force O  -0.000375295248955  -0.006052246846316  -0.001254580199388 1
force O   0.000378811586979   0.005512100552975   0.001294575040796 1
force O  -0.000159547722150  -0.000039665151249  -0.000533354508549 1
force O   0.000083474545512  -0.000559211982359   0.000279048328601 1
force O  -0.000470858701767   0.000609075194938  -0.000839510607361 1
force O   0.005113224826594  -0.001445087860746  -0.002064545069874 1
force O  -0.000775679184146   0.005059917787760  -0.002593029749823 1
force O   0.000376295502994   0.000165381466717   0.001448140975233 1
force O   0.005687066510363  -0.000873561856581  -0.006622304082764 1
force O  -0.000517787977054   0.000503139989261  -0.001730921308763 1
force O  -0.000361865432645  -0.005625511193059  -0.001209685462058 1
force O   0.000392279064093   0.006164399056173   0.001361302152550 1
force O  -0.000507322357094  -0.000289529344644  -0.001695935628520 1
force O   0.000382295714949  -0.000659532514146   0.001277982163700 1
force O  -0.000680690544919   0.000550112361137  -0.000791347075990 1
force O   0.006915612711208  -0.007588773544454  -0.001648905085243 1
force O  -0.000142603346778   0.005295094292890  -0.000476710898238 1
force O   0.004074296936422  -0.000274313775067   0.000810012644392 1
force O  -0.000425497688511  -0.000593504593284   0.000732656609594 1

# Energy components:
   Eewald =     -974.5488955131733064
       EH =      494.0450191389949168
     Eloc =    -1559.4458753708615859
      Enl =      246.9483292841650837
      Exc =     -288.7067343378003557
 Exc_core =       29.9476882335954357
       KE =      505.9534751173791847
-------------------------------------
     Etot =    -1545.8069934477007337
       TS =        0.0019477632271941
-------------------------------------
        F =    -1545.8089412109279692

IonicMinimize: Iter:   1  F: -1545.808941210927969  |grad|_K:  2.861e-03  alpha:  1.000e+00  linmin: -9.705e-01  t[s]:   8665.77

#--- Lowdin population analysis ---
# oxidation-state Nb +1.014 +1.010 +1.014 +1.012 +1.012 +1.015 +0.839 +1.013 +1.015 +1.010 +1.014 +0.861 +1.014 +1.015 +0.839 +1.010
# oxidation-state O -0.323 -0.324 -0.369 -0.424 -0.424 -0.329 -0.322 -0.370 -0.414 -0.424 -0.325 -0.322 -0.366 -0.424 -0.425 -0.314 -0.324 -0.367 -0.425 -0.382 -0.323 -0.324 -0.369 -0.425 -0.424 -0.329 -0.324 -0.370 -0.414 -0.422 -0.324 -0.322 -0.370 -0.424 -0.425 -0.314 -0.322 -0.367 -0.425


-------- Electronic minimization -----------
	FillingsUpdate:  mu: +0.296043646  nElectrons: 442.000000
ElecMinimize: Iter:   0  F: -1545.619485083645259  |grad|_K:  6.373e-05  alpha:  1.000e+00
	FillingsUpdate:  mu: +0.303203709  nElectrons: 442.000000
	SubspaceRotationAdjust: set factor to 0.593
ElecMinimize: Iter:   1  F: -1545.776585770775682  |grad|_K:  2.900e-05  alpha:  4.539e-01  linmin:  5.437e-05  t[s]:   9112.36
	FillingsUpdate:  mu: +0.298333239  nElectrons: 442.000000
	SubspaceRotationAdjust: set factor to 0.73
ElecMinimize: Iter:   2  F: -1545.801570220627355  |grad|_K:  1.202e-05  alpha:  3.484e-01  linmin:  4.375e-05  t[s]:   9363.09
	FillingsUpdate:  mu: +0.295501834  nElectrons: 442.000000
	SubspaceRotationAdjust: set factor to 1.01
ElecMinimize: Iter:   3  F: -1545.809214916887186  |grad|_K:  6.714e-06  alpha:  6.212e-01  linmin:  8.902e-06  t[s]:   9607.69
	FillingsUpdate:  mu: +0.299050389  nElectrons: 442.000000
	SubspaceRotationAdjust: set factor to 0.883
ElecMinimize: Iter:   4  F: -1545.811130505776873  |grad|_K:  4.118e-06  alpha:  4.995e-01  linmin: -4.117e-05  t[s]:   9859.55
	FillingsUpdate:  mu: +0.297022796  nElectrons: 442.000000
	SubspaceRotationAdjust: set factor to 0.532
ElecMinimize: Iter:   5  F: -1545.811495738595568  |grad|_K:  2.021e-06  alpha:  2.511e-01  linmin: -1.888e-05  t[s]:  10117.22
	FillingsUpdate:  mu: +0.297461958  nElectrons: 442.000000
	SubspaceRotationAdjust: set factor to 0.445
ElecMinimize: Iter:   6  F: -1545.811623107938885  |grad|_K:  9.601e-07  alpha:  3.648e-01  linmin: -3.758e-06  t[s]:  10364.46
	FillingsUpdate:  mu: +0.297663458  nElectrons: 442.000000
	SubspaceRotationAdjust: set factor to 0.548
ElecMinimize: Iter:   7  F: -1545.811657447224661  |grad|_K:  4.644e-07  alpha:  4.365e-01  linmin: -3.379e-06  t[s]:  10614.39
	FillingsUpdate:  mu: +0.297601253  nElectrons: 442.000000
	SubspaceRotationAdjust: set factor to 0.693
ElecMinimize: Iter:   8  F: -1545.811664665558965  |grad|_K:  2.465e-07  alpha:  3.921e-01  linmin:  5.364e-08  t[s]:  10864.91
	FillingsUpdate:  mu: +0.297577563  nElectrons: 442.000000
	SubspaceRotationAdjust: set factor to 0.857
ElecMinimize: Iter:   9  F: -1545.811666976130027  |grad|_K:  1.491e-07  alpha:  4.458e-01  linmin:  2.179e-07  t[s]:  11109.50
	FillingsUpdate:  mu: +0.297583878  nElectrons: 442.000000
	SubspaceRotationAdjust: set factor to 0.977
ElecMinimize: Iter:  10  F: -1545.811667927335520  |grad|_K:  8.211e-08  alpha:  5.013e-01  linmin:  1.640e-07  t[s]:  11356.54
	FillingsUpdate:  mu: +0.297584386  nElectrons: 442.000000
	SubspaceRotationAdjust: set factor to 0.822
ElecMinimize: Iter:  11  F: -1545.811668136256003  |grad|_K:  4.936e-08  alpha:  3.632e-01  linmin:  6.347e-08  t[s]:  11607.08
	FillingsUpdate:  mu: +0.297579548  nElectrons: 442.000000
	SubspaceRotationAdjust: set factor to 0.577
ElecMinimize: Iter:  12  F: -1545.811668207309367  |grad|_K:  2.770e-08  alpha:  3.418e-01  linmin:  6.785e-08  t[s]:  11853.27
	FillingsUpdate:  mu: +0.297579698  nElectrons: 442.000000
	SubspaceRotationAdjust: set factor to 0.62
ElecMinimize: Iter:  13  F: -1545.811668231736121  |grad|_K:  1.438e-08  alpha:  3.733e-01  linmin:  3.956e-07  t[s]:  12100.35
	FillingsUpdate:  mu: +0.297582270  nElectrons: 442.000000
	SubspaceRotationAdjust: set factor to 0.762
ElecMinimize: Iter:  14  F: -1545.811668239089613  |grad|_K:  8.176e-09  alpha:  4.169e-01  linmin: -1.176e-08  t[s]:  12353.51
	FillingsUpdate:  mu: +0.297581702  nElectrons: 442.000000
	SubspaceRotationAdjust: set factor to 0.859
ElecMinimize: Iter:  15  F: -1545.811668241435655  |grad|_K:  4.850e-09  alpha:  4.129e-01  linmin: -6.640e-07  t[s]:  12603.60
ElecMinimize: Converged (|Delta F|<1.000000e-08 for 2 iters).
Setting wave functions to eigenvectors of Hamiltonian

# Ionic positions in cartesian coordinates:
ion Nb   1.028807049065736   0.520917511330476   3.439215500637216 1
ion Nb   5.958250298289811   7.053923500454704   7.190394515089703 1
ion Nb   1.055297468256764   0.512004192316312  16.258370912494378 1
ion Nb   5.980895974537612   7.041016637008027  19.993632618057926 1
ion Nb   0.998358720867732   8.116569493322947   3.337427558255517 1
ion Nb   5.925655652472238  14.648375363779049   7.089274525020841 1
ion Nb   1.090589706796483   8.086803196701506  16.152929436610329 1
ion Nb   5.958907719071052  14.633414426146462  19.920125981565214 1
ion Nb   8.015974010104443   0.523173347394082   1.352462453004389 1
ion Nb  12.941520376497570   7.053923500657171   5.101418390530332 1
ion Nb   8.046183318504815   0.512004191999085  14.167116605820759 1
ion Nb  12.976395787851176   7.039046720568631  17.934735589113362 1
ion Nb   7.986615067960413   8.117193529337449   1.254316235842093 1
ion Nb  12.913232590218131  14.648375363687620   4.999010046461843 1
ion Nb   7.958787316153547   8.086803204756409  14.098376091381947 1
ion Nb  12.944045230516783  14.633134925662631  17.826588656001633 1
ion O   1.033153347160084   3.880719590921512   3.453744036311412 1
ion O   5.953572929616957   3.695163345118481   7.179935004764440 1
ion O   0.000501701987609   0.000168857624542   0.001676947242404 1
ion O   2.193233016806364   7.539384749948482   7.331792396248486 1
ion O   4.796561115411074   0.038894387929275   3.308304414460759 1
ion O   1.033977745071131   3.886995972308910  16.285222469739448 1
ion O   5.981785807507165   3.686463122035869  19.996608024606466 1
ion O   0.031755551812031  -0.014444072349270  12.826936674123226 1
ion O   2.173976059825260   7.522556295189426  20.124887928405290 1
ion O   4.822650801082803   0.022921561671621  16.121717593731166 1
ion O   1.004001573292020  11.477833156437816   3.356290365131896 1
ion O   5.924530630380794  11.292304453425112   7.082802660467829 1
ion O  -0.022510302606832   7.613667656528510  -0.075251995790532 1
ion O   2.162532521753665  15.132453310557937   7.229161481450559 1
ion O   4.768510492049520   7.631923340870174   3.210365534631780 1
ion O   0.997765954684907  11.451900514444141  16.195270960123000 1
ion O   5.952702289638593  11.270869614728591  19.899382527446537 1
ion O  -0.016820118686156   7.576544969509121  12.736648735214501 1
ion O   2.193748468323258  15.117571762826312  20.043011548524223 1
ion O   4.801848826031749   7.610662220204843  16.052176592093488 1
ion O   8.018993475595689   3.879955219890977   1.362555499776481 1
ion O  12.939685230636059   3.695163345126978   5.090108657648635 1
ion O   6.985466326205198  -0.000135235295199  -2.092438325667248 1
ion O   9.175920782145319   7.539652854259852   5.230065777141409 1
ion O  11.780565919004568   0.038894388081523   1.219108504143231 1
ion O   8.078746553475966   3.886995968314741  14.177849614495054 1
ion O  12.962518827955236   3.676757367045556  17.888346859054479 1
ion O   7.017249155582989  -0.014444072298554  10.737295404107600 1
ion O   9.234531210731797   7.522556290117950  18.012792746527971 1
ion O  11.809493049443375   0.022996361926880  14.033879059144478 1
ion O   7.989898603051904  11.475881699096860   1.265292044899967 1
ion O  12.910618419124607  11.292304453435284   4.992983645954266 1
ion O   6.954015371756893   7.591672275761414  -2.197577962599919 1
ion O   9.148432695454359  15.132475801944999   5.138173671145829 1
ion O  11.750227432787771   7.631923341178544   1.121854015628633 1
ion O   8.059614788670732  11.451900509284449  14.082788785878030 1
ion O  12.936880803334871  11.273246786915930  17.802639353711214 1
ion O   7.008265510697094   7.576544966858115  10.635163906313499 1
ion O   9.173046146039294  15.117571763299772  17.955223727882544 1

# Forces in Cartesian coordinates:
force Nb   0.000039829223997  -0.003343317917988   0.000133145719064 1
force Nb   0.000269221307092   0.003078718114207   0.000560073268286 1
force Nb  -0.000931866536745  -0.004532069362392   0.000077199913466 1
force Nb   0.000249692758348   0.004845830344260   0.000834701721982 1
force Nb   0.000659674025754  -0.002646694031894   0.002205234340342 1
force Nb   0.000040705526359   0.003630996273280   0.000373900620981 1
force Nb  -0.001625289700220  -0.000136114544597  -0.000245583004779 1
force Nb  -0.000081055887601   0.002070842929919  -0.000270962960260 1
force Nb   0.000147999489754  -0.003430841428831   0.000494749746718 1
force Nb   0.000082562557984   0.003078718126944   0.000615910368112 1
force Nb   0.000821182520265  -0.004532069482019  -0.000447207196667 1
force Nb   0.000142596739426   0.002007019186592   0.000476688810421 1
force Nb  -0.000152860561686  -0.003238032053116  -0.000510999898061 1
force Nb   0.000171305137040   0.003630996264368   0.000334833052307 1
force Nb   0.001223443965301  -0.000136114738992  -0.001097753218215 1
force Nb  -0.000209311417267   0.003660077769871  -0.000699710322313 1
force O  -0.000229721916867   0.000607278706853  -0.000767940892056 1
force O   0.000351744412201  -0.001138524162403   0.001009300228787 1
force O  -0.000096004054702  -0.000050373489105  -0.000320933415559 1
force O   0.000616616228536  -0.000144461108780   0.002061295774719 1
force O   0.000052766397816   0.000042688499087  -0.000300378631486 1
force O  -0.003882764270410   0.003678345614214   0.000761461217882 1
force O  -0.000000573816515  -0.000311213505233  -0.000001918219960 1
force O   0.000262185454044   0.000263879715927   0.000049697314910 1
force O  -0.001129002824224  -0.000771424309497  -0.001879331507197 1
force O  -0.000436049305497   0.000652276298203  -0.001457675859625 1
force O  -0.000127089708162   0.001812342472169  -0.000424850119605 1
force O   0.000311406225492  -0.001015833892480   0.001076916436514 1
force O   0.000004889785845   0.002266327770219   0.000016346139519 1
force O   0.000202540811436  -0.000096708354931   0.000677076761038 1
force O   0.000298158878902   0.000031670476413  -0.000502126783662 1
force O  -0.004525818396744  -0.003254593693390   0.002169720068176 1
force O   0.000112707651611  -0.001611890985316   0.000376772123881 1
force O  -0.002097754129520  -0.000757215151034   0.000364672134805 1
force O   0.000736819708066   0.000078220461603   0.000359479307658 1
force O   0.001028412814217  -0.001700316517046   0.003437896848168 1
force O  -0.000341153216069   0.001010755809286  -0.001140446278043 1
force O   0.000260284228553  -0.001138524156162   0.001036659628917 1
force O  -0.000036338034248   0.000097065275239  -0.000121474967719 1
force O  -0.000109007296061  -0.000002811589607  -0.000364402148996 1
force O  -0.000209048536876   0.000042688516953  -0.000222059309650 1
force O   0.003663092192609   0.003678345099292  -0.001495806349975 1
force O  -0.000436265517303  -0.000471821824144  -0.001458398637362 1
force O  -0.000191825469971   0.000263879746909   0.000185510146661 1
force O  -0.000088475375955  -0.000771424380501  -0.002190594897106 1
force O  -0.000188509481004   0.000392228662720  -0.000630171212995 1
force O  -0.000332782203632   0.001003870572120  -0.001112462693169 1
force O   0.000331126863290  -0.001015833893826   0.001071017204752 1
force O  -0.000740948933100  -0.000389129340502  -0.002476929465037 1
force O   0.000112215530610  -0.000078343386699   0.000375127005096 1
force O  -0.000524918501265   0.000031670532579  -0.000255911409013 1
force O   0.004973843845375  -0.003254594341638  -0.000672008977402 1
force O   0.000028937335957  -0.001442117524953   0.000096735060771 1
force O   0.001953412521680  -0.000757215427482  -0.000847193892405 1
force O  -0.000418377770612   0.000078220540433   0.000705045091458 1

# Energy components:
   Eewald =     -973.8427769763572996
       EH =      494.8034841205744669
     Eloc =    -1561.1835043545070221
      Enl =      247.0333098395014417
      Exc =     -288.7994587237009227
 Exc_core =       29.9476869662699343
       KE =      506.2319725059811049
-------------------------------------
     Etot =    -1545.8092866222382327
       TS =        0.0023816191974682
-------------------------------------
        F =    -1545.8116682414356546

IonicMinimize: Iter:   2  F: -1545.811668241435655  |grad|_K:  1.565e-03  alpha:  1.000e+00  linmin: -1.216e-01  t[s]:  12659.53

#--- Lowdin population analysis ---
# oxidation-state Nb +1.011 +1.008 +1.011 +1.008 +1.007 +1.013 +0.838 +1.011 +1.012 +1.008 +1.011 +0.863 +1.011 +1.013 +0.838 +1.007
# oxidation-state O -0.317 -0.317 -0.371 -0.428 -0.427 -0.325 -0.311 -0.371 -0.415 -0.429 -0.320 -0.314 -0.367 -0.427 -0.428 -0.313 -0.320 -0.371 -0.428 -0.378 -0.315 -0.317 -0.371 -0.428 -0.427 -0.325 -0.319 -0.371 -0.415 -0.423 -0.317 -0.314 -0.373 -0.427 -0.428 -0.313 -0.314 -0.371 -0.428


-------- Electronic minimization -----------
	FillingsUpdate:  mu: +0.292934865  nElectrons: 442.000000
ElecMinimize: Iter:   0  F: -1545.764836568010196  |grad|_K:  3.317e-05  alpha:  1.000e+00
	FillingsUpdate:  mu: +0.303940931  nElectrons: 442.000000
	SubspaceRotationAdjust: set factor to 0.758
ElecMinimize: Iter:   1  F: -1545.804281184024831  |grad|_K:  1.645e-05  alpha:  4.216e-01  linmin:  6.638e-05  t[s]:  13102.03
	FillingsUpdate:  mu: +0.297092421  nElectrons: 442.000000
	SubspaceRotationAdjust: set factor to 0.476
ElecMinimize: Iter:   2  F: -1545.810864454612556  |grad|_K:  6.203e-06  alpha:  2.826e-01  linmin: -2.489e-05  t[s]:  13352.13
	FillingsUpdate:  mu: +0.298311720  nElectrons: 442.000000
	SubspaceRotationAdjust: set factor to 0.404
ElecMinimize: Iter:   3  F: -1545.811967177182623  |grad|_K:  3.027e-06  alpha:  3.355e-01  linmin: -1.306e-05  t[s]:  13603.86
	FillingsUpdate:  mu: +0.298409224  nElectrons: 442.000000
	SubspaceRotationAdjust: set factor to 0.593
ElecMinimize: Iter:   4  F: -1545.812291701271079  |grad|_K:  1.496e-06  alpha:  4.148e-01  linmin:  2.456e-06  t[s]:  13850.67
	FillingsUpdate:  mu: +0.298149560  nElectrons: 442.000000
	SubspaceRotationAdjust: set factor to 0.606
ElecMinimize: Iter:   5  F: -1545.812381830737650  |grad|_K:  8.516e-07  alpha:  4.719e-01  linmin: -5.850e-07  t[s]:  14095.64
	FillingsUpdate:  mu: +0.298317907  nElectrons: 442.000000
	SubspaceRotationAdjust: set factor to 0.607
ElecMinimize: Iter:   6  F: -1545.812407905685404  |grad|_K:  4.621e-07  alpha:  4.214e-01  linmin: -3.428e-07  t[s]:  14346.29
	FillingsUpdate:  mu: +0.298207363  nElectrons: 442.000000
	SubspaceRotationAdjust: set factor to 0.685
ElecMinimize: Iter:   7  F: -1545.812416542335086  |grad|_K:  2.646e-07  alpha:  4.741e-01  linmin:  5.248e-07  t[s]:  14596.43
	FillingsUpdate:  mu: +0.298247590  nElectrons: 442.000000
	SubspaceRotationAdjust: set factor to 0.883
ElecMinimize: Iter:   8  F: -1545.812419131149227  |grad|_K:  1.258e-07  alpha:  4.334e-01  linmin: -1.323e-07  t[s]:  14848.88
	FillingsUpdate:  mu: +0.298271522  nElectrons: 442.000000
	SubspaceRotationAdjust: set factor to 0.776
ElecMinimize: Iter:   9  F: -1545.812419672355645  |grad|_K:  7.372e-08  alpha:  4.010e-01  linmin: -1.958e-09  t[s]:  15097.68
	FillingsUpdate:  mu: +0.298244975  nElectrons: 442.000000
	SubspaceRotationAdjust: set factor to 0.525
ElecMinimize: Iter:  10  F: -1545.812419820751757  |grad|_K:  4.223e-08  alpha:  3.200e-01  linmin:  1.858e-07  t[s]:  15352.84
	FillingsUpdate:  mu: +0.298258705  nElectrons: 442.000000
	SubspaceRotationAdjust: set factor to 0.503
ElecMinimize: Iter:  11  F: -1545.812419878885066  |grad|_K:  1.767e-08  alpha:  3.821e-01  linmin: -7.571e-08  t[s]:  15599.48
	FillingsUpdate:  mu: +0.298255799  nElectrons: 442.000000
	SubspaceRotationAdjust: set factor to 0.45
ElecMinimize: Iter:  12  F: -1545.812419890616866  |grad|_K:  8.475e-09  alpha:  4.402e-01  linmin: -1.024e-06  t[s]:  15850.19
	FillingsUpdate:  mu: +0.298254444  nElectrons: 442.000000
	SubspaceRotationAdjust: set factor to 0.454
ElecMinimize: Iter:  13  F: -1545.812419893398555  |grad|_K:  4.681e-09  alpha:  4.533e-01  linmin:  2.107e-06  t[s]:  16108.49
	FillingsUpdate:  mu: +0.298255569  nElectrons: 442.000000
	SubspaceRotationAdjust: set factor to 0.546
ElecMinimize: Iter:  14  F: -1545.812419894248706  |grad|_K:  2.562e-09  alpha:  4.497e-01  linmin: -1.129e-06  t[s]:  16356.03
ElecMinimize: Converged (|Delta F|<1.000000e-08 for 2 iters).
Setting wave functions to eigenvectors of Hamiltonian

# Ionic positions in cartesian coordinates:
ion Nb   1.028623319134940   0.513283859264428   3.438601307055354 1
ion Nb   5.959452432898281   7.060132056176371   7.192203417054065 1
ion Nb   1.051813402239499   0.501418540808430  16.257456616114766 1
ion Nb   5.980746998811235   7.052903029726374  19.993134604834943 1
ion Nb   0.999722799759441   8.111333757062669   3.341987558342670 1
ion Nb   5.925513488845604  14.656430850625361   7.090005553229253 1
ion Nb   1.098476243699704   8.086562645545012  16.149467464280590 1
ion Nb   5.959289799374141  14.636907738227105  19.921403243625335 1
ion Nb   8.016298265368262   0.515709075498881   1.353546410860677 1
ion Nb  12.941509057725737   7.060132056461644   5.103590284949412 1
ion Nb   8.048592980211382   0.501418540089021  14.164439259678675 1
ion Nb  12.977898621627666   7.042060242818297  17.939759435016569 1
ion Nb   7.986038604317631   8.110406792812292   1.252389166757377 1
ion Nb  12.913752837831330  14.656430850488729   4.999542920966222 1
ion Nb   7.950295190623539   8.086562654717580  14.099813632274682 1
ion Nb  12.943849387728791  14.641444764120806  17.825933970165103 1
ion O   1.032131649367361   3.875959844125641   3.450328587210798 1
ion O   5.955054629954571   3.697908641634463   7.184362354661896 1
ion O   0.000294648107932   0.000041967114856   0.000984783676856 1
ion O   2.195845516249809   7.538301733639162   7.340525760397878 1
ion O   4.796642367099266   0.039706088243949   3.306345011304597 1
ion O   1.016446687421608   3.896307031049262  16.288684352196441 1
ion O   5.982036552692332   3.692837304841257  19.997446244502079 1
ion O   0.033067136433732  -0.013469778074302  12.828655483250355 1
ion O   2.161309040901237   7.519304960155743  20.116630067124440 1
ion O   4.820665014508406   0.025410720501174  16.115079277569723 1
ion O   1.003284996929768  11.477389515495600   3.353894911104876 1
ion O   5.925920856226584  11.296139551173360   7.087501103299545 1
ion O  -0.021172311861022   7.624432133409399  -0.070779206163345 1
ion O   2.163621730836649  15.131437187942897   7.232802615070847 1
ion O   4.769544150394228   7.632636560443564   3.207724328962190 1
ion O   0.976906482830081  11.433841037584676  16.204398142442869 1
ion O   5.953305633027721  11.271796089754918  19.901399453244398 1
ion O  -0.026336905699848   7.574001282228386  12.740961553242990 1
ion O   2.196777896937909  15.117152690499182  20.044498464537110 1
ion O   4.805826184878085   7.605044326617845  16.065472565512742 1
ion O   8.017563696180975   3.876246696236501   1.357775868411062 1
ion O  12.940878166153585   3.697908641662666   5.094622388656880 1
ion O   6.985181413937885   0.000117464366428  -2.093390763221754 1
ion O   9.175689456735826   7.539032025636251   5.229292475909451 1
ion O  11.779422026909012   0.039706088479800   1.217515590509177 1
ion O   8.095298846022267   3.896307024729278  14.171115803278573 1
ion O  12.960362064554907   3.680974300169059  17.881136981859523 1
ion O   7.017096892514759  -0.013469777923694  10.739452108645402 1
ion O   9.240582693823280   7.519304953806934  17.998935432391701 1
ion O  11.808357962250010   0.024726667190776  14.030084558890771 1
ion O   7.988508626534263  11.472627969463973   1.260645471244951 1
ion O  12.912036670736420  11.296139551181618   4.997673705158090 1
ion O   6.951251741766954   7.590203751392123  -2.206816543353258 1
ion O   9.149190051053207  15.131519231630334   5.140705446703495 1
ion O  11.747913180406162   7.632636560980390   1.120214304002777 1
ion O   8.082059782736257  11.433841029469928  14.078961869886536 1
ion O  12.936808133970557  11.274855509183615  17.802396426187283 1
ion O   7.018587319154398   7.574001278223613  10.633542206720568 1
ion O   9.171330887125706  15.117152691296415  17.958129969763817 1

# Forces in Cartesian coordinates:
force Nb  -0.000041042924051  -0.002562005526517  -0.000137203015445 1
force Nb   0.000888446570181   0.002233561102162   0.001255075845814 1
force Nb  -0.000610139548676   0.003157254999789   0.000424251025259 1
force Nb  -0.000096713943817   0.001844424566858  -0.000323306514685 1
force Nb   0.000435609391690  -0.001384999386003   0.001456205265065 1
force Nb   0.000018963140792   0.002317933104015   0.000166771913504 1
force Nb  -0.003607338968898  -0.007269334132484   0.001219298035755 1
force Nb  -0.000016937601623   0.002763937911841  -0.000056620966240 1
force Nb  -0.000016678424750  -0.002184944235295  -0.000055754559929 1
force Nb  -0.000053288580852   0.002233561166425   0.001536786507069 1
force Nb   0.000742885407952   0.003157254907460   0.000019507127986 1
force Nb  -0.000146783020211   0.003034512651022  -0.000490683192170 1
force Nb  -0.000278225991889  -0.002442805137610  -0.000930085902635 1
force Nb   0.000075733142937   0.002317933100141   0.000149789734568 1
force Nb   0.003684327710975  -0.007269334630061  -0.000961931198165 1
force Nb  -0.000120348520989   0.001213004824439  -0.000402314902411 1
force O  -0.000171868379541   0.000556975980953  -0.000574541421652 1
force O   0.000284089365408  -0.000855039615823   0.000786931681804 1
force O  -0.000125012314564   0.000028293749545  -0.000417905568930 1
force O   0.000413661072003   0.000153449704976   0.001382833893151 1
force O   0.000052667937936  -0.000192727894370   0.000151157086875 1
force O  -0.003347787243884  -0.003656489268682   0.000584920878524 1
force O  -0.000028324025764   0.000519871074580  -0.000094684816792 1
force O   0.000298786072127  -0.000115743839950   0.000039344747121 1
force O   0.000775230074617  -0.000365032900333  -0.001130896200603 1
force O  -0.000418230945396  -0.000083269286907  -0.001398110592466 1
force O   0.000007055341479   0.000829294374570   0.000023585408408 1
force O   0.000249137800057  -0.000112160486180   0.000945699965860 1
force O   0.000034895477599   0.001617088896340   0.000116652623142 1
force O   0.000107887274370   0.000153420540370   0.000360658011440 1
force O   0.000139466167536  -0.000125022803846  -0.000173673592349 1
force O  -0.003815142069612   0.004562912033864   0.001809063900422 1
force O   0.000031373552516  -0.001425166749315   0.000104879126182 1
force O  -0.002009945548706  -0.000498410377004  -0.001335005932168 1
force O   0.000286656790380   0.000052905029523  -0.000011402218851 1
force O   0.000654476546675  -0.000762432442798   0.002187859608426 1
force O  -0.000307388346126   0.000481888215115  -0.001027573180440 1
force O   0.000194714014830  -0.000855039609724   0.000813667424952 1
force O   0.000025097412718  -0.000055403322379   0.000083898522935 1
force O  -0.000218850684979   0.000209397547755  -0.000731599285527 1
force O   0.000038990295587  -0.000192727893436   0.000155248616926 1
force O   0.003119050335395  -0.003656489709973  -0.001349568971084 1
force O  -0.000236391288352  -0.001959431740433  -0.000790236035495 1
force O  -0.000228098722660  -0.000115743803996   0.000196957069208 1
force O  -0.001268904010417  -0.000365032760843  -0.000519413912660 1
force O  -0.000063219770528  -0.000384510309512  -0.000211338333047 1
force O  -0.000320771673011   0.000239799254975  -0.001072312507567 1
force O   0.000311110183965  -0.000112160490409   0.000927161546399 1
force O  -0.000028595651724   0.000171463974237  -0.000095592839349 1
force O   0.000032794002624   0.000132590802972   0.000109627570468 1
force O  -0.000211927277283  -0.000125022779868  -0.000068557754215 1
force O   0.004181859336008   0.004562911488156  -0.000583159169481 1
force O   0.000017211440189   0.000901495781941   0.000057536385350 1
force O   0.000946666196825  -0.000498410578760  -0.002219446795394 1
force O  -0.000245829130578   0.000052905065859   0.000147885624167 1

# Energy components:
   Eewald =     -973.9671073668154122
       EH =      494.6565143578278025
     Eloc =    -1560.9122435779420357
      Enl =      247.0331354719536421
      Exc =     -288.8003437241950451
 Exc_core =       29.9476862392029659
       KE =      506.2326375036195145
-------------------------------------
     Etot =    -1545.8097210963483121
       TS =        0.0026987979003561
-------------------------------------
        F =    -1545.8124198942487055

IonicMinimize: Iter:   3  F: -1545.812419894248706  |grad|_K:  1.558e-03  alpha:  1.000e+00  linmin: -1.898e-01  t[s]:  16414.97

#--- Lowdin population analysis ---
# oxidation-state Nb +1.011 +1.008 +1.011 +1.007 +1.007 +1.013 +0.840 +1.011 +1.013 +1.008 +1.011 +0.866 +1.013 +1.013 +0.840 +1.007
# oxidation-state O -0.318 -0.319 -0.370 -0.428 -0.426 -0.329 -0.313 -0.369 -0.415 -0.429 -0.321 -0.315 -0.367 -0.426 -0.428 -0.310 -0.321 -0.371 -0.428 -0.378 -0.316 -0.319 -0.370 -0.427 -0.426 -0.329 -0.320 -0.369 -0.415 -0.421 -0.318 -0.315 -0.372 -0.426 -0.428 -0.310 -0.316 -0.371 -0.428


-------- Electronic minimization -----------
	FillingsUpdate:  mu: +0.292615166  nElectrons: 442.000000
ElecMinimize: Iter:   0  F: -1545.747317731755174  |grad|_K:  3.794e-05  alpha:  1.000e+00
	FillingsUpdate:  mu: +0.302808238  nElectrons: 442.000000
	SubspaceRotationAdjust: set factor to 0.567
ElecMinimize: Iter:   1  F: -1545.801996545762904  |grad|_K:  1.658e-05  alpha:  4.463e-01  linmin:  6.522e-05  t[s]:  16869.67
	FillingsUpdate:  mu: +0.298661181  nElectrons: 442.000000
	SubspaceRotationAdjust: set factor to 0.728
ElecMinimize: Iter:   2  F: -1545.810232094759613  |grad|_K:  6.741e-06  alpha:  3.511e-01  linmin:  3.608e-05  t[s]:  17114.05
	FillingsUpdate:  mu: +0.297552522  nElectrons: 442.000000
	SubspaceRotationAdjust: set factor to 0.855
ElecMinimize: Iter:   3  F: -1545.812387701883154  |grad|_K:  3.803e-06  alpha:  5.567e-01  linmin:  2.100e-05  t[s]:  17363.85
	FillingsUpdate:  mu: +0.298974955  nElectrons: 442.000000
	SubspaceRotationAdjust: set factor to 0.767
ElecMinimize: Iter:   4  F: -1545.813015741939580  |grad|_K:  2.049e-06  alpha:  5.095e-01  linmin: -6.461e-06  t[s]:  17617.08
	FillingsUpdate:  mu: +0.298168867  nElectrons: 442.000000
	SubspaceRotationAdjust: set factor to 0.544
ElecMinimize: Iter:   5  F: -1545.813140340343580  |grad|_K:  8.731e-07  alpha:  3.471e-01  linmin:  1.235e-06  t[s]:  17864.87
	FillingsUpdate:  mu: +0.298510467  nElectrons: 442.000000
	SubspaceRotationAdjust: set factor to 0.516
ElecMinimize: Iter:   6  F: -1545.813169073606332  |grad|_K:  4.495e-07  alpha:  4.418e-01  linmin: -5.454e-06  t[s]:  18111.86
	FillingsUpdate:  mu: +0.298405984  nElectrons: 442.000000
	SubspaceRotationAdjust: set factor to 0.484
ElecMinimize: Iter:   7  F: -1545.813176690189039  |grad|_K:  2.056e-07  alpha:  4.416e-01  linmin: -5.197e-07  t[s]:  18362.58
	FillingsUpdate:  mu: +0.298419916  nElectrons: 442.000000
	SubspaceRotationAdjust: set factor to 0.565
ElecMinimize: Iter:   8  F: -1545.813178236762269  |grad|_K:  9.187e-08  alpha:  4.288e-01  linmin: -5.723e-08  t[s]:  18610.52
	FillingsUpdate:  mu: +0.298422512  nElectrons: 442.000000
	SubspaceRotationAdjust: set factor to 0.696
ElecMinimize: Iter:   9  F: -1545.813178632155314  |grad|_K:  5.862e-08  alpha:  5.491e-01  linmin:  5.498e-07  t[s]:  18857.76
	FillingsUpdate:  mu: +0.298417837  nElectrons: 442.000000
	SubspaceRotationAdjust: set factor to 0.784
ElecMinimize: Iter:  10  F: -1545.813178756709476  |grad|_K:  3.008e-08  alpha:  4.250e-01  linmin:  1.162e-07  t[s]:  19112.59
	FillingsUpdate:  mu: +0.298420432  nElectrons: 442.000000
	SubspaceRotationAdjust: set factor to 0.747
ElecMinimize: Iter:  11  F: -1545.813178790250959  |grad|_K:  1.692e-08  alpha:  4.345e-01  linmin:  3.341e-07  t[s]:  19359.86
	FillingsUpdate:  mu: +0.298417707  nElectrons: 442.000000
	SubspaceRotationAdjust: set factor to 0.518
ElecMinimize: Iter:  12  F: -1545.813178799251773  |grad|_K:  8.848e-09  alpha:  3.689e-01  linmin:  5.349e-07  t[s]:  19614.23
	FillingsUpdate:  mu: +0.298420265  nElectrons: 442.000000
	SubspaceRotationAdjust: set factor to 0.395
ElecMinimize: Iter:  13  F: -1545.813178801762433  |grad|_K:  4.325e-09  alpha:  3.770e-01  linmin:  6.502e-08  t[s]:  19864.36
ElecMinimize: Converged (|Delta F|<1.000000e-08 for 2 iters).
Setting wave functions to eigenvectors of Hamiltonian

# Ionic positions in cartesian coordinates:
ion Nb   1.028256334029868   0.502890114788121   3.437374506962426 1
ion Nb   5.962475541272044   7.068507781965725   7.196017731802899 1
ion Nb   1.047591520333787   0.500110681157611  16.257159091126120 1
ion Nb   5.980158379274326   7.065167750205632  19.991166899626744 1
ion Nb   1.001587068244224   8.105414443986344   3.348219649832948 1
ion Nb   5.925333825805702  14.666581021187342   7.090781523578960 1
ion Nb   1.100958709589361   8.071975411925878  16.148505347808857 1
ion Nb   5.959816951180606  14.644329101255268  19.923165467421946 1
ion Nb   8.016451974060184   0.506353313973956   1.354060245986216 1
ion Nb  12.941077149714893   7.068507782486765   5.108438133329533 1
ion Nb   8.051957951015545   0.500110679920482  14.161872203504529 1
ion Nb  12.979260198146138   7.049406378567872  17.944311069882144 1
ion Nb   7.984909340305132   8.101008582867474   1.248614132903606 1
ion Nb  12.914329104382832  14.666581020999127   5.000092762531394 1
ion Nb   7.947692182023668   8.071975421445474  14.100372784685892 1
ion Nb  12.943670517203216  14.649742828184138  17.825336021162908 1
ion O   1.030822931384487   3.870605050773658   3.445953653948332 1
ion O   5.957024487141707   3.700848884232860   7.190163027198214 1
ion O  -0.000200436636259  -0.000034884919458  -0.000670242649246 1
ion O   2.199129685186507   7.537565920644508   7.351504458718476 1
ion O   4.796809222549251   0.040145405262268   3.304805248033023 1
ion O   0.992936065777315   3.895692098884479  16.293128324083408 1
ion O   5.982244971723518   3.701891646134933  19.998142971653383 1
ion O   0.034997240432359  -0.012795754672022  12.830787196694141 1
ion O   2.149589623546642   7.515557509708035  20.106630004452096 1
ion O   4.817906249837593   0.027531642436126  16.105856961165735 1
ion O   1.002628748379928  11.476409469747784   3.351701127840099 1
ion O   5.927743477268516  11.301783186507716   7.093879575101866 1
ion O  -0.019724634525245   7.637900960728285  -0.065939743565222 1
ion O   2.164899397543089  15.130723858635688   7.237073746548751 1
ion O   4.770748286654579   7.633156354032698   3.204849968906677 1
ion O   0.949224881344770  11.425107603897263  16.216600057652489 1
ion O   5.953942799877517  11.272037088179706  19.903529448003692 1
ion O  -0.039379034285294   7.570751633025100  12.742964391772334 1
ion O   2.200031687240465  15.116762003267407  20.045758246052561 1
ion O   4.810692566143728   7.598628531877931  16.081740465507625 1
ion O   8.015593466155977   3.871584492532839   1.351189556475365 1
ion O  12.942417281364030   3.700848884290456   5.100551913351845 1
ion O   6.984909815324981   0.000161591362749  -2.094298694358317 1
ion O   9.175058319112862   7.538790572451518   5.227182636344290 1
ion O  11.778437034425050   0.040145405576720   1.216320391038562 1
ion O   8.117387745307129   3.895692089452826  14.161919134078923 1
ion O  12.957821722162157   3.682841779935667  17.872644832613062 1
ion O   7.016654456660220  -0.012795754359514  10.742293543681463 1
ion O   9.244885524422958   7.515557502265882  17.984142474327221 1
ion O  11.807131552748762   0.025524225981169  14.025984775904190 1
ion O   7.986540771335148  11.467822190367670   1.254067098150834 1
ion O  12.914016128599723  11.301783186505274   5.004005260792304 1
ion O   6.948866189548721   7.589367163075065  -2.214791242169554 1
ion O   9.150014160852209  15.130810489746946   5.143460375892790 1
ion O  11.745328419983410   7.633156354828075   1.118473354533942 1
ion O   8.111894696269706  11.425107591857646  14.073958294294121 1
ion O  12.936722500488777  11.280306079090341  17.802110160717778 1
ion O   7.030586858426840   7.570751627311507  10.628054080509507 1
ion O   9.169303393644661  15.116762004425031  17.960969594556143 1

# Forces in Cartesian coordinates:
force Nb  -0.000087012192439  -0.000941479963459  -0.000290874382353 1
force Nb   0.000955910514675   0.000785675001095   0.000639256515785 1
force Nb  -0.000256059831407   0.002080642456519   0.000592105207613 1
force Nb  -0.000216585254306   0.000374764803605  -0.000724026142853 1
force Nb   0.000246536421155  -0.000324834241996   0.000824150354342 1
force Nb   0.000166947462173   0.000960259941361   0.000500837126531 1
force Nb  -0.005122419211965  -0.003926361582469   0.002259918941859 1
force Nb  -0.000134469700202   0.001258450675334  -0.000449520807313 1
force Nb  -0.000078980414352  -0.000789419372225  -0.000264024829147 1
force Nb  -0.000447841560429   0.000785675096885   0.001059174923718 1
force Nb   0.000539145855743   0.002080642402255   0.000354227371455 1
force Nb  -0.000287711996362   0.001763802182730  -0.000961796811357 1
force Nb  -0.000266802561641  -0.001211706364193  -0.000891898343807 1
force Nb   0.000135506925456   0.000960259943507   0.000510242248958 1
force Nb   0.005521972963248  -0.003926362308832  -0.000924244625844 1
force Nb  -0.000201925857148   0.000112292006843  -0.000675021020989 1
force O  -0.000114187545177  -0.000061687509224  -0.000381719282605 1
force O   0.000229079093894  -0.000021317567400   0.000535410729228 1
force O  -0.000059495440625   0.000068306642419  -0.000198888213932 1
force O   0.000196774264302   0.000485526547306   0.000657799682864 1
force O   0.000015365778721  -0.000434131448158   0.000475920474342 1
force O  -0.002623981771020  -0.003378476107088   0.000318099800851 1
force O  -0.000078326193168   0.000313900513758  -0.000261837823195 1
force O   0.000240114214767  -0.000064386158097  -0.000268120396340 1
force O   0.002051183921405  -0.000183302123734  -0.000261454456456 1
force O  -0.000314508388933  -0.000036558925286  -0.001051374879901 1
force O   0.000152864632996  -0.000029451212005   0.000511013508104 1
force O   0.000166795100114   0.000524212009015   0.000717608108048 1
force O  -0.000089177845019   0.000847048674268  -0.000298113975320 1
force O  -0.000040020383771   0.000442016085323  -0.000133784749981 1
force O  -0.000182769691717  -0.000280264732716   0.000189136204306 1
force O  -0.002745888502336   0.002718772609579   0.001285677719154 1
force O  -0.000014561602258   0.000144884668900  -0.000048678201801 1
force O  -0.001431292674475  -0.000417235254282  -0.001250069697194 1
force O   0.000021095756854   0.000366678694887  -0.000230047304207 1
force O   0.000055886706334  -0.000368014837487   0.000186824521149 1
force O  -0.000261766756812  -0.000297609566448  -0.000875064075203 1
force O   0.000102567415339  -0.000021317558767   0.000573255433849 1
force O   0.000064010644717  -0.000100588149124   0.000213982158410 1
force O  -0.000258084782731   0.000393147131790  -0.000862755548011 1
force O   0.000248505559558  -0.000434131464067   0.000406179038278 1
force O   0.002367622051184  -0.003378476447710  -0.001175088609857 1
force O  -0.000030656211241  -0.000778951517906  -0.000102481115119 1
force O  -0.000347906445128  -0.000064386117971  -0.000092219891034 1
force O  -0.001857811389922  -0.000183301856988   0.000907882434910 1
force O   0.000115801467746  -0.000500048557692   0.000387114488922 1
force O  -0.000294127165060  -0.000502994314668  -0.000983242176430 1
force O   0.000254671982476   0.000524212003019   0.000691320616696 1
force O   0.000442236463593   0.000488829251448   0.001478359004586 1
force O  -0.000088084302342   0.000391408125397  -0.000294458354862 1
force O   0.000256608482580  -0.000280264762699   0.000057700613432 1
force O   0.003000839391156   0.002718772217427  -0.000433398512795 1
force O   0.000028117447759   0.001310922740797   0.000093994244037 1
force O   0.000509710493370  -0.000417235386734  -0.001830701401674 1
force O  -0.000143958648999   0.000366678706150  -0.000180672927808 1

# Energy components:
   Eewald =     -974.1962821343101950
       EH =      494.4028863625902090
     Eloc =    -1560.4120199756721377
      Enl =      247.0267963606487456
      Exc =     -288.7956707373850804
 Exc_core =       29.9476850087035054
       KE =      506.2162797571069177
-------------------------------------
     Etot =    -1545.8103253583180958
       TS =        0.0028534434442380
-------------------------------------
        F =    -1545.8131788017624331

IonicMinimize: Iter:   4  F: -1545.813178801762433  |grad|_K:  1.166e-03  alpha:  1.000e+00  linmin: -4.030e-01  t[s]:  19923.21

#--- Lowdin population analysis ---
# oxidation-state Nb +1.011 +1.008 +1.012 +1.006 +1.007 +1.013 +0.842 +1.012 +1.013 +1.008 +1.012 +0.870 +1.014 +1.013 +0.842 +1.007
# oxidation-state O -0.320 -0.321 -0.369 -0.428 -0.426 -0.330 -0.314 -0.368 -0.415 -0.431 -0.323 -0.317 -0.366 -0.425 -0.427 -0.312 -0.324 -0.370 -0.427 -0.379 -0.317 -0.321 -0.368 -0.427 -0.426 -0.330 -0.322 -0.368 -0.415 -0.419 -0.319 -0.317 -0.372 -0.426 -0.427 -0.312 -0.316 -0.370 -0.427


-------- Electronic minimization -----------
	FillingsUpdate:  mu: +0.279116563  nElectrons: 442.000000
ElecMinimize: Iter:   0  F: -1545.537059517357875  |grad|_K:  7.740e-05  alpha:  1.000e+00
	FillingsUpdate:  mu: +0.301787274  nElectrons: 442.000000
	SubspaceRotationAdjust: set factor to 0.452
ElecMinimize: Iter:   1  F: -1545.770810137002854  |grad|_K:  3.037e-05  alpha:  4.607e-01  linmin:  2.409e-04  t[s]:  20369.42
	FillingsUpdate:  mu: +0.299745575  nElectrons: 442.000000
	SubspaceRotationAdjust: set factor to 0.547
ElecMinimize: Iter:   2  F: -1545.798486883312762  |grad|_K:  1.411e-05  alpha:  3.531e-01  linmin:  8.289e-06  t[s]:  20617.49
	FillingsUpdate:  mu: +0.295066399  nElectrons: 442.000000
	SubspaceRotationAdjust: set factor to 0.646
ElecMinimize: Iter:   3  F: -1545.808553437548881  |grad|_K:  8.979e-06  alpha:  5.936e-01  linmin:  8.101e-05  t[s]:  20869.79
	FillingsUpdate:  mu: +0.298862290  nElectrons: 442.000000
	SubspaceRotationAdjust: set factor to 0.672
ElecMinimize: Iter:   4  F: -1545.812887913338727  |grad|_K:  5.169e-06  alpha:  6.330e-01  linmin: -1.267e-05  t[s]:  21121.85
	FillingsUpdate:  mu: +0.297208628  nElectrons: 442.000000
	SubspaceRotationAdjust: set factor to 0.563
ElecMinimize: Iter:   5  F: -1545.813748033020602  |grad|_K:  2.561e-06  alpha:  3.763e-01  linmin: -8.197e-06  t[s]:  21369.05
	FillingsUpdate:  mu: +0.297595116  nElectrons: 442.000000
	SubspaceRotationAdjust: set factor to 0.528
ElecMinimize: Iter:   6  F: -1545.813988283031449  |grad|_K:  1.303e-06  alpha:  4.293e-01  linmin: -3.274e-07  t[s]:  21616.60
	FillingsUpdate:  mu: +0.297577362  nElectrons: 442.000000
	SubspaceRotationAdjust: set factor to 0.624
ElecMinimize: Iter:   7  F: -1545.814058061785772  |grad|_K:  5.492e-07  alpha:  4.816e-01  linmin: -2.282e-06  t[s]:  21873.19
	FillingsUpdate:  mu: +0.297541394  nElectrons: 442.000000
	SubspaceRotationAdjust: set factor to 0.813
ElecMinimize: Iter:   8  F: -1545.814070578091105  |grad|_K:  3.142e-07  alpha:  4.863e-01  linmin: -2.612e-07  t[s]:  22123.41
	FillingsUpdate:  mu: +0.297560800  nElectrons: 442.000000
	SubspaceRotationAdjust: set factor to 0.981
[...]
	FillingsUpdate:  mu: +0.297622688  nElectrons: 442.000000
	SubspaceRotationAdjust: set factor to 0.594
ElecMinimize: Iter:   9  F: -1545.814866793909232  |grad|_K:  3.869e-09  alpha:  3.952e-01  linmin:  3.366e-05  t[s]:  59050.48
ElecMinimize: Converged (|Delta F|<1.000000e-08 for 2 iters).
Setting wave functions to eigenvectors of Hamiltonian

# Ionic positions in cartesian coordinates:
ion Nb   1.027122870363315   0.491890750320418   3.433585434021206 1
ion Nb   5.978758124057674   7.088334959899705   7.205671337643814 1
ion Nb   1.033731611752214   0.481391427826935  16.264879427755318 1
ion Nb   5.970490597788664   7.083217165203819  19.958848325763352 1
ion Nb   1.006880991174361   8.099986001903217   3.365916785364869 1
ion Nb   5.924684356170032  14.689894952076607   7.095984343086499 1
ion Nb   1.044988922307897   8.041420127647882  16.181253445284593 1
ion Nb   5.956964140975977  14.665973124079464  19.913628764771673 1
ion Nb   8.014629131663799   0.478086827967494   1.347966638397312 1
ion Nb  12.932770490899863   7.088334962098691   5.125447365116342 1
ion Nb   8.067780643372895   0.481391424564293  14.160713286631175 1
ion Nb  12.982633240813531   7.070693833952308  17.955586865549670 1
ion Nb   7.978399912781176   8.071687531089369   1.226853668566120 1
ion Nb  12.917728964576494  14.689894951612068   5.004084265478634 1
ion Nb   8.012451124779961   8.041420128929067  14.097006088810033 1
ion Nb  12.942048093567909  14.666709511805617  17.819912396500605 1
ion O   1.028833800712669   3.862725172691541   3.439304158752723 1
ion O   5.971404087247739   3.717526212980126   7.205884862387842 1
ion O   0.000696635084942  -0.005700275638023   0.002328592060184 1
ion O   2.212172137929665   7.558188872088422   7.395104272488023 1
ion O   4.797928149114566   0.023182141676494   3.304563569123268 1
ion O   0.884170802553780   3.867736477651344  16.324366031211834 1
ion O   5.966930143841495   3.717927791054635  19.946946800448615 1
ion O   0.052149950198973  -0.020721316682312  12.832274723295543 1
ion O   2.152458491194177   7.520094970768919  20.108216319315066 1
ion O   4.805634531571832   0.020495351636328  16.064833647410566 1
ion O   1.017845655817204  11.472775619107448   3.402569959299868 1
ion O   5.933194367133800  11.322689731285063   7.114270676005455 1
ion O  -0.016588934899949   7.689200404265916  -0.055457365565283 1
ion O   2.166819382743425  15.163510386788090   7.243492094295410 1
ion O   4.770642049575379   7.614376315091661   3.206529430380415 1
ion O   0.827107099817885  11.396643137796499  16.275908211031069 1
ion O   5.940094820100835  11.289378560305014  19.857236825654379 1
ion O  -0.144086697923425   7.564723195019227  12.780671396292876 1
ion O   2.202689572877285  15.141217750841648  20.044020231999156 1
ion O   4.795280940178706   7.603155737783271  16.030220706518019 1
ion O   8.003738598125963   3.846274579372974   1.311559737717360 1
ion O  12.939033312920813   3.717526214249891   5.121587542591509 1
ion O   6.980656123996472  -0.013059130969281  -2.108518423837756 1
ion O   9.167371769946458   7.558899267260634   5.201487154153540 1
ion O  11.777369198129863   0.023182142140169   1.216732860389881 1
ion O   8.225440040398500   3.867736453424266  14.128298034930744 1
ion O  12.966446006225535   3.701628091254622  17.901475083062397 1
ion O   7.003136281757000  -0.020721314276852  10.752955958989267 1
ion O   9.243359035077278   7.520094963626705  17.987043616319305 1
ion O  11.814728430127495  -0.007175619498836  14.051380492911228 1
ion O   7.974374323820217  11.440627242060442   1.213395695590741 1
ion O  12.920658235005998  11.322689731201333   5.024040021169482 1
ion O   6.941775683697214   7.582128374728318  -2.238494202091703 1
ion O   9.148119951869957  15.146959310852687   5.137128195857857 1
ion O  11.746339465809264   7.614376315810796   1.119818591989763 1
ion O   8.246520711597498  11.396643108236926  14.056464106052690 1
ion O  12.939729276346995  11.299943425863564  17.812161557494633 1
ion O   7.138800648530109   7.564723174776076  10.602067759509387 1
ion O   9.166127704700664  15.141217752397347  17.960976636053488 1

# Forces in Cartesian coordinates:
force Nb   0.000038566225782  -0.000143125740873   0.000128923623109 1
force Nb   0.000160167860903   0.000199246153267  -0.000210045701254 1
force Nb   0.000091022869903  -0.000120386314510  -0.000042169325024 1
force Nb  -0.000076355081086   0.000151183416527  -0.000255248562617 1
force Nb  -0.000019009926141   0.000157473303159  -0.000063548571410 1
force Nb  -0.000036800433969  -0.000344358832360   0.000132685007405 1
force Nb  -0.000379820612639  -0.000155996364635   0.000158828699699 1
force Nb  -0.000045378807243  -0.000347939211711  -0.000151697505358 1
force Nb  -0.000016756112443   0.000332367923788  -0.000056014263300 1
force Nb  -0.000249201703507   0.000199246181202  -0.000087586886202 1
force Nb  -0.000099227436828  -0.000120386301527   0.000014742153383 1
force Nb  -0.000013762278249   0.000393145821473  -0.000046006129407 1
force Nb  -0.000055351327697  -0.000408074807735  -0.000185034795756 1
force Nb   0.000103617940930  -0.000344358841942   0.000090680253520 1
force Nb   0.000404646792095  -0.000155996418166  -0.000075836886564 1
force Nb   0.000019335329076  -0.000235905942319   0.000064636365833 1
force O  -0.000000934931147   0.000013017017349  -0.000003125395562 1
force O   0.000048303056357  -0.000131140555797   0.000040904740885 1
force O   0.000026832512852  -0.000021598266904   0.000089698815581 1
force O   0.000007077720692  -0.000155921412933   0.000023660220217 1
force O   0.000074040637328   0.000080604304630   0.000151194918586 1
force O   0.000144096591467   0.000090381017962  -0.000200230331449 1
force O   0.000009638204944  -0.000398107989039   0.000032219701993 1
force O  -0.000125628302303   0.000167890787726   0.000051806866200 1
force O   0.000251804992831  -0.000217274291387  -0.000074049059025 1
force O   0.000035473841266   0.000136924219308   0.000118586043850 1
force O   0.000035205112477  -0.000178728441391   0.000117687706288 1
force O  -0.000067409884928   0.000397697741396   0.000007329096605 1
force O   0.000035728657386   0.000134252712997   0.000119437872535 1
force O  -0.000026023059908  -0.000039059458943  -0.000086992883015 1
force O  -0.000006675013842   0.000089962607738   0.000084364185948 1
force O   0.000159552186927   0.000073030972487  -0.000083620945675 1
force O   0.000060898025949   0.000441942024128   0.000203576937757 1
force O  -0.000013076751389  -0.000018391972557   0.000291976358343 1
force O  -0.000042415445973  -0.000063838459744  -0.000169864765401 1
force O  -0.000004827735695  -0.000189475715810  -0.000016138711128 1
force O  -0.000029546476717  -0.000529236568788  -0.000098771366689 1
force O  -0.000017905868989  -0.000131140551279   0.000060710479388 1
force O   0.000005059495163   0.000037128551825   0.000016913463381 1
force O  -0.000044519934487  -0.000144140200092  -0.000148826366550 1
force O   0.000021149262131   0.000080604308239   0.000167016845021 1
force O  -0.000230380442754   0.000090381043516  -0.000088209268181 1
force O   0.000018141411886  -0.000141421154356   0.000060645201891 1
force O   0.000133440602704   0.000167890770047  -0.000025691008293 1
force O  -0.000251104350673  -0.000217274257069   0.000076391246357 1
force O   0.000016868177652   0.000303556640899   0.000056388887792 1
force O  -0.000051172323516   0.000158418705459  -0.000171064739079 1
force O   0.000060361174157   0.000397697732677  -0.000030892339119 1
force O   0.000051592346012   0.000120735997623   0.000172468838672 1
force O  -0.000037779802418  -0.000046825398622  -0.000126294676479 1
force O   0.000051906300628   0.000089962603740   0.000066840171029 1
force O  -0.000179262213737   0.000073030995607   0.000017731997081 1
force O   0.000003609093887   0.000520219327748   0.000012064894883 1
force O   0.000171264675955  -0.000018391985137   0.000236832462167 1
force O  -0.000057831755599  -0.000063838458692  -0.000165253130406 1

# Energy components:
   Eewald =     -975.1389910271335566
       EH =      493.4145832817973769
     Eloc =    -1558.4388942866630714
      Enl =      247.0132565477641435
      Exc =     -288.7818640236494616
 Exc_core =       29.9476769066218225
       KE =      506.1718976622841524
-------------------------------------
     Etot =    -1545.8123349389784380
       TS =        0.0025318549308772
-------------------------------------
        F =    -1545.8148667939092320

IonicMinimize: Iter:  15  F: -1545.814866793909232  |grad|_K:  1.645e-04  alpha:  4.677e-01  linmin: -3.697e-03  t[s]:  59110.31

#--- Lowdin population analysis ---
# oxidation-state Nb +1.011 +1.009 +1.013 +1.005 +1.005 +1.014 +0.842 +1.010 +1.015 +1.009 +1.013 +0.870 +1.016 +1.014 +0.842 +1.009
# oxidation-state O -0.321 -0.322 -0.369 -0.431 -0.426 -0.327 -0.316 -0.367 -0.413 -0.435 -0.323 -0.317 -0.367 -0.425 -0.428 -0.311 -0.326 -0.369 -0.427 -0.390 -0.318 -0.322 -0.367 -0.426 -0.426 -0.327 -0.322 -0.367 -0.413 -0.414 -0.320 -0.317 -0.373 -0.427 -0.428 -0.311 -0.313 -0.369 -0.427


-------- Electronic minimization -----------
	FillingsUpdate:  mu: +0.297429214  nElectrons: 442.000000
ElecMinimize: Iter:   0  F: -1545.814865491644923  |grad|_K:  3.509e-07  alpha:  1.000e+00
	FillingsUpdate:  mu: +0.297617271  nElectrons: 442.000000
	SubspaceRotationAdjust: set factor to 0.493
ElecMinimize: Iter:   1  F: -1545.814870865973717  |grad|_K:  2.175e-07  alpha:  5.119e-01  linmin:  8.303e-06  t[s]:  59575.73
	FillingsUpdate:  mu: +0.297529398  nElectrons: 442.000000
	SubspaceRotationAdjust: set factor to 0.615
ElecMinimize: Iter:   2  F: -1545.814872821280005  |grad|_K:  1.265e-07  alpha:  4.846e-01  linmin:  1.734e-07  t[s]:  59827.87
	FillingsUpdate:  mu: +0.297530076  nElectrons: 442.000000
	SubspaceRotationAdjust: set factor to 0.758
ElecMinimize: Iter:   3  F: -1545.814873591498554  |grad|_K:  7.010e-08  alpha:  5.645e-01  linmin:  7.677e-07  t[s]:  60074.02
	FillingsUpdate:  mu: +0.297546886  nElectrons: 442.000000
	SubspaceRotationAdjust: set factor to 0.708
ElecMinimize: Iter:   4  F: -1545.814873792558956  |grad|_K:  3.140e-08  alpha:  4.795e-01  linmin: -1.419e-06  t[s]:  60326.39
	FillingsUpdate:  mu: +0.297538804  nElectrons: 442.000000
	SubspaceRotationAdjust: set factor to 0.565
ElecMinimize: Iter:   5  F: -1545.814873825623863  |grad|_K:  1.469e-08  alpha:  3.929e-01  linmin: -4.383e-06  t[s]:  60578.74
	FillingsUpdate:  mu: +0.297539723  nElectrons: 442.000000
	SubspaceRotationAdjust: set factor to 0.52
ElecMinimize: Iter:   6  F: -1545.814873833223601  |grad|_K:  6.518e-09  alpha:  4.125e-01  linmin: -2.643e-06  t[s]:  60828.01
	FillingsUpdate:  mu: +0.297541054  nElectrons: 442.000000
	SubspaceRotationAdjust: set factor to 0.518
ElecMinimize: Iter:   7  F: -1545.814873834728132  |grad|_K:  3.173e-09  alpha:  4.171e-01  linmin: -1.602e-05  t[s]:  61079.38
ElecMinimize: Converged (|Delta F|<1.000000e-08 for 2 iters).
Setting wave functions to eigenvectors of Hamiltonian

# Ionic positions in cartesian coordinates:
ion Nb   1.027281227072789   0.491586368422864   3.434114807075353 1
ion Nb   5.978983890511804   7.088183181037208   7.205342410707738 1
ion Nb   1.034052482330390   0.481169074461657  16.265004253368563 1
ion Nb   5.969974531596814   7.083364524879073  19.957123160236552 1
ion Nb   1.006833763113264   8.100321497442785   3.365758905960657 1
ion Nb   5.924811670312640  14.689948936431996   7.096447273366014 1
ion Nb   1.043145101855081   8.041092681762423  16.182120453419500 1
ion Nb   5.956789528802330  14.665765098665750  19.913045051078946 1
ion Nb   8.014541473052530   0.477700031794952   1.347673603091615 1
ion Nb  12.932401183977136   7.088183183276802   5.125296448435385 1
ion Nb   8.067581028968489   0.481169071234533  14.160993810126630 1
ion Nb  12.982679390468556   7.071693802135582  17.955741139933803 1
ion Nb   7.978216703542207   8.071471896506065   1.226241215612890 1
ion Nb  12.917876778075781  14.689948935966060   5.004541063580413 1
ion Nb   8.014468170320765   8.041092682780148  14.096718157458092 1
ion Nb  12.942139646104087  14.666687766417846  17.820218448867145 1
ion O   1.028954310862206   3.862351440925289   3.439707013965668 1
ion O   5.971654314252807   3.717300769179064   7.205848941203882 1
ion O   0.000729171259644  -0.006214964775420   0.002437357733769 1
ion O   2.212274977848461   7.557671907010699   7.395448057617699 1
ion O   4.798164092770571   0.023732882734321   3.305072542949795 1
ion O   0.885004922077064   3.867774865079278  16.323816581216562 1
ion O   5.966667675739122   3.717701191530046  19.946069391834659 1
ion O   0.051854447290484  -0.020128633400349  12.832711522157833 1
ion O   2.152421657998765   7.519195447009250  20.107934945110632 1
ion O   4.805652909834093   0.020859516823589  16.064895084383185 1
ion O   1.018152064032494  11.472883310550436   3.403594255986020 1
ion O   5.932692325303561  11.323400069719334   7.113796537296180 1
ion O  -0.016496252096352   7.690043546072030  -0.055147534810587 1
ion O   2.166729982376062  15.163153638982530   7.243193236446759 1
ion O   4.770439260747420   7.614633683904100   3.207173288855173 1
ion O   0.828066388461382  11.396953216095007  16.275535362087858 1
ion O   5.940048792685449  11.289996051395692  19.857082959906982 1
ion O  -0.145059705061487   7.564702270024507  12.781518693685417 1
ion O   2.202356594830360  15.140628512215969  20.043898236810314 1
ion O   4.795473466417442   7.602237218547811  16.030864305411558 1
ion O   8.003642322723595   3.845145599987899   1.311237897209548 1
ion O  12.938804464902098   3.717300770481521   5.121694931914321 1
ion O   6.980436981267600  -0.013307216898182  -2.109250999401259 1
ion O   9.167118111499356   7.558520249061258   5.200639195470260 1
ion O  11.777451511050208   0.023732883208479   1.217287791316010 1
ion O   8.224441216358080   3.867774840977278  14.128296891689033 1
ion O  12.966709049598672   3.702119169314539  17.902354414757738 1
ion O   7.003623106376935  -0.020128631048274  10.753158732387911 1
ion O   9.243235303718592   7.519195439872965  17.986788236832190 1
ion O  11.814632280974255  -0.005842945542586  14.051059074443558 1
ion O   7.974212193890229  11.440780025308380   1.212853708980316 1
ion O  12.920817437715090  11.323400069590482   5.023368077762971 1
ion O   6.941853588594193   7.582066660823844  -2.238233772625952 1
ion O   9.147946665757248  15.146569083160539   5.136548915074410 1
ion O  11.746862511298104   7.614633684573706   1.120245324380691 1
ion O   8.245514258743301  11.396953186669574  14.056679289038161 1
ion O  12.939887930618196  11.300649694257444  17.812691925272411 1
ion O   7.140079105198191   7.564702249627718  10.602241553999409 1
ion O   9.166338991981894  15.140628513734530  17.960691829329662 1

# Forces in Cartesian coordinates:
force Nb   0.000026084035411  -0.000092999451698   0.000087196718950 1
force Nb   0.000106973771877   0.000146810444126  -0.000104738663718 1
force Nb   0.000018263249663  -0.000008718839813  -0.000005346099554 1
force Nb  -0.000029156464492  -0.000089885427617  -0.000097467588885 1
force Nb   0.000011077968336   0.000074685165563   0.000037032708948 1
force Nb  -0.000019218741588  -0.000160952380271   0.000030424025520 1
force Nb  -0.000077943575455  -0.000075868665765   0.000035694875141 1
force Nb  -0.000017005647951  -0.000091835281936  -0.000056848439347 1
force Nb  -0.000017805057704   0.000126828910451  -0.000059520798374 1
force Nb  -0.000146917443304   0.000146810461451  -0.000028789643404 1
force Nb  -0.000018198907361  -0.000008718837325   0.000005561190414 1
force Nb  -0.000018832400514   0.000071843425284  -0.000062955118289 1
force Nb  -0.000071957261390  -0.000292637294003  -0.000240547024225 1
force Nb   0.000032768745336  -0.000160952383819   0.000014872488229 1
force Nb   0.000084741294066  -0.000075868676866  -0.000012970678140 1
force Nb   0.000018834808462   0.000090421580195   0.000062963167857 1
force O  -0.000008306252703   0.000057201327440  -0.000027767098575 1
force O   0.000049013896664  -0.000005017330716   0.000049419914955 1
force O   0.000041009182171  -0.000008672178067   0.000137090219203 1
force O   0.000019988965182  -0.000145411445432   0.000066821415922 1
force O   0.000041652351839   0.000051370005034   0.000119452536309 1
force O   0.000126443415616   0.000053335526071  -0.000168415765254 1
force O   0.000018627805366  -0.000194805781747   0.000062271174057 1
force O  -0.000130256122625   0.000117392744023  -0.000010588033539 1
force O   0.000171555745568  -0.000141595033791  -0.000018232133277 1
force O   0.000036216734880   0.000100282683004   0.000121069474215 1
force O   0.000027636152111  -0.000137219193473   0.000092385313489 1
force O  -0.000037213373314   0.000137521752785   0.000058118390210 1
force O   0.000019043304481   0.000142498953237   0.000063660152370 1
force O  -0.000008411353078  -0.000009407504545  -0.000028118440218 1
force O   0.000061692372339   0.000070667432160   0.000029981612667 1
force O   0.000121214963547  -0.000039134810129  -0.000055654808903 1
force O   0.000057410088518   0.000117527923569   0.000191917058637 1
force O  -0.000072834948947  -0.000013526473879   0.000180581139300 1
force O  -0.000028873547805  -0.000039234747967  -0.000172474762253 1
force O  -0.000020701934229  -0.000116749779284  -0.000069204810998 1
force O  -0.000029366675567  -0.000217125927134  -0.000098170306687 1
force O  -0.000013823912756  -0.000005017326428   0.000068217217811 1
force O   0.000020009994845   0.000057450301895   0.000066891716301 1
force O  -0.000022715767868  -0.000130145995144  -0.000075936886120 1
force O   0.000030786100052   0.000051370005776   0.000122703066964 1
force O  -0.000198156485650   0.000053335548221  -0.000071314947971 1
force O   0.000016858482517   0.000050986312777   0.000056356477778 1
force O   0.000103044645538   0.000117392728103  -0.000080377627352 1
force O  -0.000153386304485  -0.000141595011617   0.000078971034396 1
force O   0.000025257837064   0.000234110800068   0.000084434807925 1
force O  -0.000046140607487  -0.000002830229718  -0.000154244138987 1
force O   0.000063015497914   0.000137521745946   0.000028135924801 1
force O   0.000004191399695   0.000100687750658   0.000014011493830 1
force O  -0.000014563103636  -0.000047627280299  -0.000048683220783 1
force O  -0.000035094055491   0.000070667438765   0.000058934305527 1
force O  -0.000131865303777  -0.000039134792859   0.000020051624461 1
force O  -0.000005103915760   0.000204564011386  -0.000017061957672 1
force O   0.000160034775478  -0.000013526489770   0.000110920487913 1
force O  -0.000070582382578  -0.000039234745121  -0.000159997981057 1

# Energy components:
   Eewald =     -975.1187864406008430
       EH =      493.4337683529849983
     Eloc =    -1558.4779809616345574
      Enl =      247.0129229616354110
      Exc =     -288.7819062438215951
 Exc_core =       29.9476764592087754
       KE =      506.1719312129066566
-------------------------------------
     Etot =    -1545.8123746593209944
       TS =        0.0024991754070771
-------------------------------------
        F =    -1545.8148738347281324

IonicMinimize: Iter:  16  F: -1545.814873834728132  |grad|_K:  9.369e-05  alpha:  1.000e+00  linmin: -5.701e-01  t[s]:  61137.10
IonicMinimize: Converged (|grad|_K<1.000000e-04).

#--- Lowdin population analysis ---
# oxidation-state Nb +1.011 +1.009 +1.013 +1.005 +1.005 +1.014 +0.841 +1.010 +1.015 +1.009 +1.013 +0.870 +1.016 +1.014 +0.841 +1.009
# oxidation-state O -0.321 -0.322 -0.369 -0.431 -0.426 -0.328 -0.316 -0.367 -0.413 -0.435 -0.323 -0.317 -0.367 -0.425 -0.428 -0.312 -0.326 -0.369 -0.427 -0.391 -0.318 -0.322 -0.368 -0.426 -0.426 -0.328 -0.322 -0.367 -0.413 -0.415 -0.320 -0.317 -0.373 -0.427 -0.428 -0.312 -0.313 -0.369 -0.427


Dumping 'Nb2O5.Ecomponents' ... done
End date and time: Sat Dec  9 07:59:18 2023  (Duration: 0-16:59:39.99)
Done!
