--------------------------------------------------------------------------
Initialization of PSM library failed.

  Error: PSM is in the finalized state
--------------------------------------------------------------------------

*************** JDFTx 1.7.0 (git hash 3664913) ***************

Start date and time: Mon Jun 24 13:26:20 2024
Executable jdftx with command-line: -i Rh_tet.in
Running on hosts (process indices):  node3104.physics.cornell.edu (0-15)
Divided in process groups (process indices):  0 (0)  1 (1)  2 (2)  3 (3)  4 (4)  5 (5)  6 (6)  7 (7)  8 (8)  9 (9)  10 (10)  11 (11)  12 (12)  13 (13)  14 (14)  15 (15)
Resource initialization completed at t[s]:      0.00
Run totals: 16 processes, 32 threads, 0 GPUs


Input parsed successfully to the following command list (including defaults):

basis kpoint-dependent
coords-type Lattice
core-overlap-check vector
coulomb-interaction Periodic
davidson-band-ratio 1.1
dump End Ecomponents
dump-name /data/rc652/Rh/tet/Rh_tet.$VAR
elec-cutoff 20 100
elec-eigen-algo Davidson
elec-ex-corr gga-PBEsol
elec-smearing Fermi 0.01
electronic-minimize  \
	dirUpdateScheme      FletcherReeves \
	linminMethod         DirUpdateRecommended \
	nIterations          100 \
	history              15 \
	knormThreshold       0 \
	maxThreshold         no \
	energyDiffThreshold  1e-08 \
	nEnergyDiff          2 \
	alphaTstart          1 \
	alphaTmin            1e-10 \
	updateTestStepSize   yes \
	alphaTreduceFactor   0.1 \
	alphaTincreaseFactor 3 \
	nAlphaAdjustMax      3 \
	wolfeEnergy          0.0001 \
	wolfeGradient        0.9 \
	fdTest               no
electronic-scf  \
	nIterations	50 \
	energyDiffThreshold	1e-08 \
	residualThreshold	1e-07 \
	mixFraction	0.5 \
	qMetric	0.8 \
	history	10 \
	nEigSteps	2 \
	eigDiffThreshold	1e-08 \
	mixedVariable	Density \
	qKerker	0.8 \
	qKappa	-1 \
	verbose	no \
	mixFractionMag	1.5
exchange-regularization WignerSeitzTruncated
fluid None
fluid-ex-corr lda-TF lda-PZ
fluid-gummel-loop 10 1.000000e-05
fluid-minimize  \
	dirUpdateScheme      PolakRibiere \
	linminMethod         DirUpdateRecommended \
	nIterations          100 \
	history              15 \
	knormThreshold       0 \
	maxThreshold         no \
	energyDiffThreshold  0 \
	nEnergyDiff          2 \
	alphaTstart          1 \
	alphaTmin            1e-10 \
	updateTestStepSize   yes \
	alphaTreduceFactor   0.1 \
	alphaTincreaseFactor 3 \
	nAlphaAdjustMax      3 \
	wolfeEnergy          0.0001 \
	wolfeGradient        0.9 \
	fdTest               no
fluid-solvent H2O 55.338 ScalarEOS \
	epsBulk 78.4 \
	pMol 0.92466 \
	epsInf 1.77 \
	Pvap 1.06736e-10 \
	sigmaBulk 4.62e-05 \
	Rvdw 2.61727 \
	Res 1.42 \
	tauNuc 343133 \
	poleEl 15 7 1
forces-output-coords Positions
ion Rh  -0.000000000000000  -0.000000000000000   0.000000000000000 0
ion Rh  -0.001860000000000   0.251250000000000   0.251150000000000 1
ion Rh   0.257370000000000  -0.007300000000000   0.257540000000000 1
ion Rh   0.263370000000000   0.244490000000000  -0.013480000000000 1
ion Rh   0.015020000000000   0.014370000000000   0.485190000000000 1
ion Rh   0.000200000000000   0.264490000000000   0.749460000000000 1
ion Rh   0.258180000000000  -0.017990000000000   0.759580000000000 1
ion Rh   0.242700000000000   0.252730000000000   0.489190000000000 1
ion Rh   0.001630000000000   0.495140000000000  -0.000840000000000 1
ion Rh   0.003640000000000   0.757280000000000   0.251030000000000 1
ion Rh   0.244830000000000   0.479010000000000   0.252970000000000 1
ion Rh   0.270350000000000   0.737650000000000  -0.000440000000000 1
ion Rh  -0.004810000000000   0.512310000000000   0.501690000000000 1
ion Rh  -0.001060000000000   0.753180000000000   0.768440000000000 1
ion Rh   0.247640000000000   0.507370000000000   0.748360000000000 1
ion Rh   0.249760000000000   0.763070000000000   0.490080000000000 1
ion Rh   0.510950000000000  -0.013250000000000  -0.004300000000000 1
ion Rh   0.497310000000000   0.262550000000000   0.254410000000000 1
ion Rh   0.753240000000000   0.005040000000000   0.260320000000000 1
ion Rh   0.723010000000000   0.246830000000000   0.008650000000000 1
ion Rh   0.494050000000000  -0.003120000000000   0.515860000000000 1
ion Rh   0.501400000000000   0.268340000000000   0.743900000000000 1
ion Rh   0.744480000000000  -0.005540000000000   0.735640000000000 1
ion Rh   0.759540000000000   0.246280000000000   0.489200000000000 1
ion Rh   0.496290000000000   0.506650000000000   0.007320000000000 1
ion Rh   0.508590000000000   0.762350000000000   0.243480000000000 1
ion Rh   0.747960000000000   0.509910000000000   0.246820000000000 1
ion Rh   0.754620000000000   0.762490000000000  -0.006090000000000 1
ion Rh   0.512370000000000   0.500430000000000   0.503600000000000 1
ion Rh   0.499120000000000   0.748010000000000   0.756860000000000 1
ion Rh   0.747150000000000   0.501350000000000   0.749500000000000 1
ion Rh   0.761350000000000   0.760380000000000   0.503910000000000 1
ion O   0.120000000000000   0.120000000000000   0.130000000000000 1
ion-species GBRV/$ID_pbesol.uspp
ion-width 0
ionic-minimize  \
	dirUpdateScheme      L-BFGS \
	linminMethod         DirUpdateRecommended \
	nIterations          30 \
	history              15 \
	knormThreshold       0.0001 \
	maxThreshold         no \
	energyDiffThreshold  1e-06 \
	nEnergyDiff          2 \
	alphaTstart          1 \
	alphaTmin            1e-10 \
	updateTestStepSize   yes \
	alphaTreduceFactor   0.1 \
	alphaTincreaseFactor 3 \
	nAlphaAdjustMax      3 \
	wolfeEnergy          0.0001 \
	wolfeGradient        0.9 \
	fdTest               no
kpoint   0.000000000000   0.000000000000   0.000000000000  1.00000000000000
kpoint-folding 4 4 4 
latt-move-scale 1 1 1
latt-scale 1 1 1 
lattice  \
	  14.320028492550160    0.000000000000000    0.000000000000000  \
	   0.000000000000000   14.320028492550160    0.000000000000000  \
	   0.000000000000000    0.000000000000000   14.320028492550160 
lattice-minimize  \
	dirUpdateScheme      L-BFGS \
	linminMethod         DirUpdateRecommended \
	nIterations          0 \
	history              15 \
	knormThreshold       0 \
	maxThreshold         no \
	energyDiffThreshold  1e-06 \
	nEnergyDiff          2 \
	alphaTstart          1 \
	alphaTmin            1e-10 \
	updateTestStepSize   yes \
	alphaTreduceFactor   0.1 \
	alphaTincreaseFactor 3 \
	nAlphaAdjustMax      3 \
	wolfeEnergy          0.0001 \
	wolfeGradient        0.9 \
	fdTest               no
lcao-params -1 1e-06 0.01
pcm-variant GLSSA13
perturb-minimize  \
	nIterations            0 \
	algorithm              MINRES \
	residualTol            0.0001 \
	residualDiffThreshold  0.0001 \
	CGBypass               no \
	recomputeResidual      no
spintype no-spin
subspace-rotation-factor 1 yes
symmetries automatic
symmetry-threshold 0.0001



---------- Setting up symmetries ----------

Found 48 point-group symmetries of the bravais lattice
Found 1 space-group symmetries with basis
Applied RMS atom displacement 0 bohrs to make symmetries exact.

---------- Initializing the Grid ----------
R = 
[        14.32            0            0  ]
[            0        14.32            0  ]
[            0            0        14.32  ]
unit cell volume = 2936.51
G =
[   0.438769          0          0  ]
[          0   0.438769          0  ]
[          0          0   0.438769  ]
Minimum fftbox size, Smin = [  68  68  68  ]
Chosen fftbox size, S = [  70  70  70  ]

---------- Initializing tighter grid for wavefunction operations ----------
R = 
[        14.32            0            0  ]
[            0        14.32            0  ]
[            0            0        14.32  ]
unit cell volume = 2936.51
G =
[   0.438769          0          0  ]
[          0   0.438769          0  ]
[          0          0   0.438769  ]
Minimum fftbox size, Smin = [  60  60  60  ]
Chosen fftbox size, S = [  60  60  60  ]

---------- Exchange Correlation functional ----------
Initalized PBEsol GGA exchange.
Initalized PBEsol GGA correlation.

---------- Setting up pseudopotentials ----------
Width of ionic core gaussian charges (only for fluid interactions / plotting) set to 0

Reading pseudopotential file '/home/rc652/build/pseudopotentials/GBRV/rh_pbesol.uspp':
  Title: Rh.  Created by USPP 7.3.6 on 22-9-15
  Reference state energy: -85.126402.  15 valence electrons in orbitals:
    |410>  occupation: 6  eigenvalue: -2.052761
    |420>  occupation: 7.5  eigenvalue: -0.406047
    |500>  occupation: 1  eigenvalue: -0.295592
    |510>  occupation: 0  eigenvalue: -0.135033
  lMax: 2  lLocal: 3  QijEcut: 6.5
  7 projectors sampled on a log grid with 711 points:
    l: 0  eig: -0.295592  rCut: 2.5
    l: 0  eig: 1.000000  rCut: 2.5
    l: 1  eig: -2.052761  rCut: 1.55
    l: 1  eig: -0.135033  rCut: 1.55
    l: 2  eig: -0.406047  rCut: 1.6
    l: 2  eig: 1.500000  rCut: 1.6
    l: 2  eig: -1.500000  rCut: 1.6
  Partial core density with radius 1
  Transforming core density to a uniform radial grid of dG=0.02 with 1335 points.
  Transforming local potential to a uniform radial grid of dG=0.02 with 1335 points.
  Transforming nonlocal projectors to a uniform radial grid of dG=0.02 with 432 points.
  Transforming density augmentations to a uniform radial grid of dG=0.02 with 1335 points.
  Transforming atomic orbitals to a uniform radial grid of dG=0.02 with 432 points.
  Core radius for overlap checks: 2.50 bohrs.

Reading pseudopotential file '/home/rc652/build/pseudopotentials/GBRV/o_pbesol.uspp':
  Title: O.  Created by USPP 7.3.6 on 3-2-2014
  Reference state energy: -15.849885.  6 valence electrons in orbitals:
    |200>  occupation: 2  eigenvalue: -0.873214
    |210>  occupation: 4  eigenvalue: -0.330058
  lMax: 2  lLocal: 2  QijEcut: 6
  5 projectors sampled on a log grid with 511 points:
    l: 0  eig: -0.873214  rCut: 1.25
    l: 0  eig: 0.000000  rCut: 1.25
    l: 1  eig: -0.330058  rCut: 1.25
    l: 1  eig: 0.000000  rCut: 1.25
    l: 2  eig: 1.000000  rCut: 1.25
  Partial core density with radius 0.7
  Transforming core density to a uniform radial grid of dG=0.02 with 1335 points.
  Transforming local potential to a uniform radial grid of dG=0.02 with 1335 points.
  Transforming nonlocal projectors to a uniform radial grid of dG=0.02 with 432 points.
  Transforming density augmentations to a uniform radial grid of dG=0.02 with 1335 points.
  Transforming atomic orbitals to a uniform radial grid of dG=0.02 with 432 points.
  Core radius for overlap checks: 1.25 bohrs.

Initialized 2 species with 33 total atoms.

Folded 1 k-points by 4x4x4 to 64 k-points.

---------- Setting up k-points, bands, fillings ----------
Adding inversion symmetry to k-mesh for non-inversion-symmetric unit cell.
Reduced to 36 k-points under symmetry. 
Computing the number of bands and number of electrons
Calculating initial fillings.
nElectrons: 486.000000   nBands: 388   nStates: 36

----- Setting up reduced wavefunction bases (one per k-point) -----
average nbasis = 12543.859 , ideal nbasis = 12544.999

---------- Setting up ewald sum ----------
Optimum gaussian width for ewald sums = 3.189836 bohr.
Real space sum over 729 unit cells with max indices [  4  4  4  ]
Reciprocal space sum over 4913 terms with max indices [  8  8  8  ]

---------- Allocating electronic variables ----------
Initializing wave functions:  linear combination of atomic orbitals
Rh pseudo-atom occupations:   s ( 0 )  p ( 6 0 )  d ( 9 )
O pseudo-atom occupations:   s ( 2 )  p ( 4 )
	FillingsUpdate:  mu: +0.718411632  nElectrons: 486.000000
LCAOMinimize: Iter:   0  F: -2621.7959141090273079  |grad|_K:  1.841e-03  alpha:  1.000e+00
	FillingsUpdate:  mu: +0.794176732  nElectrons: 486.000000
LCAOMinimize: Iter:   1  F: -2623.7368644458447307  |grad|_K:  2.163e-03  alpha:  1.653e-01  linmin: -4.755e-02  cgtest:  1.742e-01  t[s]:    121.25
	FillingsUpdate:  mu: +0.822153200  nElectrons: 486.000000
LCAOMinimize: Iter:   2  F: -2625.7903639453470532  |grad|_K:  1.580e-03  alpha:  1.292e-01  linmin:  1.040e-02  cgtest: -3.942e-01  t[s]:    161.04
	FillingsUpdate:  mu: +0.817611371  nElectrons: 486.000000
LCAOMinimize: Iter:   3  F: -2626.2309490047841791  |grad|_K:  7.952e-04  alpha:  6.683e-02  linmin: -5.958e-03  cgtest:  6.991e-01  t[s]:    200.61
LCAOMinimize: Encountered beta<0, resetting CG.
	FillingsUpdate:  mu: +0.817213489  nElectrons: 486.000000
LCAOMinimize: Iter:   4  F: -2626.3555316305896667  |grad|_K:  6.272e-04  alpha:  7.239e-02  linmin:  2.281e-03  cgtest:  1.366e-02  t[s]:    240.51
	FillingsUpdate:  mu: +0.815210355  nElectrons: 486.000000
LCAOMinimize: Iter:   5  F: -2626.4879504703285420  |grad|_K:  1.657e-04  alpha:  1.216e-01  linmin: -4.203e-02  cgtest:  3.627e-02  t[s]:    281.25
	FillingsUpdate:  mu: +0.816345504  nElectrons: 486.000000
LCAOMinimize: Iter:   6  F: -2626.4947476698439459  |grad|_K:  1.009e-04  alpha:  8.685e-02  linmin:  5.415e-04  cgtest: -8.444e-02  t[s]:    321.41
	FillingsUpdate:  mu: +0.817519070  nElectrons: 486.000000
LCAOMinimize: Iter:   7  F: -2626.4973970585251664  |grad|_K:  9.262e-05  alpha:  9.569e-02  linmin:  1.154e-03  cgtest:  3.444e-02  t[s]:    362.11
	FillingsUpdate:  mu: +0.819566392  nElectrons: 486.000000
LCAOMinimize: Iter:   8  F: -2626.5009222679022969  |grad|_K:  5.169e-05  alpha:  1.519e-01  linmin:  1.530e-03  cgtest:  9.131e-03  t[s]:    401.40
	FillingsUpdate:  mu: +0.820242403  nElectrons: 486.000000
LCAOMinimize: Iter:   9  F: -2626.5016854887790032  |grad|_K:  2.381e-05  alpha:  1.053e-01  linmin:  3.331e-05  cgtest:  8.650e-03  t[s]:    442.28
	FillingsUpdate:  mu: +0.820349242  nElectrons: 486.000000
LCAOMinimize: Iter:  10  F: -2626.5018081860521306  |grad|_K:  1.767e-05  alpha:  7.941e-02  linmin:  4.072e-05  cgtest: -1.370e-03  t[s]:    482.00
	FillingsUpdate:  mu: +0.820489280  nElectrons: 486.000000
LCAOMinimize: Iter:  11  F: -2626.5018881002465605  |grad|_K:  8.576e-06  alpha:  9.396e-02  linmin:  4.169e-04  cgtest:  1.249e-03  t[s]:    521.63
	FillingsUpdate:  mu: +0.820510903  nElectrons: 486.000000
LCAOMinimize: Iter:  12  F: -2626.5019052282245866  |grad|_K:  3.695e-06  alpha:  8.558e-02  linmin:  2.166e-05  cgtest:  4.778e-03  t[s]:    560.88
	FillingsUpdate:  mu: +0.820491521  nElectrons: 486.000000
LCAOMinimize: Iter:  13  F: -2626.5019078519462710  |grad|_K:  2.435e-06  alpha:  7.055e-02  linmin: -2.302e-07  cgtest: -8.973e-05  t[s]:    601.31
	FillingsUpdate:  mu: +0.820465661  nElectrons: 486.000000
LCAOMinimize: Iter:  14  F: -2626.5019111278847959  |grad|_K:  2.646e-06  alpha:  2.029e-01  linmin:  3.248e-05  cgtest: -1.699e-04  t[s]:    640.99
	FillingsUpdate:  mu: +0.820436776  nElectrons: 486.000000
LCAOMinimize: Iter:  15  F: -2626.5019134655112794  |grad|_K:  1.951e-06  alpha:  1.226e-01  linmin:  4.681e-06  cgtest:  3.031e-04  t[s]:    680.82
	FillingsUpdate:  mu: +0.820426057  nElectrons: 486.000000
LCAOMinimize: Iter:  16  F: -2626.5019140763561154  |grad|_K:  7.014e-07  alpha:  5.894e-02  linmin: -1.255e-04  cgtest:  5.416e-04  t[s]:    721.80
	FillingsUpdate:  mu: +0.820425393  nElectrons: 486.000000
LCAOMinimize: Iter:  17  F: -2626.5019142630812894  |grad|_K:  5.088e-07  alpha:  1.389e-01  linmin: -6.073e-04  cgtest:  2.180e-03  t[s]:    761.22
LCAOMinimize: Converged (|Delta F|<1.000000e-06 for 2 iters).


---- Citations for features of the code used in this run ----

   Software package:
      R. Sundararaman, K. Letchworth-Weaver, K.A. Schwarz, D. Gunceler, Y. Ozhabes and T.A. Arias, 'JDFTx: software for joint density-functional theory', SoftwareX 6, 278 (2017)

   gga-PBEsol exchange-correlation functional:
      J.P. Perdew et al., Phys. Rev. Lett. 100, 136406 (2008)

   Pseudopotentials:
      KF Garrity, JW Bennett, KM Rabe and D Vanderbilt, Comput. Mater. Sci. 81, 446 (2014)

This list may not be complete. Please suggest additional citations or
report any other bugs at https://github.com/shankar1729/jdftx/issues

Initialization completed successfully at t[s]:    783.25


-------- Electronic minimization -----------
Will mix electronic density at each iteration.
	FillingsUpdate:  mu: +0.820425393  nElectrons: 486.000000
	FillingsUpdate:  mu: +0.818577394  nElectrons: 486.000000
SCF: Cycle:  0   F: -2627.053205303248433   dF: -5.513e-01   |Residual|: 3.441e-01   |deigs|: 1.101e-01  t[s]:    980.68
	FillingsUpdate:  mu: +0.803422395  nElectrons: 486.000000
SCF: Cycle:  1   F: -2627.181240301048547   dF: -1.280e-01   |Residual|: 1.142e-01   |deigs|: 1.428e-02  t[s]:   1148.63
	FillingsUpdate:  mu: +0.803772314  nElectrons: 486.000000
SCF: Cycle:  2   F: -2627.141449738206575   dF: +3.979e-02   |Residual|: 9.215e-02   |deigs|: 2.338e-03  t[s]:   1317.16
	FillingsUpdate:  mu: +0.803264052  nElectrons: 486.000000
SCF: Cycle:  3   F: -2627.156485504931879   dF: -1.504e-02   |Residual|: 8.130e-02   |deigs|: 2.181e-03  t[s]:   1491.06
	FillingsUpdate:  mu: +0.803233456  nElectrons: 486.000000
SCF: Cycle:  4   F: -2627.174491284780288   dF: -1.801e-02   |Residual|: 5.485e-02   |deigs|: 6.271e-04  t[s]:   1602.51
	FillingsUpdate:  mu: +0.803256801  nElectrons: 486.000000
SCF: Cycle:  5   F: -2627.190618794720194   dF: -1.613e-02   |Residual|: 1.934e-02   |deigs|: 4.523e-04  t[s]:   1701.57
	FillingsUpdate:  mu: +0.803212798  nElectrons: 486.000000
SCF: Cycle:  6   F: -2627.191075490856292   dF: -4.567e-04   |Residual|: 1.527e-02   |deigs|: 1.285e-04  t[s]:   1798.86
	FillingsUpdate:  mu: +0.803199546  nElectrons: 486.000000
SCF: Cycle:  7   F: -2627.192244614631818   dF: -1.169e-03   |Residual|: 3.099e-03   |deigs|: 6.273e-05  t[s]:   1894.87
	FillingsUpdate:  mu: +0.803187663  nElectrons: 486.000000
SCF: Cycle:  8   F: -2627.192186940665579   dF: +5.767e-05   |Residual|: 4.208e-03   |deigs|: 2.697e-05  t[s]:   1992.25
	FillingsUpdate:  mu: +0.803182640  nElectrons: 486.000000
SCF: Cycle:  9   F: -2627.192271229073413   dF: -8.429e-05   |Residual|: 1.062e-03   |deigs|: 1.810e-05  t[s]:   2089.94
	FillingsUpdate:  mu: +0.803183428  nElectrons: 486.000000
SCF: Cycle: 10   F: -2627.192276438839599   dF: -5.210e-06   |Residual|: 5.245e-04   |deigs|: 6.161e-06  t[s]:   2185.74
	FillingsUpdate:  mu: +0.803187282  nElectrons: 486.000000
SCF: Cycle: 11   F: -2627.192276892273185   dF: -4.534e-07   |Residual|: 4.152e-04   |deigs|: 4.585e-06  t[s]:   2282.19
	FillingsUpdate:  mu: +0.803186335  nElectrons: 486.000000
SCF: Cycle: 12   F: -2627.192277620164077   dF: -7.279e-07   |Residual|: 1.895e-04   |deigs|: 2.972e-06  t[s]:   2378.17
	FillingsUpdate:  mu: +0.803186283  nElectrons: 486.000000
SCF: Cycle: 13   F: -2627.192277717499564   dF: -9.734e-08   |Residual|: 9.821e-05   |deigs|: 1.513e-06  t[s]:   2476.81
	FillingsUpdate:  mu: +0.803186219  nElectrons: 486.000000
SCF: Cycle: 14   F: -2627.192277754111274   dF: -3.661e-08   |Residual|: 4.666e-05   |deigs|: 1.255e-06  t[s]:   2573.90
	FillingsUpdate:  mu: +0.803186331  nElectrons: 486.000000
SCF: Cycle: 15   F: -2627.192277756921158   dF: -2.810e-09   |Residual|: 3.984e-05   |deigs|: 1.192e-06  t[s]:   2670.20
	FillingsUpdate:  mu: +0.803186346  nElectrons: 486.000000
SCF: Cycle: 16   F: -2627.192277763673246   dF: -6.752e-09   |Residual|: 1.783e-05   |deigs|: 1.053e-06  t[s]:   2766.37
SCF: Converged (|Delta E|<1.000000e-08 for 2 iters).

Setting wave functions to eigenvectors of Hamiltonian

# Ionic positions in lattice coordinates:
ion Rh   0.000000000000000   0.000000000000000   0.000000000000000 0
ion Rh  -0.001860000000000   0.251250000000000   0.251150000000000 1
ion Rh   0.257370000000000  -0.007300000000000   0.257540000000000 1
ion Rh   0.263370000000000   0.244490000000000  -0.013480000000000 1
ion Rh   0.015020000000000   0.014370000000000   0.485190000000000 1
ion Rh   0.000200000000000   0.264490000000000   0.749460000000000 1
ion Rh   0.258180000000000  -0.017990000000000   0.759580000000000 1
ion Rh   0.242700000000000   0.252730000000000   0.489190000000000 1
ion Rh   0.001630000000000   0.495140000000000  -0.000840000000000 1
ion Rh   0.003640000000000   0.757280000000000   0.251030000000000 1
ion Rh   0.244830000000000   0.479010000000000   0.252970000000000 1
ion Rh   0.270350000000000   0.737650000000000  -0.000440000000000 1
ion Rh  -0.004810000000000   0.512310000000000   0.501690000000000 1
ion Rh  -0.001060000000000   0.753180000000000   0.768440000000000 1
ion Rh   0.247640000000000   0.507370000000000   0.748360000000000 1
ion Rh   0.249760000000000   0.763070000000000   0.490080000000000 1
ion Rh   0.510950000000000  -0.013250000000000  -0.004300000000000 1
ion Rh   0.497310000000000   0.262550000000000   0.254410000000000 1
ion Rh   0.753240000000000   0.005040000000000   0.260320000000000 1
ion Rh   0.723010000000000   0.246830000000000   0.008650000000000 1
ion Rh   0.494050000000000  -0.003120000000000   0.515860000000000 1
ion Rh   0.501400000000000   0.268340000000000   0.743900000000000 1
ion Rh   0.744480000000000  -0.005540000000000   0.735640000000000 1
ion Rh   0.759540000000000   0.246280000000000   0.489200000000000 1
ion Rh   0.496290000000000   0.506650000000000   0.007320000000000 1
ion Rh   0.508590000000000   0.762350000000000   0.243480000000000 1
ion Rh   0.747960000000000   0.509910000000000   0.246820000000000 1
ion Rh   0.754620000000000   0.762490000000000  -0.006090000000000 1
ion Rh   0.512370000000000   0.500430000000000   0.503600000000000 1
ion Rh   0.499120000000000   0.748010000000000   0.756860000000000 1
ion Rh   0.747150000000000   0.501350000000000   0.749500000000000 1
ion Rh   0.761350000000000   0.760380000000000   0.503910000000000 1
ion O   0.120000000000000   0.120000000000000   0.130000000000000 1

# Forces in Lattice coordinates:
force Rh  -2.146391179041902  -1.911001993540388  -2.334958250057635 0
force Rh  -2.077409362201720   2.316905873954926   1.614024299735047 1
force Rh   1.651360680059790  -1.080336768127139   0.833719479601176 1
force Rh   0.733334983757941   0.892427160075147  -0.727849257292233 1
force Rh  -0.391889684193912  -0.422751379493194   0.710521568029785 1
force Rh  -0.096128318373759  -0.299722332471801  -0.112865392535890 1
force Rh  -0.196107913012427   0.357301076901713  -0.259186515592374 1
force Rh   0.328538236104172   0.106681626960864   0.613324490757421 1
force Rh  -0.082485197824569   0.167013849427511   0.041407585171288 1
force Rh  -0.099577318081628  -0.346943055101221  -0.057310310940627 1
force Rh   0.120862735284111   0.774778232668514  -0.090251663681056 1
force Rh  -0.641485244249626   0.193236696398734   0.212742315165532 1
force Rh   0.100152409446409  -0.123223000774215  -0.028500066002822 1
force Rh   0.130259826875329  -0.068499679734525  -0.442109676640666 1
force Rh   0.050123310617814  -0.106683259482620  -0.131768932756526 1
force Rh   0.074454339757678  -0.550633358831813   0.311673430043095 1
force Rh  -0.149830380052414   0.412021132995170   0.018616019952654 1
force Rh   0.173785548048296  -0.287785061759475   0.108083884261552 1
force Rh  -0.250603605381236  -0.173585982485028  -0.182963175593353 1
force Rh   0.493585367635551   0.177122687196158  -0.302500102191489 1
force Rh   0.129702699437316   0.197023049852120  -0.359842266936470 1
force Rh  -0.023160034391047  -0.398911999821044   0.017185898487738 1
force Rh   0.289433653208562   0.411482732890447   0.332196091341782 1
force Rh  -0.250731625038656   0.277415255139453   0.371110083621797 1
force Rh   0.249100595980733  -0.249865819773137  -0.098297926484728 1
force Rh  -0.004528141834041  -0.290787405451254   0.394829258689561 1
force Rh   0.123088110601522  -0.053908351492716   0.034629351748946 1
force Rh   0.023319706100221  -0.355054077788502   0.208575987346266 1
force Rh  -0.236456780987329   0.197095675988646  -0.198517183107946 1
force Rh   0.170434143971584  -0.140114700969822  -0.337852945056649 1
force Rh   0.155660159764685   0.010459103737721   0.119148317095650 1
force Rh  -0.162574899373403  -0.198898972532727  -0.111838936047103 1
force O   1.812453103605244   0.568615604767811  -0.166239070293312 1

# Energy components:
   Eewald =    -2315.0330249544931576
       EH =      406.3518068844148274
     Eloc =     -993.9006144464462977
      Enl =     -348.6129991067082869
      Exc =     -481.0089216381749111
 Exc_core =      127.3123440413880445
       KE =      978.0730570548485048
-------------------------------------
     Etot =    -2626.8183521651712908
       TS =        0.3739255985018176
-------------------------------------
        F =    -2627.1922777636732462

IonicMinimize: Iter:   0  F: -2627.192277763673246  |grad|_K:  3.825e-02  t[s]:   2789.54

#--- Lowdin population analysis ---
# oxidation-state Rh +0.046 +0.055 +0.043 +0.023 -0.001 -0.002 -0.001 -0.001 -0.006 -0.010 +0.001 +0.006 +0.002 +0.003 +0.007 +0.010 +0.007 +0.002 -0.006 -0.000 +0.007 +0.008 +0.005 +0.003 +0.014 +0.005 +0.001 +0.006 +0.010 +0.015 +0.010 +0.012
# oxidation-state O +0.177


-------- Electronic minimization -----------
Will mix electronic density at each iteration.
	FillingsUpdate:  mu: +0.803186346  nElectrons: 486.000000
	FillingsUpdate:  mu: +0.805191224  nElectrons: 486.000000
SCF: Cycle:  0   F: -2612.422081849513688   dF: +1.378e+01   |Residual|: 1.292e+00   |deigs|: 4.019e-03  t[s]:   3019.00
	FillingsUpdate:  mu: +0.826704250  nElectrons: 486.000000
SCF: Cycle:  1   F: -2586.394869114681569   dF: +2.603e+01   |Residual|: 2.542e+00   |deigs|: 6.053e-02  t[s]:   3184.79
	FillingsUpdate:  mu: +0.807843895  nElectrons: 486.000000
SCF: Cycle:  2   F: -2623.198262144929686   dF: -3.680e+01   |Residual|: 9.149e-01   |deigs|: 4.532e-02  t[s]:   3354.92
	FillingsUpdate:  mu: +0.803991303  nElectrons: 486.000000
SCF: Cycle:  3   F: -2626.520384851458857   dF: -3.322e+00   |Residual|: 3.824e-01   |deigs|: 1.279e-02  t[s]:   3523.24
	FillingsUpdate:  mu: +0.803153161  nElectrons: 486.000000
SCF: Cycle:  4   F: -2626.254646776420486   dF: +2.657e-01   |Residual|: 4.274e-01   |deigs|: 1.683e-03  t[s]:   3688.00
	FillingsUpdate:  mu: +0.802761363  nElectrons: 486.000000
SCF: Cycle:  5   F: -2627.136751476114114   dF: -8.821e-01   |Residual|: 1.318e-01   |deigs|: 2.680e-03  t[s]:   3857.60
	FillingsUpdate:  mu: +0.802992899  nElectrons: 486.000000
SCF: Cycle:  6   F: -2627.130086994002795   dF: +6.664e-03   |Residual|: 1.421e-01   |deigs|: 7.740e-04  t[s]:   4027.86
	FillingsUpdate:  mu: +0.803193715  nElectrons: 486.000000
SCF: Cycle:  7   F: -2627.224139962380832   dF: -9.405e-02   |Residual|: 6.046e-02   |deigs|: 7.326e-04  t[s]:   4177.29
	FillingsUpdate:  mu: +0.803153360  nElectrons: 486.000000
SCF: Cycle:  8   F: -2627.237900344091940   dF: -1.376e-02   |Residual|: 2.940e-02   |deigs|: 2.686e-04  t[s]:   4275.37
	FillingsUpdate:  mu: +0.803059049  nElectrons: 486.000000
SCF: Cycle:  9   F: -2627.242479613384148   dF: -4.579e-03   |Residual|: 1.148e-02   |deigs|: 2.953e-04  t[s]:   4376.68
	FillingsUpdate:  mu: +0.803022438  nElectrons: 486.000000
SCF: Cycle: 10   F: -2627.242499026330279   dF: -1.941e-05   |Residual|: 9.115e-03   |deigs|: 1.071e-04  t[s]:   4473.46
	FillingsUpdate:  mu: +0.803009395  nElectrons: 486.000000
SCF: Cycle: 11   F: -2627.242793122146395   dF: -2.941e-04   |Residual|: 5.277e-03   |deigs|: 6.165e-05  t[s]:   4571.70
	FillingsUpdate:  mu: +0.803028419  nElectrons: 486.000000
SCF: Cycle: 12   F: -2627.242891123907157   dF: -9.800e-05   |Residual|: 3.444e-03   |deigs|: 4.923e-05  t[s]:   4668.33
	FillingsUpdate:  mu: +0.803029415  nElectrons: 486.000000
SCF: Cycle: 13   F: -2627.242949161190154   dF: -5.804e-05   |Residual|: 1.088e-03   |deigs|: 2.092e-05  t[s]:   4766.61
	FillingsUpdate:  mu: +0.803028957  nElectrons: 486.000000
SCF: Cycle: 14   F: -2627.242940056346015   dF: +9.105e-06   |Residual|: 1.527e-03   |deigs|: 1.127e-05  t[s]:   4862.91
	FillingsUpdate:  mu: +0.803028759  nElectrons: 486.000000
SCF: Cycle: 15   F: -2627.242953245321587   dF: -1.319e-05   |Residual|: 5.692e-04   |deigs|: 7.136e-06  t[s]:   4959.73
	FillingsUpdate:  mu: +0.803028807  nElectrons: 486.000000
SCF: Cycle: 16   F: -2627.242954745680890   dF: -1.500e-06   |Residual|: 2.350e-04   |deigs|: 2.901e-06  t[s]:   5056.97
	FillingsUpdate:  mu: +0.803028989  nElectrons: 486.000000
SCF: Cycle: 17   F: -2627.242954722611103   dF: +2.307e-08   |Residual|: 2.155e-04   |deigs|: 1.531e-06  t[s]:   5152.63
	FillingsUpdate:  mu: +0.803029049  nElectrons: 486.000000
SCF: Cycle: 18   F: -2627.242954886609368   dF: -1.640e-07   |Residual|: 1.199e-04   |deigs|: 1.107e-06  t[s]:   5254.23
	FillingsUpdate:  mu: +0.803029240  nElectrons: 486.000000
SCF: Cycle: 19   F: -2627.242954938792536   dF: -5.218e-08   |Residual|: 9.321e-05   |deigs|: 1.300e-06  t[s]:   5351.82
	FillingsUpdate:  mu: +0.803029092  nElectrons: 486.000000
SCF: Cycle: 20   F: -2627.242954945390011   dF: -6.597e-09   |Residual|: 7.756e-05   |deigs|: 1.240e-06  t[s]:   5448.24
	FillingsUpdate:  mu: +0.803029116  nElectrons: 486.000000
SCF: Cycle: 21   F: -2627.242954976676174   dF: -3.129e-08   |Residual|: 2.216e-05   |deigs|: 3.863e-07  t[s]:   5543.96
	FillingsUpdate:  mu: +0.803029129  nElectrons: 486.000000
SCF: Cycle: 22   F: -2627.242954977882619   dF: -1.206e-09   |Residual|: 1.605e-05   |deigs|: 2.472e-07  t[s]:   5646.08
	FillingsUpdate:  mu: +0.803029154  nElectrons: 486.000000
SCF: Cycle: 23   F: -2627.242954978073612   dF: -1.910e-10   |Residual|: 1.095e-05   |deigs|: 2.315e-07  t[s]:   5744.00
SCF: Converged (|Delta E|<1.000000e-08 for 2 iters).

Setting wave functions to eigenvectors of Hamiltonian

# Ionic positions in lattice coordinates:
ion Rh   0.000000000000000   0.000000000000000   0.000000000000000 0
ion Rh  -0.005998321482241   0.255865412602337   0.254365231217295 1
ion Rh   0.260659607480144  -0.009452094304060   0.259200818178339 1
ion Rh   0.264830846365758   0.246267767326494  -0.014929918476392 1
ion Rh   0.014239332728409   0.013527854418472   0.486605400701505 1
ion Rh   0.000008506742958   0.263892935507203   0.749235165508045 1
ion Rh   0.257789341517361  -0.017278235265965   0.759063685235612 1
ion Rh   0.243354467465558   0.252942516067678   0.490411778413955 1
ion Rh   0.001465684640526   0.495472701398912  -0.000757513657943 1
ion Rh   0.003441636132936   0.756588869053850   0.250915834494041 1
ion Rh   0.245070765668495   0.480553403752078   0.252790213384317 1
ion Rh   0.269072123710848   0.738034938850481  -0.000016204811122 1
ion Rh  -0.004610490517155   0.512064532544000   0.501633226194350 1
ion Rh  -0.000800514773044   0.753043544614109   0.767559291553394 1
ion Rh   0.247739848579132   0.507157480680243   0.748097508545480 1
ion Rh   0.249908317418450   0.761973106003490   0.490700871781200 1
ion Rh   0.510651529081487  -0.012429229699820  -0.004262915794698 1
ion Rh   0.497656191020353   0.261976715251690   0.254625309446593 1
ion Rh   0.752740782896936   0.004694206525972   0.259955526606458 1
ion Rh   0.723993251046891   0.247182838797568   0.008047402026747 1
ion Rh   0.494308375396372  -0.002727518511019   0.515143173066139 1
ion Rh   0.501353863851009   0.267545343863169   0.743934235319334 1
ion Rh   0.745056568839320  -0.004720302224456   0.736301754128064 1
ion Rh   0.759040527874258   0.246832627484372   0.489939273086601 1
ion Rh   0.496786223020047   0.506152252609207   0.007124184756152 1
ion Rh   0.508580979675471   0.761770734406690   0.244266523076665 1
ion Rh   0.748205198746852   0.509802611397102   0.246888983702907 1
ion Rh   0.754666454224415   0.761782711420193  -0.005674504380879 1
ion Rh   0.511898964202152   0.500822626164511   0.503204542109804 1
ion Rh   0.499459514826561   0.747730883284945   0.756186977087037 1
ion Rh   0.747460084182157   0.501370835149042   0.749737350446754 1
ion Rh   0.761026141250352   0.759983781562842   0.503687210269668 1
ion O   0.123610513050858   0.121132715686741   0.129668842006636 1

# Forces in Lattice coordinates:
force Rh  -1.956598553638627  -1.691644067169763  -2.047903450693582 0
force Rh  -1.412466555276671   1.575291736264179   1.034552774335826 1
force Rh   1.327824198862547  -0.847953816064102   0.689442497327482 1
force Rh   0.660110904966629   0.860125192882788  -0.659330850063431 1
force Rh  -0.340370623511260  -0.370848690416783   0.608684097511174 1
force Rh  -0.086518773550634  -0.288218809302674  -0.094441918109276 1
force Rh  -0.179768965840960   0.338165085897691  -0.244732585343635 1
force Rh   0.287785865057851   0.086316120876305   0.536868679976803 1
force Rh  -0.071240221150614   0.150464695492407   0.032764364011493 1
force Rh  -0.082073913507279  -0.298001787792272  -0.054653197404468 1
force Rh   0.117154711626367   0.698479718550052  -0.079572478632685 1
force Rh  -0.577332283758535   0.181023409536789   0.185283302996602 1
force Rh   0.096786974384676  -0.110592304705949  -0.014461986658251 1
force Rh   0.118304687011802  -0.052390517115760  -0.414788300282532 1
force Rh   0.050494281742465  -0.094757160986290  -0.120045337652193 1
force Rh   0.068317434469222  -0.533343672010930   0.316334890466333 1
force Rh  -0.140654069305656   0.367950104412098   0.019490427028307 1
force Rh   0.153136438848354  -0.273584479389512   0.090895722462667 1
force Rh  -0.209470749780062  -0.147979174844892  -0.176084522906705 1
force Rh   0.484077290990192   0.161523889740047  -0.281471548525385 1
force Rh   0.143249528350823   0.178981774990484  -0.319660668298013 1
force Rh  -0.003887444775284  -0.372452636814041   0.000359832122721 1
force Rh   0.272120231067535   0.375555775094360   0.315835447322093 1
force Rh  -0.266583123366027   0.249839454942550   0.376367683280567 1
force Rh   0.226872655637654  -0.206284166820186  -0.099385956202288 1
force Rh   0.007534503232723  -0.297030871332124   0.353624862186183 1
force Rh   0.100916109445301  -0.043772098648212   0.034173110706856 1
force Rh   0.016048288942452  -0.322002642703743   0.190085542031225 1
force Rh  -0.227065233770004   0.179578633783015  -0.180713531772588 1
force Rh   0.151436849932750  -0.112265983243546  -0.298142720012568 1
force Rh   0.142842653026007   0.010018063365422   0.108682670986877 1
force Rh  -0.159326288561309  -0.181065852052985  -0.096022842553168 1
force O   1.287616001595830   0.830873320053445   0.286988256994110 1

# Energy components:
   Eewald =    -2317.3553926840268105
       EH =      404.2198269246071618
     Eloc =     -989.3354967275344052
      Enl =     -348.6181679445289774
      Exc =     -480.9453876532729169
 Exc_core =      127.3123236155811355
       KE =      977.8532255586599149
-------------------------------------
     Etot =    -2626.8690689105151250
       TS =        0.3738860675583008
-------------------------------------
        F =    -2627.2429549780736124

IonicMinimize: Iter:   1  F: -2627.242954978073612  |grad|_K:  3.016e-02  alpha:  4.085e-01  linmin: -7.740e-01  t[s]:   5766.32

#--- Lowdin population analysis ---
# oxidation-state Rh +0.052 +0.053 +0.050 +0.031 -0.001 -0.002 -0.001 -0.000 -0.004 -0.009 +0.002 +0.005 +0.004 +0.004 +0.007 +0.011 +0.005 +0.001 -0.005 +0.001 +0.008 +0.007 +0.005 +0.006 +0.014 +0.006 +0.002 +0.006 +0.009 +0.015 +0.010 +0.012
# oxidation-state O +0.140


-------- Electronic minimization -----------
Will mix electronic density at each iteration.
	FillingsUpdate:  mu: +0.803029154  nElectrons: 486.000000
	FillingsUpdate:  mu: +0.808329246  nElectrons: 486.000000
SCF: Cycle:  0   F: -2594.809689463224913   dF: +3.023e+01   |Residual|: 1.890e+00   |deigs|: 8.639e-03  t[s]:   5992.47
	FillingsUpdate:  mu: +0.845952912  nElectrons: 486.000000
SCF: Cycle:  1   F: -2569.324065192896796   dF: +2.549e+01   |Residual|: 3.152e+00   |deigs|: 8.603e-02  t[s]:   6167.13
	FillingsUpdate:  mu: +0.810874577  nElectrons: 486.000000
SCF: Cycle:  2   F: -2619.176887119501316   dF: -4.985e+01   |Residual|: 1.347e+00   |deigs|: 6.864e-02  t[s]:   6339.96
	FillingsUpdate:  mu: +0.804789429  nElectrons: 486.000000
SCF: Cycle:  3   F: -2625.369645078819758   dF: -6.193e+00   |Residual|: 6.207e-01   |deigs|: 1.836e-02  t[s]:   6516.78
	FillingsUpdate:  mu: +0.803185455  nElectrons: 486.000000
SCF: Cycle:  4   F: -2625.471607281119759   dF: -1.020e-01   |Residual|: 6.095e-01   |deigs|: 5.562e-03  t[s]:   6685.04
	FillingsUpdate:  mu: +0.802541629  nElectrons: 486.000000
SCF: Cycle:  5   F: -2626.867197650419257   dF: -1.396e+00   |Residual|: 2.651e-01   |deigs|: 4.424e-03  t[s]:   6857.69
	FillingsUpdate:  mu: +0.802904325  nElectrons: 486.000000
SCF: Cycle:  6   F: -2627.025157484136344   dF: -1.580e-01   |Residual|: 2.185e-01   |deigs|: 2.165e-03  t[s]:   7022.02
	FillingsUpdate:  mu: +0.803120061  nElectrons: 486.000000
SCF: Cycle:  7   F: -2627.163662023507641   dF: -1.385e-01   |Residual|: 1.507e-01   |deigs|: 1.250e-03  t[s]:   7191.98
	FillingsUpdate:  mu: +0.802994193  nElectrons: 486.000000
SCF: Cycle:  8   F: -2627.255499183491793   dF: -9.184e-02   |Residual|: 8.227e-02   |deigs|: 8.009e-04  t[s]:   7344.62
	FillingsUpdate:  mu: +0.802827265  nElectrons: 486.000000
SCF: Cycle:  9   F: -2627.295723336558694   dF: -4.022e-02   |Residual|: 3.614e-02   |deigs|: 8.133e-04  t[s]:   7450.30
	FillingsUpdate:  mu: +0.802758108  nElectrons: 486.000000
SCF: Cycle: 10   F: -2627.300650742405651   dF: -4.927e-03   |Residual|: 1.442e-02   |deigs|: 2.763e-04  t[s]:   7552.90
	FillingsUpdate:  mu: +0.802768407  nElectrons: 486.000000
SCF: Cycle: 11   F: -2627.300749252238802   dF: -9.851e-05   |Residual|: 1.384e-02   |deigs|: 1.361e-04  t[s]:   7651.63
	FillingsUpdate:  mu: +0.802785389  nElectrons: 486.000000
SCF: Cycle: 12   F: -2627.301676385709015   dF: -9.271e-04   |Residual|: 4.396e-03   |deigs|: 6.954e-05  t[s]:   7746.84
	FillingsUpdate:  mu: +0.802785214  nElectrons: 486.000000
SCF: Cycle: 13   F: -2627.301755382027750   dF: -7.900e-05   |Residual|: 2.062e-03   |deigs|: 2.732e-05  t[s]:   7842.47
	FillingsUpdate:  mu: +0.802785200  nElectrons: 486.000000
SCF: Cycle: 14   F: -2627.301746717344031   dF: +8.665e-06   |Residual|: 2.106e-03   |deigs|: 1.783e-05  t[s]:   7943.20
	FillingsUpdate:  mu: +0.802785182  nElectrons: 486.000000
SCF: Cycle: 15   F: -2627.301770004577975   dF: -2.329e-05   |Residual|: 9.170e-04   |deigs|: 1.581e-05  t[s]:   8044.73
	FillingsUpdate:  mu: +0.802785465  nElectrons: 486.000000
SCF: Cycle: 16   F: -2627.301773727567706   dF: -3.723e-06   |Residual|: 4.881e-04   |deigs|: 4.091e-06  t[s]:   8138.68
	FillingsUpdate:  mu: +0.802785955  nElectrons: 486.000000
SCF: Cycle: 17   F: -2627.301774415491764   dF: -6.879e-07   |Residual|: 2.851e-04   |deigs|: 2.979e-06  t[s]:   8236.27
	FillingsUpdate:  mu: +0.802785704  nElectrons: 486.000000
SCF: Cycle: 18   F: -2627.301774575339550   dF: -1.598e-07   |Residual|: 2.193e-04   |deigs|: 1.937e-06  t[s]:   8331.15
	FillingsUpdate:  mu: +0.802785944  nElectrons: 486.000000
SCF: Cycle: 19   F: -2627.301774823730284   dF: -2.484e-07   |Residual|: 9.511e-05   |deigs|: 1.714e-06  t[s]:   8430.51
	FillingsUpdate:  mu: +0.802785818  nElectrons: 486.000000
SCF: Cycle: 20   F: -2627.301774758494503   dF: +6.524e-08   |Residual|: 1.378e-04   |deigs|: 1.276e-06  t[s]:   8530.92
	FillingsUpdate:  mu: +0.802785848  nElectrons: 486.000000
SCF: Cycle: 21   F: -2627.301774855245640   dF: -9.675e-08   |Residual|: 4.694e-05   |deigs|: 6.157e-07  t[s]:   8630.96
	FillingsUpdate:  mu: +0.802785926  nElectrons: 486.000000
SCF: Cycle: 22   F: -2627.301774855374333   dF: -1.287e-10   |Residual|: 4.388e-05   |deigs|: 5.989e-07  t[s]:   8727.64
	FillingsUpdate:  mu: +0.802785933  nElectrons: 486.000000
SCF: Cycle: 23   F: -2627.301774862216462   dF: -6.842e-09   |Residual|: 2.620e-05   |deigs|: 4.310e-07  t[s]:   8825.29
SCF: Converged (|Delta E|<1.000000e-08 for 2 iters).

Setting wave functions to eigenvectors of Hamiltonian

# Ionic positions in lattice coordinates:
ion Rh   0.000000000000000   0.000000000000000   0.000000000000000 0
ion Rh  -0.010263410898127   0.260622108287849   0.257184505661332 1
ion Rh   0.265663015016587  -0.012562351202868   0.261876875542041 1
ion Rh   0.267607005240273   0.250093105310585  -0.017718020904952 1
ion Rh   0.012853232399160   0.012003697243777   0.489052171158284 1
ion Rh  -0.000355315664337   0.262613344887860   0.748864174520766 1
ion Rh   0.257021433453629  -0.015795486104784   0.757992602894222 1
ion Rh   0.244535678258751   0.253269961730030   0.492613921426705 1
ion Rh   0.001177093692295   0.496105961061527  -0.000636228342248 1
ion Rh   0.003124149285976   0.755387948904431   0.250674761510302 1
ion Rh   0.245594081693055   0.483494821045065   0.252461669265571 1
ion Rh   0.266644464861833   0.738822178912896   0.000740259949841 1
ion Rh  -0.004179150294606   0.511600622648290   0.501613385462208 1
ion Rh  -0.000299123507083   0.752857151154249   0.765753260670856 1
ion Rh   0.247971890551143   0.506763634071027   0.747587397278809 1
ion Rh   0.250200383334612   0.759592071929375   0.492162264417795 1
ion Rh   0.510038815699534  -0.010892510302675  -0.004170939276060 1
ion Rh   0.498288150778443   0.260772910222225   0.254984161520696 1
ion Rh   0.751918819933826   0.004102161625486   0.259173280841347 1
ion Rh   0.726174726071150   0.247869784475488   0.006830047840806 1
ion Rh   0.495007845920425  -0.001968819522803   0.513814375078477 1
ion Rh   0.501399613758476   0.265929996532164   0.743880423452569 1
ion Rh   0.746243420948921  -0.003121973913697   0.737691577335012 1
ion Rh   0.757769679306987   0.247883806195621   0.491677052233242 1
ion Rh   0.497750041889032   0.505352927090909   0.006666285981803 1
ion Rh   0.508655178427322   0.760392370135591   0.245747207054803 1
ion Rh   0.748593429834334   0.509635928417308   0.247043691997724 1
ion Rh   0.754715848376823   0.760419707628712  -0.004866528302055 1
ion Rh   0.510891957782890   0.501585781320683   0.502437143741555 1
ion Rh   0.500089149617327   0.747309479479889   0.754954988282168 1
ion Rh   0.748070801058300   0.501415176070362   0.750199666780386 1
ion Rh   0.760308536481194   0.759214869796108   0.503300398945734 1
ion O   0.127766657904212   0.125795171577307   0.132474505599600 1

# Forces in Lattice coordinates:
force Rh  -1.466294419788842  -1.253096847480098  -1.515109338488971 0
force Rh  -1.010927753628670   1.118403240835161   0.751102726438413 1
force Rh   0.869321627809442  -0.528407481063294   0.437861511885805 1
force Rh   0.466244690279886   0.692724959557062  -0.479478457622841 1
force Rh  -0.267421191919529  -0.298200110244707   0.472215087835080 1
force Rh  -0.066080327671815  -0.261775623837142  -0.061507912375781 1
force Rh  -0.150353533669358   0.304356743567872  -0.207821427558629 1
force Rh   0.224648379999548   0.060071924651609   0.424407374394441 1
force Rh  -0.054252834775922   0.129166573157971   0.015955694512519 1
force Rh  -0.054409296050610  -0.221261001459074  -0.045631775240483 1
force Rh   0.112666790138674   0.578809965975866  -0.056680835949628 1
force Rh  -0.465822586882742   0.165837288103346   0.136693132525808 1
force Rh   0.084948215232597  -0.092864627519712   0.007431311248827 1
force Rh   0.095320290972835  -0.027352551052705  -0.361116418426862 1
force Rh   0.049244439768908  -0.070125160518741  -0.102151633610600 1
force Rh   0.057550144154756  -0.479134270539211   0.304390234838749 1
force Rh  -0.128173807945894   0.294651290197470   0.023049120774124 1
force Rh   0.125260551524098  -0.241993497427882   0.056896782965482 1
force Rh  -0.153517471313987  -0.108664776885677  -0.154633240547610 1
force Rh   0.452175642631842   0.135051669673106  -0.240972141946495 1
force Rh   0.165880344589886   0.142324340339530  -0.243406533328871 1
force Rh   0.029376436390767  -0.321676155852467  -0.025141202247303 1
force Rh   0.238542538213145   0.304950127114614   0.282610950395958 1
force Rh  -0.256731849015015   0.202626421442394   0.345309038129919 1
force Rh   0.196352297351627  -0.128824731515909  -0.098315524264858 1
force Rh   0.020974282420516  -0.295969596382555   0.279041764082517 1
force Rh   0.067486627912788  -0.034956585483734   0.035383741064505 1
force Rh   0.007664198341313  -0.262532941089491   0.154227794953059 1
force Rh  -0.203191848753562   0.145507264216373  -0.147802089037326 1
force Rh   0.120390008440882  -0.064447388874490  -0.228867037169791 1
force Rh   0.120154851260383   0.011059705174289   0.086766307904771 1
force Rh  -0.148411120299324  -0.149074363157078  -0.067343869264670 1
force O   0.921461274115072   0.554362820901523   0.221895724569323 1

# Energy components:
   Eewald =    -2320.3629511334083872
       EH =      401.4418785123535827
     Eloc =     -983.4061882462168569
      Enl =     -348.6252361573324379
      Exc =     -480.8632106002153819
 Exc_core =      127.3122991254959260
       KE =      977.5755475689626337
-------------------------------------
     Etot =    -2626.9278609303614758
       TS =        0.3739139318548612
-------------------------------------
        F =    -2627.3017748622164618

IonicMinimize: Iter:   2  F: -2627.301774862216462  |grad|_K:  2.252e-02  alpha:  2.925e-01  linmin: -7.743e-01  t[s]:   8847.75

#--- Lowdin population analysis ---
# oxidation-state Rh +0.054 +0.059 +0.057 +0.042 -0.001 -0.001 -0.000 -0.000 -0.003 -0.006 +0.001 +0.004 +0.006 +0.006 +0.007 +0.011 +0.004 +0.001 -0.003 +0.002 +0.008 +0.007 +0.005 +0.007 +0.013 +0.006 +0.003 +0.007 +0.009 +0.014 +0.011 +0.012
# oxidation-state O +0.096


-------- Electronic minimization -----------
Will mix electronic density at each iteration.
	FillingsUpdate:  mu: +0.802785933  nElectrons: 486.000000
	FillingsUpdate:  mu: +0.810534327  nElectrons: 486.000000
SCF: Cycle:  0   F: -2587.593975765621508   dF: +3.661e+01   |Residual|: 2.113e+00   |deigs|: 1.050e-02  t[s]:   9083.79
	FillingsUpdate:  mu: +0.852902082  nElectrons: 486.000000
SCF: Cycle:  1   F: -2562.407312710573933   dF: +2.519e+01   |Residual|: 3.360e+00   |deigs|: 8.997e-02  t[s]:   9258.05
	FillingsUpdate:  mu: +0.811606335  nElectrons: 486.000000
SCF: Cycle:  2   F: -2616.403552241025864   dF: -5.400e+01   |Residual|: 1.528e+00   |deigs|: 7.678e-02  t[s]:   9432.49
	FillingsUpdate:  mu: +0.804627465  nElectrons: 486.000000
SCF: Cycle:  3   F: -2624.802945583816836   dF: -8.399e+00   |Residual|: 6.917e-01   |deigs|: 1.973e-02  t[s]:   9604.79
	FillingsUpdate:  mu: +0.803285783  nElectrons: 486.000000
SCF: Cycle:  4   F: -2623.932528269896920   dF: +8.704e-01   |Residual|: 7.866e-01   |deigs|: 5.355e-03  t[s]:   9766.62
	FillingsUpdate:  mu: +0.802473150  nElectrons: 486.000000
SCF: Cycle:  5   F: -2626.572848212285862   dF: -2.640e+00   |Residual|: 3.489e-01   |deigs|: 5.685e-03  t[s]:   9941.38
	FillingsUpdate:  mu: +0.802717964  nElectrons: 486.000000
SCF: Cycle:  6   F: -2627.059307916502803   dF: -4.865e-01   |Residual|: 2.341e-01   |deigs|: 2.497e-03  t[s]:  10105.19
	FillingsUpdate:  mu: +0.802925050  nElectrons: 486.000000
SCF: Cycle:  7   F: -2627.086783863151140   dF: -2.748e-02   |Residual|: 2.060e-01   |deigs|: 1.536e-03  t[s]:  10275.69
	FillingsUpdate:  mu: +0.802755182  nElectrons: 486.000000
SCF: Cycle:  8   F: -2627.253381199053820   dF: -1.666e-01   |Residual|: 1.204e-01   |deigs|: 1.087e-03  t[s]:  10426.31
	FillingsUpdate:  mu: +0.802567655  nElectrons: 486.000000
SCF: Cycle:  9   F: -2627.335475794217928   dF: -8.209e-02   |Residual|: 5.221e-02   |deigs|: 1.015e-03  t[s]:  10568.96
	FillingsUpdate:  mu: +0.802457179  nElectrons: 486.000000
SCF: Cycle: 10   F: -2627.347942771346425   dF: -1.247e-02   |Residual|: 1.807e-02   |deigs|: 5.207e-04  t[s]:  10667.68
	FillingsUpdate:  mu: +0.802482949  nElectrons: 486.000000
SCF: Cycle: 11   F: -2627.347728576047757   dF: +2.142e-04   |Residual|: 1.896e-02   |deigs|: 1.649e-04  t[s]:  10769.23
	FillingsUpdate:  mu: +0.802501794  nElectrons: 486.000000
SCF: Cycle: 12   F: -2627.349862346159171   dF: -2.134e-03   |Residual|: 4.405e-03   |deigs|: 8.009e-05  t[s]:  10866.23
	FillingsUpdate:  mu: +0.802503630  nElectrons: 486.000000
SCF: Cycle: 13   F: -2627.349922438393151   dF: -6.009e-05   |Residual|: 2.498e-03   |deigs|: 2.474e-05  t[s]:  10966.96
	FillingsUpdate:  mu: +0.802504440  nElectrons: 486.000000
SCF: Cycle: 14   F: -2627.349927396328439   dF: -4.958e-06   |Residual|: 1.907e-03   |deigs|: 1.246e-05  t[s]:  11063.67
	FillingsUpdate:  mu: +0.802503785  nElectrons: 486.000000
SCF: Cycle: 15   F: -2627.349942326979544   dF: -1.493e-05   |Residual|: 1.038e-03   |deigs|: 1.014e-05  t[s]:  11162.06
	FillingsUpdate:  mu: +0.802504319  nElectrons: 486.000000
SCF: Cycle: 16   F: -2627.349946541329700   dF: -4.214e-06   |Residual|: 4.270e-04   |deigs|: 4.390e-06  t[s]:  11258.92
	FillingsUpdate:  mu: +0.802504459  nElectrons: 486.000000
SCF: Cycle: 17   F: -2627.349946948456363   dF: -4.071e-07   |Residual|: 2.646e-04   |deigs|: 2.092e-06  t[s]:  11357.62
	FillingsUpdate:  mu: +0.802504513  nElectrons: 486.000000
SCF: Cycle: 18   F: -2627.349946828970587   dF: +1.195e-07   |Residual|: 2.902e-04   |deigs|: 1.677e-06  t[s]:  11454.22
	FillingsUpdate:  mu: +0.802504719  nElectrons: 486.000000
SCF: Cycle: 19   F: -2627.349947250603236   dF: -4.216e-07   |Residual|: 1.304e-04   |deigs|: 1.584e-06  t[s]:  11549.91
	FillingsUpdate:  mu: +0.802504680  nElectrons: 486.000000
SCF: Cycle: 20   F: -2627.349947158448231   dF: +9.216e-08   |Residual|: 1.757e-04   |deigs|: 9.803e-07  t[s]:  11648.06
	FillingsUpdate:  mu: +0.802504576  nElectrons: 486.000000
SCF: Cycle: 21   F: -2627.349947309622166   dF: -1.512e-07   |Residual|: 6.655e-05   |deigs|: 9.902e-07  t[s]:  11749.82
	FillingsUpdate:  mu: +0.802504659  nElectrons: 486.000000
SCF: Cycle: 22   F: -2627.349947326005349   dF: -1.638e-08   |Residual|: 4.063e-05   |deigs|: 7.195e-07  t[s]:  11848.66
	FillingsUpdate:  mu: +0.802504677  nElectrons: 486.000000
SCF: Cycle: 23   F: -2627.349947332756074   dF: -6.751e-09   |Residual|: 2.388e-05   |deigs|: 4.281e-07  t[s]:  11946.76
	FillingsUpdate:  mu: +0.802504669  nElectrons: 486.000000
SCF: Cycle: 24   F: -2627.349947334832905   dF: -2.077e-09   |Residual|: 1.530e-05   |deigs|: 4.018e-07  t[s]:  12046.35
SCF: Converged (|Delta E|<1.000000e-08 for 2 iters).

Setting wave functions to eigenvectors of Hamiltonian

# Ionic positions in lattice coordinates:
ion Rh   0.000000000000000   0.000000000000000   0.000000000000000 0
ion Rh  -0.014530680928525   0.265228783994877   0.260239729937682 1
ion Rh   0.269125473689773  -0.014253914632582   0.263511321544001 1
ion Rh   0.270138177687457   0.254995281188327  -0.020490608900917 1
ion Rh   0.011130743416113   0.010000581308359   0.492005105127810 1
ion Rh  -0.000770675684724   0.260473622022306   0.748610950385881 1
ion Rh   0.255929001906204  -0.013347010683647   0.756431630038746 1
ion Rh   0.245975100246123   0.253556756879663   0.495387573491710 1
ion Rh   0.000846742569211   0.497068454751268  -0.000645029436401 1
ion Rh   0.002892025513422   0.754106805628873   0.250337725795230 1
ion Rh   0.246571784864750   0.487614297565155   0.252153513966094 1
ion Rh   0.263454360289284   0.740176549578787   0.001530087637146 1
ion Rh  -0.003509049097225   0.510929332667197   0.501888405542026 1
ion Rh   0.000355536538037   0.752846457026515   0.762965713114046 1
ion Rh   0.248410118966444   0.506350320695706   0.746830661518801 1
ion Rh   0.250622656990388   0.755710544972075   0.494844742500589 1
ion Rh   0.508997085833474  -0.008905495257979  -0.003931818077998 1
ion Rh   0.499153147568076   0.258859896114676   0.255190619795034 1
ion Rh   0.751070288703678   0.003489813519871   0.257954743533490 1
ion Rh   0.730005490132856   0.248848154001578   0.005013779593040 1
ion Rh   0.496725244465321  -0.001009978641081   0.512304829477548 1
ion Rh   0.501976050987150   0.263475618227397   0.743409191096137 1
ion Rh   0.748101314349126  -0.000998631498474   0.739954719183010 1
ion Rh   0.755473283357061   0.249282362737478   0.494584359317195 1
ion Rh   0.499235467255642   0.504901778970551   0.005779391145380 1
ion Rh   0.508982257197219   0.757697694097803   0.247590345918183 1
ion Rh   0.748886952232127   0.509414372203377   0.247372964396974 1
ion Rh   0.754700793763766   0.758587249763536  -0.003794673863650 1
ion Rh   0.509258287819841   0.502594966201167   0.501398916698498 1
ion Rh   0.500889828958602   0.747170383523948   0.753522038105027 1
ion Rh   0.748950815018818   0.501522429379619   0.750788994959250 1
ion Rh   0.759055010433926   0.758158046187684   0.502954194314345 1
ion O   0.131874498448996   0.129391350452613   0.135207538112646 1

# Forces in Lattice coordinates:
force Rh  -1.112471437830890  -0.937890922082933  -1.136848354050088 0
force Rh  -0.606940510450557   0.699833387790586   0.489018649484120 1
force Rh   0.612477883591776  -0.406514260894883   0.374539392949323 1
force Rh   0.262803171132052   0.494918299759394  -0.269281606113127 1
force Rh  -0.199634659227066  -0.223691064438690   0.338628176877355 1
force Rh  -0.037642665411922  -0.210200854791696  -0.028624390618567 1
force Rh  -0.106002561014093   0.257352249155051  -0.166119462983266 1
force Rh   0.159894491900781   0.032653536027106   0.297897205634303 1
force Rh  -0.032610306474219   0.099412771478508   0.003633995687256 1
force Rh  -0.032494003564104  -0.150019207581256  -0.022083352403983 1
force Rh   0.100326261575614   0.428547312381514  -0.033390911992175 1
force Rh  -0.332595950946961   0.142154834383789   0.080895488338099 1
force Rh   0.064137983558098  -0.073425886387878   0.026877608395792 1
force Rh   0.067198520937265  -0.006715434469524  -0.285523828581611 1
force Rh   0.046211582670909  -0.045340584187805  -0.071450569476248 1
force Rh   0.047934958078640  -0.336208265122997   0.228956628170422 1
force Rh  -0.102071335989916   0.220155043878839   0.029034395307792 1
force Rh   0.098262257339206  -0.188749983998050   0.012826138404775 1
force Rh  -0.100298411424498  -0.068070580366326  -0.120105362402510 1
force Rh   0.380125156099427   0.101546396371142  -0.181251768523398 1
force Rh   0.154140613016713   0.093796376861208  -0.175193468969984 1
force Rh   0.050836218012892  -0.252690660126459  -0.027628845389374 1
force Rh   0.188130281474467   0.212413926022358   0.236540406381691 1
force Rh  -0.210559793354738   0.142178478727036   0.273318598936205 1
force Rh   0.160164780515242  -0.059678459168472  -0.091212527128323 1
force Rh  -0.000702084776630  -0.237739965077000   0.190944982750210 1
force Rh   0.033819378806389  -0.028655093719900   0.035635918860254 1
force Rh  -0.000305387058689  -0.187506866458954   0.110136738644793 1
force Rh  -0.163712593678826   0.096857916504752  -0.105049798703024 1
force Rh   0.087147526455678  -0.013489876393932  -0.150493448621077 1
force Rh   0.091209496366546   0.013716904622798   0.058344438499754 1
force Rh  -0.123319691095894  -0.107331766646896  -0.038310617099607 1
force O   0.557511762282440   0.498672484568660   0.114869873006403 1

# Energy components:
   Eewald =    -2323.0739850524978465
       EH =      398.9217947782438500
     Eloc =     -978.0430353420125584
      Enl =     -348.6336740068585414
      Exc =     -480.7880676485337403
 Exc_core =      127.3122719418850579
       KE =      977.3286502575549548
-------------------------------------
     Etot =    -2626.9760450722187670
       TS =        0.3739022626143625
-------------------------------------
        F =    -2627.3499473348329047

IonicMinimize: Iter:   3  F: -2627.349947334832905  |grad|_K:  1.574e-02  alpha:  3.268e-01  linmin: -7.426e-01  t[s]:  12068.99

#--- Lowdin population analysis ---
# oxidation-state Rh +0.055 +0.062 +0.063 +0.051 -0.002 -0.000 +0.000 -0.000 -0.002 -0.004 +0.000 +0.003 +0.009 +0.007 +0.008 +0.010 +0.002 -0.000 -0.001 +0.002 +0.009 +0.008 +0.005 +0.008 +0.013 +0.006 +0.005 +0.007 +0.009 +0.013 +0.011 +0.012
# oxidation-state O +0.061


-------- Electronic minimization -----------
Will mix electronic density at each iteration.
	FillingsUpdate:  mu: +0.802504669  nElectrons: 486.000000
	FillingsUpdate:  mu: +0.811664313  nElectrons: 486.000000
SCF: Cycle:  0   F: -2581.003012120410403   dF: +4.187e+01   |Residual|: 2.352e+00   |deigs|: 1.389e-02  t[s]:  12304.19
	FillingsUpdate:  mu: +0.858457703  nElectrons: 486.000000
SCF: Cycle:  1   F: -2559.458761775430048   dF: +2.154e+01   |Residual|: 3.511e+00   |deigs|: 9.381e-02  t[s]:  12474.43
	FillingsUpdate:  mu: +0.811500921  nElectrons: 486.000000
SCF: Cycle:  2   F: -2615.156316595438511   dF: -5.570e+01   |Residual|: 1.625e+00   |deigs|: 8.380e-02  t[s]:  12640.60
	FillingsUpdate:  mu: +0.804173133  nElectrons: 486.000000
SCF: Cycle:  3   F: -2624.110312804044952   dF: -8.954e+00   |Residual|: 7.935e-01   |deigs|: 2.091e-02  t[s]:  12808.68
	FillingsUpdate:  mu: +0.803494444  nElectrons: 486.000000
SCF: Cycle:  4   F: -2622.430940070298220   dF: +1.679e+00   |Residual|: 9.475e-01   |deigs|: 6.273e-03  t[s]:  12974.08
	FillingsUpdate:  mu: +0.802514042  nElectrons: 486.000000
SCF: Cycle:  5   F: -2626.373641091554418   dF: -3.943e+00   |Residual|: 4.056e-01   |deigs|: 7.359e-03  t[s]:  13144.75
	FillingsUpdate:  mu: +0.802612088  nElectrons: 486.000000
SCF: Cycle:  6   F: -2627.036336522478905   dF: -6.627e-01   |Residual|: 2.626e-01   |deigs|: 3.196e-03  t[s]:  13309.88
	FillingsUpdate:  mu: +0.802670706  nElectrons: 486.000000
SCF: Cycle:  7   F: -2627.023226122862525   dF: +1.311e-02   |Residual|: 2.388e-01   |deigs|: 1.625e-03  t[s]:  13479.33
	FillingsUpdate:  mu: +0.802479119  nElectrons: 486.000000
SCF: Cycle:  8   F: -2627.251910986874918   dF: -2.287e-01   |Residual|: 1.424e-01   |deigs|: 1.269e-03  t[s]:  13638.49
	FillingsUpdate:  mu: +0.802262371  nElectrons: 486.000000
SCF: Cycle:  9   F: -2627.373339333962122   dF: -1.214e-01   |Residual|: 5.297e-02   |deigs|: 1.353e-03  t[s]:  13779.08
	FillingsUpdate:  mu: +0.802173174  nElectrons: 486.000000
SCF: Cycle: 10   F: -2627.383455870179660   dF: -1.012e-02   |Residual|: 2.353e-02   |deigs|: 4.348e-04  t[s]:  13875.64
	FillingsUpdate:  mu: +0.802233285  nElectrons: 486.000000
SCF: Cycle: 11   F: -2627.383132600886711   dF: +3.233e-04   |Residual|: 2.518e-02   |deigs|: 2.664e-04  t[s]:  13971.80
	FillingsUpdate:  mu: +0.802241381  nElectrons: 486.000000
SCF: Cycle: 12   F: -2627.386789460305863   dF: -3.657e-03   |Residual|: 5.253e-03   |deigs|: 1.538e-04  t[s]:  14068.58
	FillingsUpdate:  mu: +0.802245955  nElectrons: 486.000000
SCF: Cycle: 13   F: -2627.386872720092924   dF: -8.326e-05   |Residual|: 3.763e-03   |deigs|: 2.963e-05  t[s]:  14165.66
	FillingsUpdate:  mu: +0.802246572  nElectrons: 486.000000
SCF: Cycle: 14   F: -2627.386907234928003   dF: -3.451e-05   |Residual|: 2.327e-03   |deigs|: 1.620e-05  t[s]:  14262.65
	FillingsUpdate:  mu: +0.802245874  nElectrons: 486.000000
SCF: Cycle: 15   F: -2627.386928632382023   dF: -2.140e-05   |Residual|: 1.185e-03   |deigs|: 1.172e-05  t[s]:  14359.57
	FillingsUpdate:  mu: +0.802246438  nElectrons: 486.000000
SCF: Cycle: 16   F: -2627.386933251959817   dF: -4.620e-06   |Residual|: 5.558e-04   |deigs|: 4.075e-06  t[s]:  14456.53
	FillingsUpdate:  mu: +0.802246232  nElectrons: 486.000000
SCF: Cycle: 17   F: -2627.386934424592710   dF: -1.173e-06   |Residual|: 2.804e-04   |deigs|: 3.302e-06  t[s]:  14554.14
	FillingsUpdate:  mu: +0.802246723  nElectrons: 486.000000
SCF: Cycle: 18   F: -2627.386934562709030   dF: -1.381e-07   |Residual|: 1.957e-04   |deigs|: 1.733e-06  t[s]:  14648.22
	FillingsUpdate:  mu: +0.802246957  nElectrons: 486.000000
SCF: Cycle: 19   F: -2627.386934466398998   dF: +9.631e-08   |Residual|: 2.140e-04   |deigs|: 1.873e-06  t[s]:  14742.38
	FillingsUpdate:  mu: +0.802246819  nElectrons: 486.000000
SCF: Cycle: 20   F: -2627.386934647473481   dF: -1.811e-07   |Residual|: 1.514e-04   |deigs|: 1.469e-06  t[s]:  14842.28
	FillingsUpdate:  mu: +0.802246686  nElectrons: 486.000000
SCF: Cycle: 21   F: -2627.386934731616293   dF: -8.414e-08   |Residual|: 1.029e-04   |deigs|: 1.196e-06  t[s]:  14940.11
	FillingsUpdate:  mu: +0.802246745  nElectrons: 486.000000
SCF: Cycle: 22   F: -2627.386934783708966   dF: -5.209e-08   |Residual|: 3.867e-05   |deigs|: 8.592e-07  t[s]:  15038.19
	FillingsUpdate:  mu: +0.802246752  nElectrons: 486.000000
SCF: Cycle: 23   F: -2627.386934789568386   dF: -5.859e-09   |Residual|: 1.960e-05   |deigs|: 5.373e-07  t[s]:  15133.64
	FillingsUpdate:  mu: +0.802246775  nElectrons: 486.000000
SCF: Cycle: 24   F: -2627.386934789649331   dF: -8.095e-11   |Residual|: 1.562e-05   |deigs|: 5.002e-07  t[s]:  15228.59
SCF: Converged (|Delta E|<1.000000e-08 for 2 iters).

Setting wave functions to eigenvectors of Hamiltonian

# Ionic positions in lattice coordinates:
ion Rh   0.000000000000000   0.000000000000000   0.000000000000000 0
ion Rh  -0.017724898603378   0.269314850957636   0.263506112391779 1
ion Rh   0.273421018869809  -0.017276648478012   0.267082006709855 1
ion Rh   0.271478923837691   0.260557208549854  -0.022018727362570 1
ion Rh   0.008908644814661   0.007416869891613   0.495523024818990 1
ion Rh  -0.001029696047092   0.257519966249954   0.748650165573813 1
ion Rh   0.254711197022188  -0.009642400400444   0.754244806768575 1
ion Rh   0.247646580099542   0.253674609060564   0.498504756998367 1
ion Rh   0.000600664731090   0.498340128359703  -0.000818715732916 1
ion Rh   0.002747750974038   0.752769907778520   0.250202522220525 1
ion Rh   0.248133766407271   0.492710247677678   0.251953614335592 1
ion Rh   0.259772558285595   0.742264740311632   0.002073403340561 1
ion Rh  -0.002672839623755   0.509990358984203   0.502672966875431 1
ion Rh   0.001089068053522   0.753103254011265   0.759155486704149 1
ion Rh   0.249157133661957   0.505975756574473   0.746000136888061 1
ion Rh   0.251265974637068   0.751487225214188   0.498098882496070 1
ion Rh   0.507572146427463  -0.006375102077343  -0.003372710405486 1
ion Rh   0.500363119144205   0.256324900734890   0.254804003634212 1
ion Rh   0.750264777992711   0.002980773013220   0.256354070332728 1
ion Rh   0.735637497058612   0.250088997318635   0.002732252609973 1
ion Rh   0.499447172134337  -0.000088085438138   0.510507490207861 1
ion Rh   0.503279250327134   0.260148068582170   0.742691090085194 1
ion Rh   0.750623694012771   0.001315505552524   0.743324505201368 1
ion Rh   0.752299375522370   0.250836493217523   0.498449296552808 1
ion Rh   0.501400763070361   0.505068240191655   0.004300242843343 1
ion Rh   0.508955276252423   0.754088116696490   0.249532252213977 1
ion Rh   0.748920252976603   0.509062769813737   0.247983326757946 1
ion Rh   0.754562033633690   0.756478190175826  -0.002562378179491 1
ion Rh   0.506981182598036   0.503589823603318   0.500217702935950 1
ion Rh   0.501847238063490   0.747722436107767   0.752149122821934 1
ion Rh   0.750083835131084   0.501778860120282   0.751382698715331 1
ion Rh   0.757244291017339   0.756924104763673   0.502765588625143 1
ion O   0.135004453430131   0.135488460877859   0.136546969424541 1

# Forces in Lattice coordinates:
force Rh  -0.807719547307783  -0.710800176390971  -0.816250916457796 0
force Rh  -0.339200518549931   0.401268816211701   0.347400438646656 1
force Rh   0.192204889263655  -0.092092459460817   0.118949813654376 1
force Rh   0.193078348665899   0.353951028308407  -0.166238545221784 1
force Rh  -0.132329277823886  -0.144603042520475   0.196135440530185 1
force Rh  -0.003559395054059  -0.130080477873005  -0.009019582800672 1
force Rh  -0.054515005487700   0.192535379485531  -0.109283637546153 1
force Rh   0.100097551558458   0.004819787490537   0.167532184160291 1
force Rh  -0.010728578287299   0.076738508608315  -0.000543882209807 1
force Rh  -0.017759141686155  -0.076120901857984   0.001857326083833 1
force Rh   0.079695405494189   0.268973158934131  -0.016153565039942 1
force Rh  -0.197546430583388   0.118512457936435   0.026949870887940 1
force Rh   0.040485569733475  -0.051280347165377   0.038776476057012 1
force Rh   0.042020969310146   0.006573786763805  -0.180691850200838 1
force Rh   0.041617713774065  -0.022413134633356  -0.029784160528538 1
force Rh   0.030435576156758  -0.191753262458462   0.160466273394639 1
force Rh  -0.074538302876941   0.152946134671510   0.033033727954614 1
force Rh   0.067056021359568  -0.118976836854894  -0.023851582473192 1
force Rh  -0.044041571561471  -0.037574407589106  -0.078541097596136 1
force Rh   0.266769930463410   0.066200981294366  -0.105073047185916 1
force Rh   0.142051561170192   0.045299650243764  -0.085137150765480 1
force Rh   0.034975528694310  -0.169072709421931   0.013977794043228 1
force Rh   0.116874649595570   0.105948151989891   0.172448633320574 1
force Rh  -0.119972674574226   0.081137539249731   0.159891090488606 1
force Rh   0.113491960925916  -0.016649405058505  -0.076073647555827 1
force Rh  -0.004123891910387  -0.164348125660847   0.097518672731069 1
force Rh   0.008160537405225  -0.023039660485464   0.033795052204708 1
force Rh   0.000229743630379  -0.103771494860086   0.069041371703294 1
force Rh  -0.107621775396762   0.036280196380250  -0.051397568646400 1
force Rh   0.054120824286510   0.024352727958339  -0.072769280071013 1
force Rh   0.057264237170025   0.020682331807562   0.027086515258161 1
force Rh  -0.081430383922812  -0.066004995937868  -0.016426342911236 1
force O   0.414506744929198   0.162675832657789   0.172842448450355 1

# Energy components:
   Eewald =    -2325.1189452091593921
       EH =      397.0298800976117377
     Eloc =     -973.9956586995689349
      Enl =     -348.6393431366218465
      Exc =     -480.7267108186063069
 Exc_core =      127.3122567560738787
       KE =      977.1255233337956270
-------------------------------------
     Etot =    -2627.0129976764751518
       TS =        0.3739371131742327
-------------------------------------
        F =    -2627.3869347896493309

IonicMinimize: Iter:   4  F: -2627.386934789649331  |grad|_K:  9.372e-03  alpha:  4.248e-01  linmin: -6.464e-01  t[s]:  15251.67

#--- Lowdin population analysis ---
# oxidation-state Rh +0.058 +0.066 +0.065 +0.060 -0.002 -0.000 +0.000 +0.000 -0.001 -0.001 -0.000 +0.002 +0.010 +0.007 +0.008 +0.010 +0.001 -0.001 -0.001 +0.001 +0.010 +0.007 +0.006 +0.008 +0.012 +0.008 +0.006 +0.008 +0.009 +0.013 +0.011 +0.012
# oxidation-state O +0.030


-------- Electronic minimization -----------
Will mix electronic density at each iteration.
	FillingsUpdate:  mu: +0.802246775  nElectrons: 486.000000
	FillingsUpdate:  mu: +0.806257592  nElectrons: 486.000000
SCF: Cycle:  0   F: -2594.621786882984907   dF: +2.872e+01   |Residual|: 2.057e+00   |deigs|: 1.106e-02  t[s]:  15476.78
	FillingsUpdate:  mu: +0.846496886  nElectrons: 486.000000
SCF: Cycle:  1   F: -2565.837409109695272   dF: +2.878e+01   |Residual|: 3.219e+00   |deigs|: 7.829e-02  t[s]:  15647.23
	FillingsUpdate:  mu: +0.810331688  nElectrons: 486.000000
SCF: Cycle:  2   F: -2617.178825567225431   dF: -5.134e+01   |Residual|: 1.483e+00   |deigs|: 6.905e-02  t[s]:  15816.95
	FillingsUpdate:  mu: +0.803670297  nElectrons: 486.000000
SCF: Cycle:  3   F: -2625.452258276533485   dF: -8.273e+00   |Residual|: 6.452e-01   |deigs|: 1.932e-02  t[s]:  15988.68
	FillingsUpdate:  mu: +0.802774459  nElectrons: 486.000000
SCF: Cycle:  4   F: -2623.720484567340918   dF: +1.732e+00   |Residual|: 8.385e-01   |deigs|: 5.899e-03  t[s]:  16166.69
	FillingsUpdate:  mu: +0.802211435  nElectrons: 486.000000
SCF: Cycle:  5   F: -2626.647243811818498   dF: -2.927e+00   |Residual|: 3.542e-01   |deigs|: 6.383e-03  t[s]:  16340.09
	FillingsUpdate:  mu: +0.802295820  nElectrons: 486.000000
SCF: Cycle:  6   F: -2627.132157079930039   dF: -4.849e-01   |Residual|: 2.313e-01   |deigs|: 1.851e-03  t[s]:  16506.79
	FillingsUpdate:  mu: +0.802458830  nElectrons: 486.000000
SCF: Cycle:  7   F: -2627.160230740150382   dF: -2.807e-02   |Residual|: 1.987e-01   |deigs|: 1.667e-03  t[s]:  16685.46
	FillingsUpdate:  mu: +0.802320426  nElectrons: 486.000000
SCF: Cycle:  8   F: -2627.313273551953898   dF: -1.530e-01   |Residual|: 1.188e-01   |deigs|: 9.152e-04  t[s]:  16844.61
	FillingsUpdate:  mu: +0.802119972  nElectrons: 486.000000
SCF: Cycle:  9   F: -2627.395405094701346   dF: -8.213e-02   |Residual|: 4.631e-02   |deigs|: 9.885e-04  t[s]:  16990.26
	FillingsUpdate:  mu: +0.802020802  nElectrons: 486.000000
SCF: Cycle: 10   F: -2627.401575612954275   dF: -6.171e-03   |Residual|: 2.514e-02   |deigs|: 3.760e-04  t[s]:  17086.54
	FillingsUpdate:  mu: +0.802064249  nElectrons: 486.000000
SCF: Cycle: 11   F: -2627.403979082999740   dF: -2.403e-03   |Residual|: 1.788e-02   |deigs|: 1.893e-04  t[s]:  17183.62
	FillingsUpdate:  mu: +0.802084595  nElectrons: 486.000000
SCF: Cycle: 12   F: -2627.405613324629030   dF: -1.634e-03   |Residual|: 4.669e-03   |deigs|: 8.339e-05  t[s]:  17276.66
	FillingsUpdate:  mu: +0.802088934  nElectrons: 486.000000
SCF: Cycle: 13   F: -2627.405694181382842   dF: -8.086e-05   |Residual|: 3.066e-03   |deigs|: 2.536e-05  t[s]:  17374.95
	FillingsUpdate:  mu: +0.802090260  nElectrons: 486.000000
SCF: Cycle: 14   F: -2627.405715545803105   dF: -2.136e-05   |Residual|: 2.133e-03   |deigs|: 1.546e-05  t[s]:  17475.18
	FillingsUpdate:  mu: +0.802089458  nElectrons: 486.000000
SCF: Cycle: 15   F: -2627.405733808595869   dF: -1.826e-05   |Residual|: 1.101e-03   |deigs|: 1.131e-05  t[s]:  17568.79
	FillingsUpdate:  mu: +0.802089441  nElectrons: 486.000000
SCF: Cycle: 16   F: -2627.405736607034214   dF: -2.798e-06   |Residual|: 6.946e-04   |deigs|: 4.302e-06  t[s]:  17666.49
	FillingsUpdate:  mu: +0.802089294  nElectrons: 486.000000
SCF: Cycle: 17   F: -2627.405738523502350   dF: -1.916e-06   |Residual|: 3.270e-04   |deigs|: 2.754e-06  t[s]:  17766.21
	FillingsUpdate:  mu: +0.802089921  nElectrons: 486.000000
SCF: Cycle: 18   F: -2627.405738958908842   dF: -4.354e-07   |Residual|: 1.477e-04   |deigs|: 2.481e-06  t[s]:  17864.53
	FillingsUpdate:  mu: +0.802089928  nElectrons: 486.000000
SCF: Cycle: 19   F: -2627.405738992074475   dF: -3.317e-08   |Residual|: 1.016e-04   |deigs|: 8.193e-07  t[s]:  17961.76
	FillingsUpdate:  mu: +0.802089874  nElectrons: 486.000000
SCF: Cycle: 20   F: -2627.405738958449547   dF: +3.362e-08   |Residual|: 1.276e-04   |deigs|: 9.265e-07  t[s]:  18055.40
	FillingsUpdate:  mu: +0.802089867  nElectrons: 486.000000
SCF: Cycle: 21   F: -2627.405739031185476   dF: -7.274e-08   |Residual|: 4.235e-05   |deigs|: 7.170e-07  t[s]:  18151.90
	FillingsUpdate:  mu: +0.802089916  nElectrons: 486.000000
SCF: Cycle: 22   F: -2627.405739028101834   dF: +3.084e-09   |Residual|: 4.706e-05   |deigs|: 5.837e-07  t[s]:  18253.79
	FillingsUpdate:  mu: +0.802089946  nElectrons: 486.000000
SCF: Cycle: 23   F: -2627.405739034849830   dF: -6.748e-09   |Residual|: 3.192e-05   |deigs|: 5.066e-07  t[s]:  18351.33
	FillingsUpdate:  mu: +0.802089942  nElectrons: 486.000000
SCF: Cycle: 24   F: -2627.405739040128992   dF: -5.279e-09   |Residual|: 1.366e-05   |deigs|: 5.160e-07  t[s]:  18448.41
SCF: Converged (|Delta E|<1.000000e-08 for 2 iters).

Setting wave functions to eigenvectors of Hamiltonian

# Ionic positions in lattice coordinates:
ion Rh   0.000000000000000   0.000000000000000   0.000000000000000 0
ion Rh  -0.020395029579611   0.273022565942810   0.268012555110260 1
ion Rh   0.273733393589875  -0.016870794165210   0.268172905337363 1
ion Rh   0.273692686884824   0.266979450886997  -0.023637216316816 1
ion Rh   0.006560977672939   0.004806446661909   0.498618924378050 1
ion Rh  -0.000821772795066   0.254802995746723   0.748844760942302 1
ion Rh   0.253830405617580  -0.005431014584451   0.752044710722066 1
ion Rh   0.249290562669146   0.253454907134051   0.501105800056133 1
ion Rh   0.000578830142242   0.499887068155172  -0.001016159180069 1
ion Rh   0.002627448478334   0.751830020909437   0.250445078018966 1
ion Rh   0.249978620280711   0.497604371905145   0.251845548473734 1
ion Rh   0.256461537497230   0.744911836295903   0.002086344069673 1
ion Rh  -0.001880183178335   0.508969767038409   0.503881026746738 1
ion Rh   0.001798509379112   0.753552700213780   0.755519747155607 1
ion Rh   0.250148445753671   0.505732327354373   0.745567242121771 1
ion Rh   0.251888266003857   0.748005687594620   0.501484968598320 1
ion Rh   0.505993072014517  -0.003563156507638  -0.002508101005705 1
ion Rh   0.501657611060704   0.253928965032883   0.253738520690285 1
ion Rh   0.749872908410276   0.002567836857364   0.254771468077178 1
ion Rh   0.741544543226033   0.251334911357516   0.000772614432735 1
ion Rh   0.502981134404803   0.000495474717614   0.509302056262170 1
ion Rh   0.504496456688379   0.256748414898384   0.742825581300893 1
ion Rh   0.752974035617107   0.002909640087493   0.747058420841344 1
ion Rh   0.749659861507217   0.252151811419770   0.501772521349697 1
ion Rh   0.503759467692234   0.505583593012237   0.002487033356850 1
ion Rh   0.508797093743933   0.750424573132226   0.250913737304249 1
ion Rh   0.748696180009440   0.508600803220632   0.248816813657514 1
ion Rh   0.754457765023221   0.754768591938759  -0.001370602675680 1
ion Rh   0.504729318097381   0.503975752409499   0.499421440639857 1
ion Rh   0.502769391819030   0.748935359818312   0.751284861810908 1
ion Rh   0.751166158364978   0.502301888374392   0.751737701725939 1
ion Rh   0.755464197279830   0.755768190201140   0.502725014801750 1
ion O   0.140066870354395   0.138124468691607   0.140198335511189 1

# Forces in Lattice coordinates:
force Rh  -0.557948598312206  -0.493172430597292  -0.566271909433105 0
force Rh  -0.046251725579537   0.106363844206812   0.106380016758657 1
force Rh   0.229095055442274  -0.213749724156592   0.228861540194776 1
force Rh   0.015013760587529   0.126062331538151   0.029905130138443 1
force Rh  -0.080909343132263  -0.076344133359408   0.090414414289344 1
force Rh   0.026279024822880  -0.050317239154027   0.010073230635712 1
force Rh  -0.015140284245254   0.119635722982499  -0.053560079699033 1
force Rh   0.058222688471836  -0.006198362028322   0.069360824655877 1
force Rh   0.011508936859352   0.044352054896160   0.011142971746228 1
force Rh  -0.013218358333156  -0.033300739682711   0.020880691000815 1
force Rh   0.047887368149141   0.137121997313685  -0.012278281307032 1
force Rh  -0.083446751926834   0.084413557621685  -0.007513536199332 1
force Rh   0.026309229381712  -0.009878954043848   0.049434112684837 1
force Rh   0.024270083767296   0.010944810487838  -0.078667579359568 1
force Rh   0.031122282012257   0.010262191122836  -0.005332473774574 1
force Rh   0.018104216436776  -0.025936760852575   0.052984074828373 1
force Rh  -0.040855944508605   0.090527053061821   0.029552111097046 1
force Rh   0.045710697413642  -0.045847176906794  -0.031767200393151 1
force Rh  -0.005307691615582  -0.020088142150134  -0.043354559462308 1
force Rh   0.162957586725329   0.037883085421999  -0.031750225188899 1
force Rh   0.072758471775526   0.009231229533399  -0.061719404951481 1
force Rh   0.034086269850597  -0.086614894642807   0.028891066864712 1
force Rh   0.052180082251833   0.024939587600630   0.108807139594208 1
force Rh  -0.056543964783527   0.033782149240767   0.080012976378456 1
force Rh   0.083729913011106   0.029150631600495  -0.047835025008918 1
force Rh  -0.046083246442858  -0.039324373904481   0.030487986533530 1
force Rh  -0.007097653727502  -0.011367398337025   0.027653368802199 1
force Rh   0.000273157031400  -0.032009448087299   0.040363048449315 1
force Rh  -0.051188472540520  -0.009837389068047  -0.005082099019065 1
force Rh   0.027805494370490   0.039997725143870  -0.017224599063162 1
force Rh   0.030501534089136   0.023756885665540   0.005100936649384 1
force Rh  -0.041132502290124  -0.036258677430981  -0.005481119233755 1
force O   0.046119823879689   0.261941412450396  -0.052492603096220 1

# Energy components:
   Eewald =    -2326.0524682263271643
       EH =      396.1824832338174929
     Eloc =     -972.1517585437742355
      Enl =     -348.6417625598384120
      Exc =     -480.6928660339170847
 Exc_core =      127.3122593353627252
       KE =      977.0125447656481583
-------------------------------------
     Etot =    -2627.0315680290282216
       TS =        0.3741710111009121
-------------------------------------
        F =    -2627.4057390401289922

IonicMinimize: Iter:   5  F: -2627.405739040128992  |grad|_K:  4.989e-03  alpha:  5.146e-01  linmin: -4.338e-01  t[s]:  18470.64

#--- Lowdin population analysis ---
# oxidation-state Rh +0.057 +0.068 +0.070 +0.065 -0.001 +0.001 +0.001 -0.000 -0.001 -0.000 +0.000 +0.001 +0.011 +0.008 +0.009 +0.008 -0.000 -0.001 +0.001 +0.001 +0.010 +0.008 +0.008 +0.009 +0.012 +0.007 +0.008 +0.008 +0.010 +0.012 +0.011 +0.012
# oxidation-state O +0.008


-------- Electronic minimization -----------
Will mix electronic density at each iteration.
	FillingsUpdate:  mu: +0.802089942  nElectrons: 486.000000
	FillingsUpdate:  mu: +0.803099000  nElectrons: 486.000000
SCF: Cycle:  0   F: -2604.424183026901119   dF: +1.894e+01   |Residual|: 1.867e+00   |deigs|: 1.049e-02  t[s]:  18701.81
	FillingsUpdate:  mu: +0.836464004  nElectrons: 486.000000
SCF: Cycle:  1   F: -2578.330730863795907   dF: +2.609e+01   |Residual|: 2.938e+00   |deigs|: 6.476e-02  t[s]:  18879.16
	FillingsUpdate:  mu: +0.807196227  nElectrons: 486.000000
SCF: Cycle:  2   F: -2620.941068910294234   dF: -4.261e+01   |Residual|: 1.204e+00   |deigs|: 5.720e-02  t[s]:  19047.35
	FillingsUpdate:  mu: +0.803298516  nElectrons: 486.000000
SCF: Cycle:  3   F: -2625.310801011534750   dF: -4.370e+00   |Residual|: 6.683e-01   |deigs|: 1.502e-02  t[s]:  19221.95
	FillingsUpdate:  mu: +0.802433926  nElectrons: 486.000000
SCF: Cycle:  4   F: -2624.245769223419302   dF: +1.065e+00   |Residual|: 7.650e-01   |deigs|: 5.777e-03  t[s]:  19394.21
	FillingsUpdate:  mu: +0.802074408  nElectrons: 486.000000
SCF: Cycle:  5   F: -2627.034504857620050   dF: -2.789e+00   |Residual|: 2.439e-01   |deigs|: 6.282e-03  t[s]:  19562.03
	FillingsUpdate:  mu: +0.802198368  nElectrons: 486.000000
SCF: Cycle:  6   F: -2627.175962246048130   dF: -1.415e-01   |Residual|: 2.087e-01   |deigs|: 1.183e-03  t[s]:  19734.65
	FillingsUpdate:  mu: +0.802230373  nElectrons: 486.000000
SCF: Cycle:  7   F: -2627.346013808714360   dF: -1.701e-01   |Residual|: 1.062e-01   |deigs|: 1.264e-03  t[s]:  19906.69
	FillingsUpdate:  mu: +0.802111766  nElectrons: 486.000000
SCF: Cycle:  8   F: -2627.397356240963745   dF: -5.134e-02   |Residual|: 5.450e-02   |deigs|: 5.519e-04  t[s]:  20033.84
	FillingsUpdate:  mu: +0.801932558  nElectrons: 486.000000
SCF: Cycle:  9   F: -2627.403159252844489   dF: -5.803e-03   |Residual|: 4.163e-02   |deigs|: 6.269e-04  t[s]:  20140.60
	FillingsUpdate:  mu: +0.801971501  nElectrons: 486.000000
SCF: Cycle: 10   F: -2627.411443991743909   dF: -8.285e-03   |Residual|: 1.496e-02   |deigs|: 2.087e-04  t[s]:  20242.31
	FillingsUpdate:  mu: +0.802022426  nElectrons: 486.000000
SCF: Cycle: 11   F: -2627.411325291044704   dF: +1.187e-04   |Residual|: 1.502e-02   |deigs|: 1.521e-04  t[s]:  20338.91
	FillingsUpdate:  mu: +0.802014082  nElectrons: 486.000000
SCF: Cycle: 12   F: -2627.412680287903640   dF: -1.355e-03   |Residual|: 3.636e-03   |deigs|: 1.123e-04  t[s]:  20434.81
	FillingsUpdate:  mu: +0.802017722  nElectrons: 486.000000
SCF: Cycle: 13   F: -2627.412724552084001   dF: -4.426e-05   |Residual|: 2.455e-03   |deigs|: 1.988e-05  t[s]:  20535.38
	FillingsUpdate:  mu: +0.802017947  nElectrons: 486.000000
SCF: Cycle: 14   F: -2627.412742540811905   dF: -1.799e-05   |Residual|: 1.444e-03   |deigs|: 1.276e-05  t[s]:  20632.82
	FillingsUpdate:  mu: +0.802016867  nElectrons: 486.000000
SCF: Cycle: 15   F: -2627.412747754447992   dF: -5.214e-06   |Residual|: 9.945e-04   |deigs|: 9.183e-06  t[s]:  20730.50
	FillingsUpdate:  mu: +0.802017478  nElectrons: 486.000000
SCF: Cycle: 16   F: -2627.412751221113012   dF: -3.467e-06   |Residual|: 4.390e-04   |deigs|: 4.142e-06  t[s]:  20828.41
	FillingsUpdate:  mu: +0.802017693  nElectrons: 486.000000
SCF: Cycle: 17   F: -2627.412751946244043   dF: -7.251e-07   |Residual|: 2.375e-04   |deigs|: 2.249e-06  t[s]:  20925.05
	FillingsUpdate:  mu: +0.802017875  nElectrons: 486.000000
SCF: Cycle: 18   F: -2627.412752048799575   dF: -1.026e-07   |Residual|: 1.834e-04   |deigs|: 1.321e-06  t[s]:  21020.57
	FillingsUpdate:  mu: +0.802017828  nElectrons: 486.000000
[...]
ion Rh   0.769930785503571   0.519569871934421   0.769801628598677 1
ion Rh   0.769818795340293   0.769770771005603   0.519688999855817 1
ion O   0.143493676841261   0.143952944173638   0.143594326608700 1

# Forces in Lattice coordinates:
force Rh   0.007835224543285   0.003746489185200   0.000915151796097 0
force Rh  -0.042003835432922   0.029410340829817   0.034496309905385 1
force Rh  -0.004877516005762   0.002049247237233  -0.005488885325207 1
force Rh  -0.004372164970769  -0.003295127879309  -0.000460510246046 1
force Rh   0.003124705581047  -0.001300177244998   0.000379364819336 1
force Rh   0.002211580110824  -0.002925651775955   0.002003009461108 1
force Rh  -0.000287562739245   0.003422274381566   0.005988952805786 1
force Rh  -0.002855056216606  -0.004208218249108   0.001582090381382 1
force Rh   0.002530927186895  -0.000345211775077  -0.001800843047908 1
force Rh  -0.004343751193403  -0.001956181259167  -0.004184663771692 1
force Rh   0.000122723867380   0.001826837796971  -0.008419771210212 1
force Rh  -0.008277628773536   0.000161805701059  -0.000809004298418 1
force Rh  -0.007554844903066  -0.010964324587505  -0.007466343394462 1
force Rh   0.001166634152861   0.001800205897949   0.005445929891310 1
force Rh  -0.000496787932436  -0.006636415414344   0.010638301512972 1
force Rh   0.002422401653615   0.004080725026764  -0.004828722935093 1
force Rh  -0.002306465039270   0.004190958548795  -0.001845172121799 1
force Rh  -0.001749052146456  -0.006691589010483  -0.004986388626234 1
force Rh  -0.003862214688290  -0.001944373755312  -0.001788169948679 1
force Rh  -0.001195441740309   0.002849175348103  -0.000625249767056 1
force Rh  -0.006010354542362  -0.000597643396829  -0.004183827562530 1
force Rh  -0.011597773263587  -0.002176154156002   0.004868188297454 1
force Rh   0.003758632548324   0.000896706895532   0.008417776162048 1
force Rh   0.011716254830901   0.007944727970894  -0.018811285461673 1
force Rh   0.002524767063214  -0.003573562973651  -0.000823929636924 1
force Rh   0.000913241454350  -0.005613102793151   0.004609689696819 1
force Rh   0.007844825199474  -0.008074608956698  -0.001360635795103 1
force Rh   0.002563185116448   0.002518670887371  -0.000433188046462 1
force Rh   0.005835933851961   0.004791923422544  -0.002262863667080 1
force Rh   0.004674644296755  -0.005065946299951   0.001423597491998 1
force Rh  -0.000963025613023   0.002543244851192  -0.000871362441123 1
force Rh   0.000433864094454  -0.000822831207221  -0.005376174201841 1
force O   0.043800215435592  -0.005243113636849  -0.002788743102132 1

# Energy components:
   Eewald =    -2326.4272181546848515
       EH =      395.8612515435252703
     Eloc =     -971.3931456666869053
      Enl =     -348.6290558305936429
      Exc =     -480.6639472979878747
 Exc_core =      127.3122746535528336
       KE =      976.8893072135674629
-------------------------------------
     Etot =    -2627.0505335393077075
       TS =        0.3738162404522749
-------------------------------------
        F =    -2627.4243497797601776

IonicMinimize: Iter:  15  F: -2627.424349779760178  |grad|_K:  6.368e-04  alpha:  1.000e+00  linmin:  8.127e-02  t[s]:  45737.04

#--- Lowdin population analysis ---
# oxidation-state Rh +0.072 +0.071 +0.071 +0.071 +0.000 +0.000 +0.000 +0.000 +0.000 +0.000 +0.000 +0.000 +0.009 +0.009 +0.009 +0.010 +0.000 +0.000 +0.000 +0.000 +0.009 +0.009 +0.009 +0.009 +0.009 +0.009 +0.009 +0.009 +0.011 +0.011 +0.011 +0.011
# oxidation-state O -0.025


-------- Electronic minimization -----------
Will mix electronic density at each iteration.
	FillingsUpdate:  mu: +0.801962503  nElectrons: 486.000000
	FillingsUpdate:  mu: +0.801974130  nElectrons: 486.000000
SCF: Cycle:  0   F: -2627.424144794229505   dF: -5.051e-05   |Residual|: 6.580e-03   |deigs|: 2.470e-05  t[s]:  45953.92
	FillingsUpdate:  mu: +0.801966278  nElectrons: 486.000000
SCF: Cycle:  1   F: -2627.422292943288539   dF: +1.852e-03   |Residual|: 1.738e-02   |deigs|: 8.515e-05  t[s]:  46050.46
	FillingsUpdate:  mu: +0.801968704  nElectrons: 486.000000
SCF: Cycle:  2   F: -2627.424394145258248   dF: -2.101e-03   |Residual|: 2.443e-03   |deigs|: 7.284e-05  t[s]:  46147.21
	FillingsUpdate:  mu: +0.801969523  nElectrons: 486.000000
SCF: Cycle:  3   F: -2627.424310848710320   dF: +8.330e-05   |Residual|: 4.496e-03   |deigs|: 2.002e-05  t[s]:  46242.79
	FillingsUpdate:  mu: +0.801968154  nElectrons: 486.000000
SCF: Cycle:  4   F: -2627.424419532233060   dF: -1.087e-04   |Residual|: 6.839e-04   |deigs|: 1.754e-05  t[s]:  46340.92
	FillingsUpdate:  mu: +0.801968360  nElectrons: 486.000000
SCF: Cycle:  5   F: -2627.424419150517224   dF: +3.817e-07   |Residual|: 7.038e-04   |deigs|: 4.548e-06  t[s]:  46443.94
	FillingsUpdate:  mu: +0.801968849  nElectrons: 486.000000
SCF: Cycle:  6   F: -2627.424420909226228   dF: -1.759e-06   |Residual|: 2.915e-04   |deigs|: 3.804e-06  t[s]:  46546.34
	FillingsUpdate:  mu: +0.801968559  nElectrons: 486.000000
SCF: Cycle:  7   F: -2627.424421160465045   dF: -2.512e-07   |Residual|: 1.826e-04   |deigs|: 2.002e-06  t[s]:  46641.90
	FillingsUpdate:  mu: +0.801968332  nElectrons: 486.000000
SCF: Cycle:  8   F: -2627.424421325362800   dF: -1.649e-07   |Residual|: 6.149e-05   |deigs|: 1.393e-06  t[s]:  46739.50
	FillingsUpdate:  mu: +0.801968418  nElectrons: 486.000000
SCF: Cycle:  9   F: -2627.424421324002651   dF: +1.360e-09   |Residual|: 6.223e-05   |deigs|: 5.721e-07  t[s]:  46836.64
	FillingsUpdate:  mu: +0.801968446  nElectrons: 486.000000
SCF: Cycle: 10   F: -2627.424421341273955   dF: -1.727e-08   |Residual|: 1.752e-05   |deigs|: 3.063e-07  t[s]:  46934.40
	FillingsUpdate:  mu: +0.801968440  nElectrons: 486.000000
SCF: Cycle: 11   F: -2627.424421337742842   dF: +3.531e-09   |Residual|: 2.692e-05   |deigs|: 1.952e-07  t[s]:  47029.75
	FillingsUpdate:  mu: +0.801968434  nElectrons: 486.000000
SCF: Cycle: 12   F: -2627.424421342000187   dF: -4.257e-09   |Residual|: 8.140e-06   |deigs|: 1.473e-07  t[s]:  47128.81
	FillingsUpdate:  mu: +0.801968436  nElectrons: 486.000000
SCF: Cycle: 13   F: -2627.424421342432652   dF: -4.325e-10   |Residual|: 4.285e-06   |deigs|: 8.539e-08  t[s]:  47200.89
SCF: Converged (|Delta E|<1.000000e-08 for 2 iters).

Setting wave functions to eigenvectors of Hamiltonian

# Ionic positions in lattice coordinates:
ion Rh   0.000000000000000   0.000000000000000   0.000000000000000 0
ion Rh   0.000516910187180   0.288135217978314   0.288036257002525 1
ion Rh   0.288105051627135   0.000367020917512   0.288020453200573 1
ion Rh   0.288150678083348   0.288129317152020   0.000094302196313 1
ion Rh   0.018874090021689   0.018836906156001   0.519961946222627 1
ion Rh   0.018851737174819   0.269749323289547   0.768140524808890 1
ion Rh   0.269807878010994   0.018757834497423   0.768089344438665 1
ion Rh   0.269879066024279   0.269814395552486   0.520111339739121 1
ion Rh   0.018880091759135   0.520326678215762   0.018599948381670 1
ion Rh   0.018900224174134   0.768318479683451   0.269554231590642 1
ion Rh   0.269927061467619   0.520247582788493   0.269598363257939 1
ion Rh   0.269859005067343   0.768230197496072   0.018598904702625 1
ion Rh   0.018683332777638   0.522548847555928   0.522401464317693 1
ion Rh   0.018623735467419   0.765651764074997   0.765549614204895 1
ion Rh   0.269997543123715   0.522749721811462   0.765675298308601 1
ion Rh   0.270000917509721   0.765889916587159   0.522455156955363 1
ion Rh   0.520363743227403   0.018688192814660   0.018558993591920 1
ion Rh   0.520394323704158   0.269886988128360   0.269604825312273 1
ion Rh   0.768399706799486   0.018825316746904   0.269590630266995 1
ion Rh   0.768304421075443   0.269735924171136   0.018691332136054 1
ion Rh   0.522672185421591   0.018642116971872   0.522469978966057 1
ion Rh   0.522815136894170   0.269923225022938   0.765622208268777 1
ion Rh   0.765667814218013   0.018460010462293   0.765557437619899 1
ion Rh   0.766007174846337   0.269940079621309   0.522420548619712 1
ion Rh   0.522632398939801   0.522749013607284   0.018478530534639 1
ion Rh   0.522724216808098   0.765812863874442   0.269705968619837 1
ion Rh   0.765884446731192   0.522652699587220   0.269796817114910 1
ion Rh   0.765565093793037   0.765524749084521   0.018417341864458 1
ion Rh   0.519247269143683   0.519219028584426   0.519096661173272 1
ion Rh   0.519090755282298   0.769293074649345   0.769218285663794 1
ion Rh   0.769273464133074   0.519152327416908   0.769179391004700 1
ion Rh   0.769258756479330   0.769207461154120   0.519005882403949 1
ion O   0.143870913970935   0.144145741838163   0.143649751588544 1

# Forces in Lattice coordinates:
force Rh   0.002994100652779   0.001081306564853  -0.001525467937813 0
force Rh  -0.003331618404987   0.003049451914486  -0.001701669049321 1
force Rh  -0.001131727810625   0.006027024554134  -0.008282490612531 1
force Rh   0.003846154028497   0.000604036894852  -0.000189713966747 1
force Rh  -0.002968949482714  -0.003659855500518   0.004146502589237 1
force Rh  -0.002707579859339  -0.000737944986426  -0.000355015996233 1
force Rh  -0.001500874174108  -0.000442960019903   0.000847365505448 1
force Rh  -0.000093462104319  -0.000588243024242  -0.000600757223143 1
force Rh  -0.002583231209404  -0.002168999850869  -0.000589534818470 1
force Rh  -0.003726048055185  -0.001738929700300   0.001250447820715 1
force Rh  -0.002294818395151  -0.000913131254639   0.000288942641219 1
force Rh  -0.002794001321288   0.002626004873471  -0.000253508900701 1
force Rh   0.000666805613251   0.008014993125268   0.007111036222543 1
force Rh   0.000403638231102  -0.001436155780553  -0.004343739849298 1
force Rh  -0.002546746002325   0.002090797550368  -0.004883809084841 1
force Rh  -0.002582402888447  -0.005892069456041   0.005507136132394 1
force Rh  -0.002474765117990   0.002403283878973   0.001512569009716 1
force Rh  -0.003465660695257  -0.003727964708200  -0.000453401424462 1
force Rh  -0.002246779216063  -0.003305928067728   0.000467840822868 1
force Rh   0.000729795088527   0.000783161361681  -0.003357423893564 1
force Rh   0.004967058418508   0.000287771749883   0.002744423403024 1
force Rh   0.002634330571440  -0.001692146162830  -0.001937413607858 1
force Rh   0.000075787949122   0.003303781329684  -0.004564763381202 1
force Rh  -0.006931237023135  -0.002265985666404   0.007828866279912 1
force Rh   0.003680207614469  -0.002247957568406  -0.000012167581346 1
force Rh   0.003779668100959  -0.001480661093944   0.001237411971120 1
force Rh  -0.002430166547714   0.004527412896276  -0.001938784261940 1
force Rh   0.003567785913699   0.001575092917666   0.001446762296337 1
force Rh  -0.000349075972152  -0.001175842319546  -0.002028079777723 1
force Rh   0.001578227922503   0.001249778358375  -0.002725127282942 1
force Rh   0.003474071406762  -0.001583832981917  -0.000434179903971 1
force Rh   0.003650376502913   0.003272096763816  -0.000868377256442 1
force O   0.010405458811798  -0.005523932271441   0.007079171149228 1

# Energy components:
   Eewald =    -2326.4269341584677022
       EH =      395.8608763615993098
     Eloc =     -971.3926684509451661
      Enl =     -348.6287558816479759
      Exc =     -480.6638151092465705
 Exc_core =      127.3122761422900879
       KE =      976.8884161841986042
-------------------------------------
     Etot =    -2627.0506049122195691
       TS =        0.3738164302130657
-------------------------------------
        F =    -2627.4244213424326517

IonicMinimize: Iter:  16  F: -2627.424421342432652  |grad|_K:  2.343e-04  alpha:  1.000e+00  linmin:  4.114e-02  t[s]:  47223.17

#--- Lowdin population analysis ---
# oxidation-state Rh +0.072 +0.072 +0.071 +0.071 +0.000 +0.000 +0.000 +0.000 +0.000 +0.000 +0.000 +0.000 +0.009 +0.009 +0.009 +0.009 +0.000 +0.000 +0.000 +0.000 +0.009 +0.009 +0.009 +0.009 +0.009 +0.009 +0.009 +0.009 +0.011 +0.011 +0.011 +0.011
# oxidation-state O -0.026


-------- Electronic minimization -----------
Will mix electronic density at each iteration.
	FillingsUpdate:  mu: +0.801968436  nElectrons: 486.000000
	FillingsUpdate:  mu: +0.801966787  nElectrons: 486.000000
SCF: Cycle:  0   F: -2627.424414828980389   dF: -1.759e-05   |Residual|: 1.818e-03   |deigs|: 2.688e-06  t[s]:  47390.39
	FillingsUpdate:  mu: +0.801967313  nElectrons: 486.000000
SCF: Cycle:  1   F: -2627.424320300557611   dF: +9.453e-05   |Residual|: 4.176e-03   |deigs|: 2.047e-05  t[s]:  47491.78
	FillingsUpdate:  mu: +0.801966483  nElectrons: 486.000000
SCF: Cycle:  2   F: -2627.424429731583132   dF: -1.094e-04   |Residual|: 8.120e-04   |deigs|: 1.735e-05  t[s]:  47589.59
	FillingsUpdate:  mu: +0.801966104  nElectrons: 486.000000
SCF: Cycle:  3   F: -2627.424423126080001   dF: +6.606e-06   |Residual|: 1.337e-03   |deigs|: 6.450e-06  t[s]:  47690.73
	FillingsUpdate:  mu: +0.801966510  nElectrons: 486.000000
SCF: Cycle:  4   F: -2627.424433081309417   dF: -9.955e-06   |Residual|: 2.014e-04   |deigs|: 5.437e-06  t[s]:  47788.84
	FillingsUpdate:  mu: +0.801966462  nElectrons: 486.000000
SCF: Cycle:  5   F: -2627.424432978369168   dF: +1.029e-07   |Residual|: 2.405e-04   |deigs|: 1.415e-06  t[s]:  47885.71
	FillingsUpdate:  mu: +0.801966350  nElectrons: 486.000000
SCF: Cycle:  6   F: -2627.424433202137607   dF: -2.238e-07   |Residual|: 8.085e-05   |deigs|: 1.142e-06  t[s]:  47986.56
	FillingsUpdate:  mu: +0.801966426  nElectrons: 486.000000
SCF: Cycle:  7   F: -2627.424433215623139   dF: -1.349e-08   |Residual|: 5.999e-05   |deigs|: 6.015e-07  t[s]:  48079.80
	FillingsUpdate:  mu: +0.801966480  nElectrons: 486.000000
SCF: Cycle:  8   F: -2627.424433233213222   dF: -1.759e-08   |Residual|: 2.206e-05   |deigs|: 4.235e-07  t[s]:  48178.08
	FillingsUpdate:  mu: +0.801966444  nElectrons: 486.000000
SCF: Cycle:  9   F: -2627.424433233927630   dF: -7.144e-10   |Residual|: 1.750e-05   |deigs|: 2.283e-07  t[s]:  48272.85
	FillingsUpdate:  mu: +0.801966434  nElectrons: 486.000000
SCF: Cycle: 10   F: -2627.424433235128163   dF: -1.201e-09   |Residual|: 5.075e-06   |deigs|: 1.227e-07  t[s]:  48366.74
SCF: Converged (|Delta E|<1.000000e-08 for 2 iters).

Setting wave functions to eigenvectors of Hamiltonian

# Ionic positions in lattice coordinates:
ion Rh   0.000000000000000   0.000000000000000   0.000000000000000 0
ion Rh   0.000222151733068   0.288031690153229   0.287831281423957 1
ion Rh   0.288028577738578   0.000178446604617   0.287815317740753 1
ion Rh   0.288043480465184   0.287993789013454  -0.000165290307182 1
ion Rh   0.018617510526737   0.018566571478012   0.519815362982925 1
ion Rh   0.018603845503271   0.269514275941400   0.767920363118007 1
ion Rh   0.269576702243666   0.018557887288049   0.767862486093948 1
ion Rh   0.269663747876867   0.269587180625693   0.519910828139209 1
ion Rh   0.018639707326158   0.520080588460929   0.018355553259877 1
ion Rh   0.018641480130674   0.768086789817266   0.269375724341492 1
ion Rh   0.269686402857394   0.520060796022623   0.269380630089191 1
ion Rh   0.269594328420998   0.768086073282009   0.018380323543538 1
ion Rh   0.018452418964786   0.522516813145429   0.522347719121067 1
ion Rh   0.018451637631884   0.765508958714703   0.765304636977207 1
ion Rh   0.269742626900021   0.522565018177957   0.765388783546984 1
ion Rh   0.269765727077724   0.765591954534614   0.522313691782939 1
ion Rh   0.520115055624779   0.018534545526622   0.018363892240897 1
ion Rh   0.520166995964012   0.269599649909079   0.269376332268235 1
ion Rh   0.768157245823625   0.018565994620396   0.269380820002136 1
ion Rh   0.768147818870340   0.269563916993690   0.018407256414959 1
ion Rh   0.522605640027743   0.018422379922608   0.522319406076959 1
ion Rh   0.522664571949525   0.269662153279932   0.765374853053546 1
ion Rh   0.765572162204219   0.018340878027128   0.765361697889001 1
ion Rh   0.765677287489864   0.269718715175688   0.522352872467032 1
ion Rh   0.522525248841094   0.522537112416524   0.018240058599046 1
ion Rh   0.522584608914991   0.765583215895929   0.269513153732836 1
ion Rh   0.765636469311956   0.522552750244052   0.269549997542461 1
ion Rh   0.765509847611435   0.765414467199768   0.018236724959824 1
ion Rh   0.519030981963246   0.518998557368158   0.518828797327064 1
ion Rh   0.518945845148283   0.769117468591068   0.768963048357793 1
ion Rh   0.769139238075346   0.518945507950940   0.768968958495936 1
ion Rh   0.769121749949006   0.769076097454699   0.518795640724552 1
ion O   0.143968418488320   0.144102723164896   0.143725455855125 1

# Forces in Lattice coordinates:
force Rh   0.000186870900603  -0.001937675691482  -0.005185846203292 0
force Rh  -0.002599469320374   0.001949087264807   0.001542331246296 1
force Rh   0.000079929970153   0.000496148993720  -0.001577964949283 1
force Rh   0.001703281536681   0.000270054435497   0.000333787490281 1
force Rh  -0.000607994368552  -0.000659871565040   0.001180527009380 1
force Rh  -0.000378430079428   0.000178364029161  -0.000583248622565 1
force Rh   0.000117212377983  -0.000495868033084   0.000746335998680 1
force Rh  -0.000640478571315  -0.000428089211284  -0.001005716477856 1
force Rh  -0.000705714199860  -0.000883069794225   0.000051291039750 1
force Rh  -0.000996093264318  -0.000651439190562   0.000513850446846 1
force Rh  -0.001515005160743  -0.000901771062480   0.000000368650942 1
force Rh  -0.000215422510859   0.000652046486672  -0.000266028528371 1
force Rh   0.000569366892145   0.001757851688198   0.001846549401812 1
force Rh  -0.000283450661225   0.001029984557435   0.000933791732169 1
force Rh   0.000030724282706   0.001236209831685  -0.001990850176343 1
force Rh  -0.000390681676491  -0.001448172084659   0.002032390511117 1
force Rh  -0.000771748654487   0.000441496860338  -0.000002158905654 1
force Rh  -0.001891249498387  -0.001058474044304   0.000014064143290 1
force Rh  -0.000963453071500  -0.000694717748185   0.000314633717785 1
force Rh  -0.000552576087696  -0.000160729579644  -0.000750474414266 1
force Rh   0.000850333278555  -0.000261563822396   0.001790145983351 1
force Rh   0.000131004352564   0.000233848196792  -0.000771965876808 1
force Rh  -0.000070939211435   0.000521327356608  -0.000946412038565 1
force Rh  -0.002107740605825  -0.000864550062368   0.001708634007145 1
force Rh   0.001994827299785   0.000278619461009  -0.000352036127728 1
force Rh   0.001025613218811  -0.000647977784682   0.000241947057926 1
force Rh  -0.001369119486827   0.001012743145391  -0.000562326129239 1
force Rh   0.001142425516723   0.001875867032550  -0.000458407706634 1
force Rh  -0.000077376898006  -0.000728974023373  -0.000517996595343 1
force Rh   0.001228247139255   0.000537101345017  -0.000643915065010 1
force Rh   0.000879447973470   0.000320056303241  -0.000421630724961 1
force Rh   0.001227233150309   0.001413407723942   0.000232572322860 1
force O   0.004719231175501  -0.002567281551445   0.002412013030531 1

# Energy components:
   Eewald =    -2326.4296070714808593
       EH =      395.8584375662662751
     Eloc =     -971.3875243928864620
      Enl =     -348.6288116928959653
      Exc =     -480.6637794596948083
 Exc_core =      127.3122759114666565
       KE =      976.8883912771796076
-------------------------------------
     Etot =    -2627.0506178620453284
       TS =        0.3738153730827602
-------------------------------------
        F =    -2627.4244332351281628

IonicMinimize: Iter:  17  F: -2627.424433235128163  |grad|_K:  8.105e-05  alpha:  1.000e+00  linmin: -1.874e-01  t[s]:  48389.24
IonicMinimize: Converged (|grad|_K<1.000000e-04).

#--- Lowdin population analysis ---
# oxidation-state Rh +0.071 +0.071 +0.071 +0.071 +0.000 +0.000 +0.000 +0.000 +0.000 +0.000 +0.000 +0.000 +0.009 +0.009 +0.009 +0.009 +0.000 +0.000 +0.000 +0.000 +0.009 +0.009 +0.009 +0.009 +0.009 +0.009 +0.009 +0.009 +0.011 +0.011 +0.011 +0.011
# oxidation-state O -0.026


Dumping '/data/rc652/Rh/tet/Rh_tet.Ecomponents' ... done
End date and time: Tue Jun 25 02:53:05 2024  (Duration: 0-13:26:45.66)
Done!
