--------------------------------------------------------------------------
Initialization of PSM library failed.

  Error: PSM is in the finalized state
--------------------------------------------------------------------------

*************** JDFTx 1.7.0  ***************

Start date and time: Wed Apr 17 13:18:49 2024
Executable jdftx with command-line: -i /home/cam559/Valla_project/Al/Al2O3.in
Running on hosts (process indices):  node3204.physics.cornell.edu (0-9)
Divided in process groups (process indices):  0 (0)  1 (1)  2 (2)  3 (3)  4 (4)  5 (5)  6 (6)  7 (7)  8 (8)  9 (9)
Resource initialization completed at t[s]:      0.00
Run totals: 10 processes, 30 threads, 0 GPUs


Input parsed successfully to the following command list (including defaults):

basis kpoint-dependent
coords-type Cartesian
core-overlap-check vector
coulomb-interaction Periodic
davidson-band-ratio 1.1
dump End Ecomponents
dump-name Al2O3.$VAR
elec-cutoff 20 100
elec-eigen-algo Davidson
elec-ex-corr gga-PBE
elec-smearing Fermi 0.004
electronic-minimize  \
	dirUpdateScheme      FletcherReeves \
	linminMethod         DirUpdateRecommended \
	nIterations          100 \
	history              15 \
	knormThreshold       0 \
	energyDiffThreshold  1e-08 \
	nEnergyDiff          2 \
	alphaTstart          1 \
	alphaTmin            1e-10 \
	updateTestStepSize   yes \
	alphaTreduceFactor   0.1 \
	alphaTincreaseFactor 3 \
	nAlphaAdjustMax      3 \
	wolfeEnergy          0.0001 \
	wolfeGradient        0.9 \
	fdTest               no
exchange-regularization WignerSeitzTruncated
fluid None
fluid-ex-corr lda-TF lda-PZ
fluid-gummel-loop 10 1.000000e-05
fluid-minimize  \
	dirUpdateScheme      PolakRibiere \
	linminMethod         DirUpdateRecommended \
	nIterations          100 \
	history              15 \
	knormThreshold       0 \
	energyDiffThreshold  0 \
	nEnergyDiff          2 \
	alphaTstart          1 \
	alphaTmin            1e-10 \
	updateTestStepSize   yes \
	alphaTreduceFactor   0.1 \
	alphaTincreaseFactor 3 \
	nAlphaAdjustMax      3 \
	wolfeEnergy          0.0001 \
	wolfeGradient        0.9 \
	fdTest               no
fluid-solvent H2O 55.338 ScalarEOS \
	epsBulk 78.4 \
	pMol 0.92466 \
	epsInf 1.77 \
	Pvap 1.06736e-10 \
	sigmaBulk 4.62e-05 \
	Rvdw 2.61727 \
	Res 1.42 \
	tauNuc 343133 \
	poleEl 15 7 1
forces-output-coords Positions
initial-state Al2O3.$VAR
ion Al   7.103471000000001   4.857482000000000  13.558669000000000 1
ion Al   9.342200000000000   6.388373000000000  17.831829999999997 1
ion Al   1.621583000000000   1.108864000000000   3.095171000000000 1
ion Al   3.860309000000000   2.639746999999999   7.368316999999999 1
ion Al  10.022172000000001  12.353433999999998  19.129705999999995 1
ion Al  12.260901000000002  13.884325000000002  23.402866999999997 1
ion Al   4.540284000000000   8.604816000000000   8.666207999999997 1
ion Al   6.779010000000000  10.135699000000002  12.939354000000000 1
ion Al  15.147606000000000   4.858127000000000  19.129708000000001 1
ion Al  17.386334999999999   6.389018000000000  23.402868999999995 1
ion Al   9.665718000000004   1.109508000000000   8.666210000000000 1
ion Al  11.904445000000003   2.640392000000000  12.939355999999997 1
ion Al  18.066307000000005  12.354079000000000  24.700745000000005 1
ion Al  20.305036000000001  13.884969999999999  28.973905999999999 1
ion Al  12.584419000000002   8.605460000000001  14.237247999999997 1
ion Al  14.823146000000001  10.136343999999998  18.510393000000001 1
ion O   3.735004000000001   0.421627000000000  10.124217999999999 1
ion O   8.322697999999999   1.874960000000000  12.092852000000001 1
ion O   2.641072000000000   5.622284999999999   8.834143999999998 1
ion O   7.328645000000001   3.327643000000001   7.200388000000000 1
ion O   3.635138000000000   4.169595000000000  13.726602999999999 1
ion O   7.228766000000000   7.075618000000000  10.802777000000001 1
ion O   6.653705000000000   7.917578999999999  15.695255999999999 1
ion O  11.241398999999998   9.370912000000002  17.663889000000001 1
ion O   5.559773000000001  13.118237000000001  14.405180999999999 1
ion O  10.247346000000000  10.823594999999999  12.771425000000002 1
ion O   6.553839000000001  11.665547000000000  19.297640999999999 1
ion O  10.147467000000002  14.571569999999999  16.373813999999996 1
ion O  11.779140000000002   0.422271000000000  15.695257999999999 1
ion O  16.366833000000000   1.875604000000000  17.663891000000000 1
ion O  10.685207999999998   5.622929000000000  14.405182999999996 1
ion O  15.372780000000001   3.328287000000000  12.771426999999997 1
ion O  11.679272999999998   4.170239000000000  19.297641999999996 1
ion O  15.272901000000001   7.076262000000000  16.373816000000001 1
ion O  14.697841000000000   7.918223000000001  21.266294999999996 1
ion O  19.285533999999998   9.371555999999998  23.234927999999993 1
ion O  13.603909000000000  13.118881000000000  19.976220000000001 1
ion O  18.291481000000001  10.824238999999999  18.342464000000000 1
ion O  14.597974000000001  11.666191000000000  24.868679999999998 1
ion O  18.191602000000000  14.572214000000002  21.944853999999996 1
ion-species GBRV/$ID_pbe.uspp
ion-width 0
ionic-minimize  \
	dirUpdateScheme      L-BFGS \
	linminMethod         DirUpdateRecommended \
	nIterations          30 \
	history              15 \
	knormThreshold       0.0001 \
	energyDiffThreshold  1e-06 \
	nEnergyDiff          2 \
	alphaTstart          1 \
	alphaTmin            1e-10 \
	updateTestStepSize   yes \
	alphaTreduceFactor   0.1 \
	alphaTincreaseFactor 3 \
	nAlphaAdjustMax      3 \
	wolfeEnergy          0.0001 \
	wolfeGradient        0.9 \
	fdTest               no
kpoint   0.000000000000   0.000000000000   0.000000000000  1.00000000000000
kpoint-folding 3 3 3 
latt-move-scale 1 1 1
latt-scale 1 1 1 
lattice  \
	  16.088270000000001    5.837402000000000    0.000939000000000  \
	   0.001289000000000   14.991904000000000    0.000641000000000  \
	  11.142078000000000   11.142075000000000    9.784919000000000 
lattice-minimize  \
	dirUpdateScheme      L-BFGS \
	linminMethod         DirUpdateRecommended \
	nIterations          0 \
	history              15 \
	knormThreshold       0 \
	energyDiffThreshold  1e-06 \
	nEnergyDiff          2 \
	alphaTstart          1 \
	alphaTmin            1e-10 \
	updateTestStepSize   yes \
	alphaTreduceFactor   0.1 \
	alphaTincreaseFactor 3 \
	nAlphaAdjustMax      3 \
	wolfeEnergy          0.0001 \
	wolfeGradient        0.9 \
	fdTest               no
lcao-params -1 1e-06 0.004
pcm-variant GLSSA13
spintype no-spin
subspace-rotation-factor 1 yes
symmetries automatic
symmetry-threshold 0.0001



---------- Setting up symmetries ----------

Non-trivial transmission matrix:
[   1   0   0  ]
[   0   1   0  ]
[  -1  -1   1  ]
with reduced lattice vectors:
[     16.087331      5.836463      0.000939  ]
[      0.000648     14.991263      0.000641  ]
[      1.357159      1.357156      9.784919  ]

Found 4 point-group symmetries of the bravais lattice
Found 16 space-group symmetries with basis
Applied RMS atom displacement 7.18854e-06 bohrs to make symmetries exact.

---------- Initializing the Grid ----------
R = 
[      16.0883       5.8374     0.000939  ]
[     0.001289      14.9919     0.000641  ]
[      11.1421      11.1421      9.78492  ]
unit cell volume = 2359.76
G =
[   0.390576  -0.152058 -2.752e-05  ]
[ -1.45665e-05   0.419131 -2.74555e-05  ]
[  -0.444732  -0.304116   0.642192  ]
Minimum fftbox size, Smin = [  92  92  48  ]
Chosen fftbox size, S = [  96  96  48  ]

---------- Initializing tighter grid for wavefunction operations ----------
R = 
[      16.0883       5.8374     0.000939  ]
[     0.001289      14.9919     0.000641  ]
[      11.1421      11.1421      9.78492  ]
unit cell volume = 2359.76
G =
[   0.390576  -0.152058 -2.752e-05  ]
[ -1.45665e-05   0.419131 -2.74555e-05  ]
[  -0.444732  -0.304116   0.642192  ]
Minimum fftbox size, Smin = [  80  80  40  ]
Chosen fftbox size, S = [  80  80  40  ]

---------- Exchange Correlation functional ----------
Initalized PBE GGA exchange.
Initalized PBE GGA correlation.

---------- Setting up pseudopotentials ----------
Width of ionic core gaussian charges (only for fluid interactions / plotting) set to 0

Reading pseudopotential file '/home/cam559/JDFTx/build/pseudopotentials/GBRV/al_pbe.uspp':
  Title: Al.  Created by USPP 7.3.6 on 14-9-2013
  Reference state energy: -3.216414.  3 valence electrons in orbitals:
    |300>  occupation: 2  eigenvalue: -0.284914
    |310>  occupation: 1  eigenvalue: -0.099667
  lMax: 2  lLocal: 3  QijEcut: 5
  3 projectors sampled on a log grid with 623 points:
    l: 0  eig: -0.284914  rCut: 1.7
    l: 1  eig: -0.099668  rCut: 1.7
    l: 2  eig: 0.500000  rCut: 1.9
  Partial core density with radius 1.45
  Transforming core density to a uniform radial grid of dG=0.02 with 1947 points.
  Transforming local potential to a uniform radial grid of dG=0.02 with 1947 points.
  Transforming nonlocal projectors to a uniform radial grid of dG=0.02 with 432 points.
  Transforming density augmentations to a uniform radial grid of dG=0.02 with 1947 points.
  Transforming atomic orbitals to a uniform radial grid of dG=0.02 with 432 points.
  Core radius for overlap checks: 1.90 bohrs.

Reading pseudopotential file '/home/cam559/JDFTx/build/pseudopotentials/GBRV/o_pbe.uspp':
  Title: O.  Created by USPP 7.3.6 on 3-2-2014
  Reference state energy: -15.894388.  6 valence electrons in orbitals:
    |200>  occupation: 2  eigenvalue: -0.878823
    |210>  occupation: 4  eigenvalue: -0.332131
  lMax: 2  lLocal: 2  QijEcut: 6
  5 projectors sampled on a log grid with 511 points:
    l: 0  eig: -0.878823  rCut: 1.25
    l: 0  eig: 0.000000  rCut: 1.25
    l: 1  eig: -0.332132  rCut: 1.25
    l: 1  eig: 0.000000  rCut: 1.25
    l: 2  eig: 1.000000  rCut: 1.25
  Partial core density with radius 0.7
  Transforming core density to a uniform radial grid of dG=0.02 with 1947 points.
  Transforming local potential to a uniform radial grid of dG=0.02 with 1947 points.
  Transforming nonlocal projectors to a uniform radial grid of dG=0.02 with 432 points.
  Transforming density augmentations to a uniform radial grid of dG=0.02 with 1947 points.
  Transforming atomic orbitals to a uniform radial grid of dG=0.02 with 432 points.
  Core radius for overlap checks: 1.25 bohrs.

Initialized 2 species with 40 total atoms.

Folded 1 k-points by 3x3x3 to 27 k-points.

---------- Setting up k-points, bands, fillings ----------
Reduced to 10 k-points under symmetry. 
Computing the number of bands and number of electrons
Calculating initial fillings.
nElectrons: 192.000000   nBands: 160   nStates: 10

----- Setting up reduced wavefunction bases (one per k-point) -----
average nbasis = 10080.185 , ideal nbasis = 10081.066

---------- Setting up ewald sum ----------
Optimum gaussian width for ewald sums = 2.932684 bohr.
Real space sum over 539 unit cells with max indices [  3  3  5  ]
Reciprocal space sum over 9375 terms with max indices [  12  12  7  ]

---------- Allocating electronic variables ----------
Initializing wave functions:  linear combination of atomic orbitals
Al pseudo-atom occupations:   s ( 2 )  p ( 1 )
O pseudo-atom occupations:   s ( 2 )  p ( 4 )
	FillingsUpdate:  mu: +0.558604907  nElectrons: 192.000000
LCAOMinimize: Iter:   0  F: -417.8413513189164519  |grad|_K:  5.904e-03  alpha:  1.000e+00
	FillingsUpdate:  mu: +0.438950051  nElectrons: 192.000000
LCAOMinimize: Iter:   1  F: -420.1800738658270689  |grad|_K:  4.311e-04  alpha:  4.502e-01  linmin: -6.454e-01  cgtest:  9.167e-01  t[s]:     19.61
LCAOMinimize: Encountered beta<0, resetting CG.
	FillingsUpdate:  mu: +0.430447877  nElectrons: 192.000000
LCAOMinimize: Iter:   2  F: -420.1912992950456101  |grad|_K:  2.142e-05  alpha:  4.661e-01  linmin:  5.940e-02  cgtest: -9.598e-02  t[s]:     26.28
	FillingsUpdate:  mu: +0.430480367  nElectrons: 192.000000
LCAOMinimize: Iter:   3  F: -420.1913515158922792  |grad|_K:  2.800e-06  alpha:  8.900e-01  linmin:  3.657e-03  cgtest:  1.143e-01  t[s]:     32.91
	FillingsUpdate:  mu: +0.430524394  nElectrons: 192.000000
LCAOMinimize: Iter:   4  F: -420.1913519835098327  |grad|_K:  8.050e-07  alpha:  4.601e-01  linmin:  4.334e-05  cgtest:  2.090e-04  t[s]:     39.60
	FillingsUpdate:  mu: +0.430529646  nElectrons: 192.000000
LCAOMinimize: Iter:   5  F: -420.1913520254580590  |grad|_K:  3.624e-07  alpha:  4.995e-01  linmin:  1.532e-05  cgtest: -7.987e-06  t[s]:     46.30
LCAOMinimize: Converged (|Delta F|<1.000000e-06 for 2 iters).


---- Citations for features of the code used in this run ----

   Software package:
      R. Sundararaman, K. Letchworth-Weaver, K.A. Schwarz, D. Gunceler, Y. Ozhabes and T.A. Arias, 'JDFTx: software for joint density-functional theory', SoftwareX 6, 278 (2017)

   gga-PBE exchange-correlation functional:
      J.P. Perdew, K. Burke and M. Ernzerhof, Phys. Rev. Lett. 77, 3865 (1996)

   Pseudopotentials:
      KF Garrity, JW Bennett, KM Rabe and D Vanderbilt, Comput. Mater. Sci. 81, 446 (2014)

   Total energy minimization with Auxiliary Hamiltonian:
      C. Freysoldt, S. Boeck, and J. Neugebauer, Phys. Rev. B 79, 241103(R) (2009)

This list may not be complete. Please suggest additional citations or
report any other bugs at https://github.com/shankar1729/jdftx/issues

Initialization completed successfully at t[s]:     47.72


-------- Electronic minimization -----------
	FillingsUpdate:  mu: +0.430529646  nElectrons: 192.000000
ElecMinimize: Iter:   0  F: -420.191352025458116  |grad|_K:  4.215e-04  alpha:  1.000e+00
	FillingsUpdate:  mu: +0.359545086  nElectrons: 192.000000
	SubspaceRotationAdjust: set factor to 0.961
ElecMinimize: Iter:   1  F: -421.739298433546821  |grad|_K:  2.237e-04  alpha:  5.307e-01  linmin:  1.972e-04  t[s]:     64.97
	FillingsUpdate:  mu: +0.387779944  nElectrons: 192.000000
	SubspaceRotationAdjust: set factor to 1.14
ElecMinimize: Iter:   2  F: -422.203442702713630  |grad|_K:  7.530e-05  alpha:  5.740e-01  linmin: -3.677e-04  t[s]:     75.35
	FillingsUpdate:  mu: +0.386562339  nElectrons: 192.000000
	SubspaceRotationAdjust: set factor to 1.29
ElecMinimize: Iter:   3  F: -422.262414620584821  |grad|_K:  2.750e-05  alpha:  6.356e-01  linmin:  5.968e-04  t[s]:     85.72
	FillingsUpdate:  mu: +0.383629884  nElectrons: 192.000000
	SubspaceRotationAdjust: set factor to 1.21
ElecMinimize: Iter:   4  F: -422.270669055587973  |grad|_K:  1.387e-05  alpha:  6.799e-01  linmin:  1.686e-04  t[s]:     96.12
	FillingsUpdate:  mu: +0.385041157  nElectrons: 192.000000
	SubspaceRotationAdjust: set factor to 1.07
ElecMinimize: Iter:   5  F: -422.272267873259295  |grad|_K:  6.856e-06  alpha:  5.176e-01  linmin:  6.963e-06  t[s]:    106.64
	FillingsUpdate:  mu: +0.384280759  nElectrons: 192.000000
	SubspaceRotationAdjust: set factor to 0.938
ElecMinimize: Iter:   6  F: -422.272681570385942  |grad|_K:  2.870e-06  alpha:  5.420e-01  linmin:  2.315e-05  t[s]:    117.04
	FillingsUpdate:  mu: +0.384406539  nElectrons: 192.000000
	SubspaceRotationAdjust: set factor to 1.3
ElecMinimize: Iter:   7  F: -422.272768679041121  |grad|_K:  1.091e-06  alpha:  6.521e-01  linmin:  1.594e-05  t[s]:    127.44
	FillingsUpdate:  mu: +0.384513554  nElectrons: 192.000000
	SubspaceRotationAdjust: set factor to 1.17
ElecMinimize: Iter:   8  F: -422.272781366577362  |grad|_K:  5.411e-07  alpha:  6.570e-01  linmin:  8.281e-06  t[s]:    137.83
	FillingsUpdate:  mu: +0.384419368  nElectrons: 192.000000
	SubspaceRotationAdjust: set factor to 0.931
ElecMinimize: Iter:   9  F: -422.272783634920756  |grad|_K:  2.617e-07  alpha:  4.776e-01  linmin:  5.562e-07  t[s]:    148.23
	FillingsUpdate:  mu: +0.384447203  nElectrons: 192.000000
	SubspaceRotationAdjust: set factor to 0.895
ElecMinimize: Iter:  10  F: -422.272784299685725  |grad|_K:  9.374e-08  alpha:  5.979e-01  linmin:  2.287e-06  t[s]:    158.41
	FillingsUpdate:  mu: +0.384452644  nElectrons: 192.000000
	SubspaceRotationAdjust: set factor to 0.914
ElecMinimize: Iter:  11  F: -422.272784399437853  |grad|_K:  4.582e-08  alpha:  6.999e-01  linmin: -2.982e-07  t[s]:    168.79
	FillingsUpdate:  mu: +0.384445251  nElectrons: 192.000000
	SubspaceRotationAdjust: set factor to 0.798
ElecMinimize: Iter:  12  F: -422.272784416666866  |grad|_K:  2.221e-08  alpha:  5.045e-01  linmin:  7.996e-09  t[s]:    179.23
	FillingsUpdate:  mu: +0.384446994  nElectrons: 192.000000
	SubspaceRotationAdjust: set factor to 0.792
ElecMinimize: Iter:  13  F: -422.272784421461381  |grad|_K:  9.330e-09  alpha:  5.977e-01  linmin:  1.152e-07  t[s]:    189.50
	FillingsUpdate:  mu: +0.384447362  nElectrons: 192.000000
	SubspaceRotationAdjust: set factor to 0.852
ElecMinimize: Iter:  14  F: -422.272784422378663  |grad|_K:  3.783e-09  alpha:  6.489e-01  linmin:  9.280e-08  t[s]:    199.74
ElecMinimize: Converged (|Delta F|<1.000000e-08 for 2 iters).
Setting wave functions to eigenvectors of Hamiltonian

# Ionic positions in cartesian coordinates:
ion Al   7.103467456875926   4.857486758235659  13.558669012499658 1
ion Al   9.342196469914084   6.388372161200000  17.831822387500026 1
ion Al   1.621581030085918   1.108866438799999   3.095171262499972 1
ion Al   3.860310043124073   2.639751841764340   7.368324637500340 1
ion Al  10.022168456875928  12.353438758235662  19.129706512499659 1
ion Al  12.260897469914083  13.884324161200000  23.402859887500025 1
ion Al   4.540282030085918   8.604818438800001   8.666208762499972 1
ion Al   6.779011043124073  10.135703841764341  12.939362137500339 1
ion Al  15.147602456875930   4.858131258235660  19.129708012499655 1
ion Al  17.386331469914083   6.389016661200001  23.402861387500025 1
ion Al   9.665716030085918   1.109510938799999   8.666210262499970 1
ion Al  11.904445043124074   2.640396341764340  12.939363637500341 1
ion Al  18.066303456875929  12.354083258235661  24.700745512499658 1
ion Al  20.305032469914082  13.884968661200000  28.973898887500027 1
ion Al  12.584417030085918   8.605462938800001  14.237247762499971 1
ion Al  14.823146043124074  10.136348341764341  18.510401137500342 1
ion O   3.735008067771024   0.421623846344239  10.124207740783248 1
ion O   8.322703445820377   1.874956956659490  12.092849845391637 1
ion O   2.641074054179623   5.622281643340511   8.834143804608363 1
ion O   7.328641398143866   3.327641543554350   7.200390054608683 1
ion O   3.635136101856136   4.169597056445651  13.726603595391314 1
ion O   7.228769432228977   7.075614753655762  10.802785909216750 1
ion O   6.653709067771024   7.917575846344238  15.695245240783247 1
ion O  11.241404445820377   9.370908956659489  17.663887345391636 1
ion O   5.559775054179623  13.118233643340510  14.405181304608364 1
ion O  10.247342398143866  10.823593543554349  12.771427554608685 1
ion O   6.553837101856136  11.665549056445652  19.297641095391313 1
ion O  10.147470432228976  14.571566753655761  16.373823409216751 1
ion O  11.779143067771024   0.422268346344239  15.695246740783245 1
ion O  16.366838445820378   1.875601456659489  17.663888845391636 1
ion O  10.685209054179625   5.622926143340511  14.405182804608362 1
ion O  15.372776398143865   3.328286043554349  12.771429054608685 1
ion O  11.679271101856134   4.170241556445650  19.297642595391313 1
ion O  15.272904432228977   7.076259253655762  16.373824909216747 1
ion O  14.697844067771024   7.918220346344238  21.266284240783246 1
ion O  19.285539445820380   9.371553456659489  23.234926345391639 1
ion O  13.603910054179623  13.118878143340510  19.976220304608365 1
ion O  18.291477398143869  10.824238043554351  18.342466554608684 1
ion O  14.597972101856136  11.666193556445652  24.868680095391312 1
ion O  18.191605432228975  14.572211253655761  21.944862409216750 1

# Forces in Cartesian coordinates:
force Al  -0.000158712400346  -0.000108546374912  -0.000307233837146 1
force Al   0.000158727079118   0.000108524909046   0.000307233837144 1
force Al  -0.000158727079118  -0.000108524909046  -0.000307233837144 1
force Al   0.000158712400346   0.000108546374912   0.000307233837146 1
force Al  -0.000158712400346  -0.000108546374912  -0.000307233837146 1
force Al   0.000158727079118   0.000108524909046   0.000307233837144 1
force Al  -0.000158727079118  -0.000108524909046  -0.000307233837144 1
force Al   0.000158712400346   0.000108546374912   0.000307233837146 1
force Al  -0.000158712400346  -0.000108546374912  -0.000307233837146 1
force Al   0.000158727079118   0.000108524909046   0.000307233837144 1
force Al  -0.000158727079118  -0.000108524909046  -0.000307233837144 1
force Al   0.000158712400346   0.000108546374912   0.000307233837146 1
force Al  -0.000158712400346  -0.000108546374912  -0.000307233837146 1
force Al   0.000158727079118   0.000108524909046   0.000307233837144 1
force Al  -0.000158727079118  -0.000108524909046  -0.000307233837144 1
force Al   0.000158712400346   0.000108546374912   0.000307233837146 1
force O  -0.000125290711802   0.000183221985471   0.000000000020714 1
force O  -0.000184523092522  -0.000001749367086   0.000095522443521 1
force O   0.000184523092522   0.000001749367085  -0.000095522443521 1
force O  -0.000068568034683  -0.000171319127024   0.000095522424350 1
force O   0.000068568034683   0.000171319127024  -0.000095522424350 1
force O   0.000125290711801  -0.000183221985471  -0.000000000020714 1
force O  -0.000125290711801   0.000183221985471   0.000000000020714 1
force O  -0.000184523092522  -0.000001749367085   0.000095522443521 1
force O   0.000184523092522   0.000001749367086  -0.000095522443521 1
force O  -0.000068568034683  -0.000171319127024   0.000095522424350 1
force O   0.000068568034683   0.000171319127024  -0.000095522424350 1
force O   0.000125290711801  -0.000183221985471  -0.000000000020714 1
force O  -0.000125290711801   0.000183221985471   0.000000000020714 1
force O  -0.000184523092522  -0.000001749367085   0.000095522443521 1
force O   0.000184523092522   0.000001749367085  -0.000095522443521 1
force O  -0.000068568034683  -0.000171319127024   0.000095522424350 1
force O   0.000068568034683   0.000171319127024  -0.000095522424350 1
force O   0.000125290711801  -0.000183221985471  -0.000000000020714 1
force O  -0.000125290711801   0.000183221985471   0.000000000020714 1
force O  -0.000184523092522  -0.000001749367085   0.000095522443521 1
force O   0.000184523092522   0.000001749367085  -0.000095522443521 1
force O  -0.000068568034683  -0.000171319127024   0.000095522424350 1
force O   0.000068568034683   0.000171319127024  -0.000095522424350 1
force O   0.000125290711801  -0.000183221985471  -0.000000000020714 1

# Energy components:
   Eewald =     -349.1233912365631795
       EH =      109.8541739489823215
     Eloc =     -338.7701134165200756
      Enl =       61.6250502364668620
      Exc =     -124.7825599293550169
 Exc_core =       21.5964183337835536
       KE =      197.3276376408270494
-------------------------------------
     Etot =     -422.2727844223784928
       TS =        0.0000000000001686
-------------------------------------
        F =     -422.2727844223786633

IonicMinimize: Iter:   0  F: -422.272784422378663  |grad|_K:  1.630e-04  t[s]:    204.04

#--- Lowdin population analysis ---
# oxidation-state Al +1.279 +1.279 +1.279 +1.279 +1.279 +1.279 +1.279 +1.279 +1.279 +1.279 +1.279 +1.279 +1.279 +1.279 +1.279 +1.279
# oxidation-state O -0.791 -0.791 -0.791 -0.791 -0.791 -0.791 -0.791 -0.791 -0.791 -0.791 -0.791 -0.791 -0.791 -0.791 -0.791 -0.791 -0.791 -0.791 -0.791 -0.791 -0.791 -0.791 -0.791 -0.791


-------- Electronic minimization -----------
	FillingsUpdate:  mu: +0.384449734  nElectrons: 192.000000
ElecMinimize: Iter:   0  F: -422.272786735508760  |grad|_K:  2.236e-07  alpha:  1.000e+00
	FillingsUpdate:  mu: +0.384455517  nElectrons: 192.000000
	SubspaceRotationAdjust: set factor to 1.38
ElecMinimize: Iter:   1  F: -422.272787217320854  |grad|_K:  6.624e-08  alpha:  5.927e-01  linmin: -1.905e-07  t[s]:    223.73
	FillingsUpdate:  mu: +0.384450389  nElectrons: 192.000000
	SubspaceRotationAdjust: set factor to 2.09
ElecMinimize: Iter:   2  F: -422.272787266029638  |grad|_K:  2.917e-08  alpha:  6.829e-01  linmin:  1.747e-07  t[s]:    234.09
	FillingsUpdate:  mu: +0.384454438  nElectrons: 192.000000
	SubspaceRotationAdjust: set factor to 1.61
ElecMinimize: Iter:   3  F: -422.272787272825099  |grad|_K:  1.226e-08  alpha:  4.912e-01  linmin:  3.402e-08  t[s]:    244.57
	FillingsUpdate:  mu: +0.384452299  nElectrons: 192.000000
	SubspaceRotationAdjust: set factor to 0.918
ElecMinimize: Iter:   4  F: -422.272787273711231  |grad|_K:  5.413e-09  alpha:  3.625e-01  linmin:  2.809e-08  t[s]:    254.96
ElecMinimize: Converged (|Delta F|<1.000000e-08 for 2 iters).
Setting wave functions to eigenvectors of Hamiltonian

# Ionic positions in cartesian coordinates:
ion Al   7.103308744475581   4.857378211860746  13.558361778662510 1
ion Al   9.342355196993202   6.388480686109048  17.832129621337170 1
ion Al   1.621422303006800   1.108757913890953   3.094864028662827 1
ion Al   3.860468755524419   2.639860388139252   7.368631871337486 1
ion Al  10.022009744475580  12.353330211860749  19.129399278662511 1
ion Al  12.261056196993200  13.884432686109047  23.403167121337169 1
ion Al   4.540123303006800   8.604709913890954   8.665901528662829 1
ion Al   6.779169755524419  10.135812388139252  12.939669371337486 1
ion Al  15.147443744475581   4.858022711860746  19.129400778662511 1
ion Al  17.386490196993204   6.389125186109048  23.403168621337173 1
ion Al   9.665557303006800   1.109402413890953   8.665903028662827 1
ion Al  11.904603755524420   2.640504888139253  12.939670871337487 1
ion Al  18.066144744475583  12.353974711860749  24.700438278662510 1
ion Al  20.305191196993203  13.885077186109047  28.974206121337168 1
ion Al  12.584258303006800   8.605354413890954  14.236940528662828 1
ion Al  14.823304755524420  10.136456888139252  18.510708371337486 1
ion O   3.734882777059223   0.421807068329710  10.124207740803962 1
ion O   8.322518922727856   1.874955207292405  12.092945367835156 1
ion O   2.641258577272145   5.622283392707597   8.834048282164844 1
ion O   7.328572830109182   3.327470224427326   7.200485577033035 1
ion O   3.635204669890819   4.169768375572674  13.726508072966963 1
ion O   7.228894722940778   7.075431531670290  10.802785909196036 1
ion O   6.653583777059223   7.917759068329708  15.695245240803960 1
ion O  11.241219922727856   9.370907207292404  17.663982867835156 1
ion O   5.559959577272146  13.118235392707597  14.405085782164843 1
ion O  10.247273830109181  10.823422224427325  12.771523077033034 1
ion O   6.553905669890819  11.665720375572675  19.297545572966964 1
ion O  10.147595722940778  14.571383531670291  16.373823409196035 1
ion O  11.779017777059222   0.422451568329710  15.695246740803960 1
ion O  16.366653922727856   1.875599707292404  17.663984367835155 1
ion O  10.685393577272148   5.622927892707597  14.405087282164843 1
ion O  15.372707830109182   3.328114724427325  12.771524577033034 1
ion O  11.679339669890821   4.170412875572674  19.297547072966964 1
ion O  15.273029722940777   7.076076031670290  16.373824909196035 1
ion O  14.697718777059222   7.918403568329709  21.266284240803959 1
ion O  19.285354922727858   9.371551707292404  23.235021867835158 1
ion O  13.604094577272146  13.118879892707596  19.976124782164845 1
ion O  18.291408830109180  10.824066724427325  18.342562077033033 1
ion O  14.598040669890819  11.666364875572675  24.868584572966967 1
ion O  18.191730722940779  14.572028031670291  21.944862409196034 1

# Forces in Cartesian coordinates:
force Al  -0.000129260110945  -0.000088794187870  -0.000250228147905 1
force Al   0.000129636230231   0.000088244160486   0.000250228147843 1
force Al  -0.000129636230231  -0.000088244160486  -0.000250228147843 1
force Al   0.000129260110945   0.000088794187870   0.000250228147905 1
force Al  -0.000129260110945  -0.000088794187870  -0.000250228147905 1
force Al   0.000129636230231   0.000088244160486   0.000250228147843 1
force Al  -0.000129636230231  -0.000088244160486  -0.000250228147843 1
force Al   0.000129260110945   0.000088794187870   0.000250228147905 1
force Al  -0.000129260110945  -0.000088794187870  -0.000250228147905 1
force Al   0.000129636230231   0.000088244160486   0.000250228147843 1
force Al  -0.000129636230231  -0.000088244160486  -0.000250228147843 1
force Al   0.000129260110945   0.000088794187870   0.000250228147905 1
force Al  -0.000129260110945  -0.000088794187870  -0.000250228147905 1
force Al   0.000129636230231   0.000088244160486   0.000250228147843 1
force Al  -0.000129636230231  -0.000088244160486  -0.000250228147843 1
force Al   0.000129260110945   0.000088794187870   0.000250228147905 1
force O  -0.000091753258292   0.000134177657034   0.000000000015169 1
force O  -0.000133701345665  -0.000001771008582   0.000069014337856 1
force O   0.000133701345665   0.000001771008582  -0.000069014337856 1
force O  -0.000050152040773  -0.000123951410521   0.000069014324043 1
force O   0.000050152040772   0.000123951410521  -0.000069014324043 1
force O   0.000091753258292  -0.000134177657034  -0.000000000015169 1
force O  -0.000091753258292   0.000134177657034   0.000000000015169 1
force O  -0.000133701345665  -0.000001771008582   0.000069014337856 1
force O   0.000133701345665   0.000001771008582  -0.000069014337856 1
force O  -0.000050152040772  -0.000123951410521   0.000069014324043 1
force O   0.000050152040772   0.000123951410521  -0.000069014324043 1
force O   0.000091753258292  -0.000134177657034  -0.000000000015169 1
force O  -0.000091753258292   0.000134177657034   0.000000000015169 1
force O  -0.000133701345665  -0.000001771008582   0.000069014337856 1
force O   0.000133701345665   0.000001771008582  -0.000069014337856 1
force O  -0.000050152040772  -0.000123951410521   0.000069014324043 1
force O   0.000050152040772   0.000123951410521  -0.000069014324043 1
force O   0.000091753258292  -0.000134177657034  -0.000000000015169 1
force O  -0.000091753258292   0.000134177657034   0.000000000015169 1
force O  -0.000133701345665  -0.000001771008582   0.000069014337856 1
force O   0.000133701345665   0.000001771008582  -0.000069014337856 1
force O  -0.000050152040773  -0.000123951410521   0.000069014324043 1
force O   0.000050152040772   0.000123951410521  -0.000069014324043 1
force O   0.000091753258292  -0.000134177657034  -0.000000000015169 1

# Energy components:
   Eewald =     -349.1283246219276748
       EH =      109.8499299028279239
     Eloc =     -338.7606320893777365
      Enl =       61.6251125874944421
      Exc =     -124.7823834952045559
 Exc_core =       21.5964183359321567
       KE =      197.3270921065444554
-------------------------------------
     Etot =     -422.2727872737110602
       TS =        0.0000000000001688
-------------------------------------
        F =     -422.2727872737112307

IonicMinimize: Iter:   1  F: -422.272787273711231  |grad|_K:  1.281e-04  alpha:  1.000e+00  linmin: -9.986e-01  t[s]:    259.28

#--- Lowdin population analysis ---
# oxidation-state Al +1.279 +1.279 +1.279 +1.279 +1.279 +1.279 +1.279 +1.279 +1.279 +1.279 +1.279 +1.279 +1.279 +1.279 +1.279 +1.279
# oxidation-state O -0.791 -0.791 -0.791 -0.791 -0.791 -0.791 -0.791 -0.791 -0.791 -0.791 -0.791 -0.791 -0.791 -0.791 -0.791 -0.791 -0.791 -0.791 -0.791 -0.791 -0.791 -0.791 -0.791 -0.791


-------- Electronic minimization -----------
	FillingsUpdate:  mu: +0.384458404  nElectrons: 192.000000
ElecMinimize: Iter:   0  F: -422.272783395791691  |grad|_K:  9.360e-07  alpha:  1.000e+00
	FillingsUpdate:  mu: +0.384471005  nElectrons: 192.000000
	SubspaceRotationAdjust: set factor to 1.5
ElecMinimize: Iter:   1  F: -422.272791451429157  |grad|_K:  2.528e-07  alpha:  5.655e-01  linmin: -2.508e-06  t[s]:    278.79
	FillingsUpdate:  mu: +0.384462768  nElectrons: 192.000000
	SubspaceRotationAdjust: set factor to 2.2
ElecMinimize: Iter:   2  F: -422.272792142929063  |grad|_K:  1.080e-07  alpha:  6.657e-01  linmin:  1.043e-06  t[s]:    289.21
	FillingsUpdate:  mu: +0.384469173  nElectrons: 192.000000
	SubspaceRotationAdjust: set factor to 1.59
ElecMinimize: Iter:   3  F: -422.272792233009056  |grad|_K:  4.859e-08  alpha:  4.751e-01  linmin:  4.285e-08  t[s]:    299.62
	FillingsUpdate:  mu: +0.384465672  nElectrons: 192.000000
	SubspaceRotationAdjust: set factor to 0.893
ElecMinimize: Iter:   4  F: -422.272792246828033  |grad|_K:  2.141e-08  alpha:  3.600e-01  linmin:  6.519e-09  t[s]:    310.22
	FillingsUpdate:  mu: +0.384466640  nElectrons: 192.000000
	SubspaceRotationAdjust: set factor to 1.23
ElecMinimize: Iter:   5  F: -422.272792251306612  |grad|_K:  8.843e-09  alpha:  6.009e-01  linmin:  6.249e-08  t[s]:    320.64
	FillingsUpdate:  mu: +0.384466665  nElectrons: 192.000000
	SubspaceRotationAdjust: set factor to 1.16
ElecMinimize: Iter:   6  F: -422.272792252175520  |grad|_K:  3.847e-09  alpha:  6.836e-01  linmin: -9.363e-08  t[s]:    331.05
ElecMinimize: Converged (|Delta F|<1.000000e-08 for 2 iters).
Setting wave functions to eigenvectors of Hamiltonian

# Ionic positions in cartesian coordinates:
ion Al   7.102605291782671   4.856888963898986  13.556999880638859 1
ion Al   9.343066303553865   6.388958741247124  17.833491519359555 1
ion Al   1.620711196446136   1.108279858752877   3.093502130640442 1
ion Al   3.861172208217329   2.640349636101013   7.369993769361137 1
ion Al  10.021306291782672  12.352840963898990  19.128037380638862 1
ion Al  12.261767303553864  13.884910741247122  23.404529019359554 1
ion Al   4.539412196446137   8.604231858752879   8.664539630640443 1
ion Al   6.779873208217329  10.136301636101015  12.941031269361137 1
ion Al  15.146740291782674   4.857533463898987  19.128038880638861 1
ion Al  17.387201303553866   6.389603241247124  23.404530519359557 1
ion Al   9.664846196446137   1.108924358752877   8.664541130640441 1
ion Al  11.905307208217328   2.640994136101013  12.941032769361136 1
ion Al  18.065441291782673  12.353485463898989  24.699076380638864 1
ion Al  20.305902303553864  13.885555241247122  28.975568019359557 1
ion Al  12.583547196446137   8.604876358752881  14.235578630640441 1
ion Al  14.824008208217327  10.136946136101015  18.512070269361136 1
ion O   3.734541832788943   0.422305656654712  10.124207740860330 1
ion O   8.322046575624492   1.874940237719019  12.093185739496036 1
ion O   2.641730924375509   5.622298362280982   8.833807910503964 1
ion O   7.328387530997237   3.327035483091478   7.200725948646458 1
ion O   3.635389969002765   4.170203116908521  13.726267701353541 1
ion O   7.229235667211057   7.074932943345288  10.802785909139669 1
ion O   6.653242832788943   7.918257656654711  15.695245240860331 1
ion O  11.240747575624493   9.370892237719019  17.664223239496035 1
ion O   5.560431924375509  13.118250362280984  14.404845410503963 1
ion O  10.247088530997237  10.822987483091479  12.771763448646457 1
ion O   6.554090969002766  11.666155116908522  19.297305201353542 1
ion O  10.147936667211056  14.570884943345288  16.373823409139668 1
ion O  11.778676832788944   0.422950156654712  15.695246740860330 1
ion O  16.366181575624491   1.875584737719018  17.664224739496035 1
ion O  10.685865924375513   5.622942862280982  14.404846910503963 1
ion O  15.372522530997236   3.327679983091478  12.771764948646457 1
ion O  11.679524969002765   4.170847616908521  19.297306701353541 1
ion O  15.273370667211056   7.075577443345288  16.373824909139667 1
ion O  14.697377832788945   7.918902156654711  21.266284240860330 1
ion O  19.284882575624493   9.371536737719019  23.235262239496038 1
ion O  13.604566924375511  13.118894862280984  19.975884410503962 1
ion O  18.291223530997236  10.823631983091479  18.342802448646456 1
ion O  14.598225969002765  11.666799616908522  24.868344201353541 1
ion O  18.192071667211057  14.571529443345288  21.944862409139667 1

# Forces in Cartesian coordinates:
force Al  -0.000004315963397  -0.000003828399972  -0.000008791006222 1
force Al   0.000005133280284   0.000002633176315   0.000008791006087 1
force Al  -0.000005133280284  -0.000002633176315  -0.000008791006087 1
force Al   0.000004315963397   0.000003828399972   0.000008791006222 1
force Al  -0.000004315963397  -0.000003828399972  -0.000008791006222 1
force Al   0.000005133280284   0.000002633176315   0.000008791006087 1
force Al  -0.000005133280284  -0.000002633176315  -0.000008791006087 1
force Al   0.000004315963397   0.000003828399972   0.000008791006222 1
force Al  -0.000004315963397  -0.000003828399972  -0.000008791006222 1
force Al   0.000005133280284   0.000002633176315   0.000008791006087 1
force Al  -0.000005133280284  -0.000002633176315  -0.000008791006087 1
force Al   0.000004315963397   0.000003828399972   0.000008791006222 1
force Al  -0.000004315963397  -0.000003828399972  -0.000008791006222 1
force Al   0.000005133280284   0.000002633176315   0.000008791006087 1
force Al  -0.000005133280284  -0.000002633176315  -0.000008791006087 1
force Al   0.000004315963397   0.000003828399972   0.000008791006222 1
force O   0.000001407417147  -0.000002058171435  -0.000000000000233 1
force O   0.000005237028512  -0.000000356388070  -0.000002971312862 1
force O  -0.000005237028512   0.000000356388070   0.000002971312862 1
force O   0.000001567679421   0.000005009575746  -0.000002971312255 1
force O  -0.000001567679421  -0.000005009575746   0.000002971312255 1
force O  -0.000001407417147   0.000002058171435   0.000000000000233 1
force O   0.000001407417147  -0.000002058171435  -0.000000000000233 1
force O   0.000005237028512  -0.000000356388070  -0.000002971312862 1
force O  -0.000005237028512   0.000000356388070   0.000002971312862 1
force O   0.000001567679421   0.000005009575746  -0.000002971312255 1
force O  -0.000001567679421  -0.000005009575746   0.000002971312255 1
force O  -0.000001407417147   0.000002058171435   0.000000000000233 1
force O   0.000001407417147  -0.000002058171435  -0.000000000000233 1
force O   0.000005237028512  -0.000000356388070  -0.000002971312862 1
force O  -0.000005237028512   0.000000356388070   0.000002971312862 1
force O   0.000001567679421   0.000005009575746  -0.000002971312255 1
force O  -0.000001567679421  -0.000005009575746   0.000002971312255 1
force O  -0.000001407417147   0.000002058171435   0.000000000000233 1
force O   0.000001407417147  -0.000002058171435  -0.000000000000233 1
force O   0.000005237028512  -0.000000356388070  -0.000002971312862 1
force O  -0.000005237028512   0.000000356388070   0.000002971312862 1
force O   0.000001567679421   0.000005009575746  -0.000002971312255 1
force O  -0.000001567679421  -0.000005009575746   0.000002971312255 1
force O  -0.000001407417147   0.000002058171435   0.000000000000233 1

# Energy components:
   Eewald =     -349.1444241063968548
       EH =      109.8379211578427999
     Eloc =     -338.7320716445270818
      Enl =       61.6255315954228564
      Exc =     -124.7819432437698879
 Exc_core =       21.5964182543773973
       KE =      197.3257757348753501
-------------------------------------
     Etot =     -422.2727922521753499
       TS =        0.0000000000001698
-------------------------------------
        F =     -422.2727922521755204

IonicMinimize: Iter:   2  F: -422.272792252175520  |grad|_K:  4.473e-06  alpha:  1.000e+00  linmin: -6.049e-01  t[s]:    335.46
IonicMinimize: Converged (|grad|_K<1.000000e-04).

#--- Lowdin population analysis ---
# oxidation-state Al +1.279 +1.279 +1.279 +1.279 +1.279 +1.279 +1.279 +1.279 +1.279 +1.279 +1.279 +1.279 +1.279 +1.279 +1.279 +1.279
# oxidation-state O -0.791 -0.791 -0.791 -0.791 -0.791 -0.791 -0.791 -0.791 -0.791 -0.791 -0.791 -0.791 -0.791 -0.791 -0.791 -0.791 -0.791 -0.791 -0.791 -0.791 -0.791 -0.791 -0.791 -0.791


Dumping 'Al2O3.Ecomponents' ... done
End date and time: Wed Apr 17 13:24:26 2024  (Duration: 0-0:05:36.48)
Done!
