--------------------------------------------------------------------------
Initialization of PSM library failed.

  Error: PSM is in the finalized state
--------------------------------------------------------------------------

*************** JDFTx 1.7.0 (git hash 3664913) ***************

Start date and time: Thu Jun 27 02:57:55 2024
Executable jdftx with command-line: -i Sc2O3_ion.in
Running on hosts (process indices):  node3003.physics.cornell.edu (0-15)
Divided in process groups (process indices):  0 (0)  1 (1)  2 (2)  3 (3)  4 (4)  5 (5)  6 (6)  7 (7)  8 (8)  9 (9)  10 (10)  11 (11)  12 (12)  13 (13)  14 (14)  15 (15)
Resource initialization completed at t[s]:      0.00
Run totals: 16 processes, 32 threads, 0 GPUs


Input parsed successfully to the following command list (including defaults):

basis kpoint-dependent
coords-type Lattice
core-overlap-check vector
coulomb-interaction Periodic
davidson-band-ratio 1.1
dump End Ecomponents
dump-name /data/rc652/Sc2O3/ion/Sc2O3_ion.$VAR
elec-cutoff 20 100
elec-eigen-algo Davidson
elec-ex-corr gga-PBEsol
elec-smearing Fermi 0.01
electronic-minimize  \
	dirUpdateScheme      FletcherReeves \
	linminMethod         DirUpdateRecommended \
	nIterations          100 \
	history              15 \
	knormThreshold       0 \
	maxThreshold         no \
	energyDiffThreshold  1e-08 \
	nEnergyDiff          2 \
	alphaTstart          1 \
	alphaTmin            1e-10 \
	updateTestStepSize   yes \
	alphaTreduceFactor   0.1 \
	alphaTincreaseFactor 3 \
	nAlphaAdjustMax      3 \
	wolfeEnergy          0.0001 \
	wolfeGradient        0.9 \
	fdTest               no
electronic-scf  \
	nIterations	50 \
	energyDiffThreshold	1e-08 \
	residualThreshold	1e-07 \
	mixFraction	0.5 \
	qMetric	0.8 \
	history	10 \
	nEigSteps	2 \
	eigDiffThreshold	1e-08 \
	mixedVariable	Density \
	qKerker	0.8 \
	qKappa	-1 \
	verbose	no \
	mixFractionMag	1.5
exchange-regularization WignerSeitzTruncated
fluid None
fluid-ex-corr lda-TF lda-PZ
fluid-gummel-loop 10 1.000000e-05
fluid-minimize  \
	dirUpdateScheme      PolakRibiere \
	linminMethod         DirUpdateRecommended \
	nIterations          100 \
	history              15 \
	knormThreshold       0 \
	maxThreshold         no \
	energyDiffThreshold  0 \
	nEnergyDiff          2 \
	alphaTstart          1 \
	alphaTmin            1e-10 \
	updateTestStepSize   yes \
	alphaTreduceFactor   0.1 \
	alphaTincreaseFactor 3 \
	nAlphaAdjustMax      3 \
	wolfeEnergy          0.0001 \
	wolfeGradient        0.9 \
	fdTest               no
fluid-solvent H2O 55.338 ScalarEOS \
	epsBulk 78.4 \
	pMol 0.92466 \
	epsInf 1.77 \
	Pvap 1.06736e-10 \
	sigmaBulk 4.62e-05 \
	Rvdw 2.61727 \
	Res 1.42 \
	tauNuc 343133 \
	poleEl 15 7 1
forces-output-coords Positions
ion O   0.736320000000000   0.240050000000000   0.745320000000000 1
ion O   0.004210000000000   0.015220000000000   0.752490000000000 1
ion O   0.497730000000000   0.258850000000000  -0.017290000000000 1
ion O   0.522510000000000   0.505690000000000   0.771030000000000 1
ion O   0.497010000000000   0.744600000000000   0.502220000000000 1
ion O   0.748360000000000   0.762030000000000   0.229360000000000 1
ion O  -0.005250000000000   0.741730000000000  -0.000830000000000 1
ion O   0.002620000000000   0.489720000000000   0.249090000000000 1
ion O   0.241620000000000   0.754370000000000   0.748550000000000 1
ion O   0.731570000000000   0.008970000000000  -0.002850000000000 1
ion O   0.246650000000000  -0.006560000000000   0.487420000000000 1
ion O   0.746470000000000   0.509580000000000   0.478840000000000 1
ion O  -0.004270000000000   0.238420000000000  -0.022240000000000 1
ion O   0.749350000000000  -0.010640000000000   0.487850000000000 1
ion O   0.739790000000000   0.244410000000000   0.255910000000000 1
ion O   0.503530000000000   0.260260000000000   0.497450000000000 1
ion O   0.509880000000000   0.495150000000000   0.244510000000000 1
ion O   0.250460000000000   0.250670000000000   0.730510000000000 1
ion O   0.496340000000000   0.740500000000000  -0.019820000000000 1
ion O   0.252090000000000  -0.008460000000000  -0.013400000000000 1
ion O   0.251600000000000   0.745020000000000   0.248360000000000 1
ion O  -0.005550000000000   0.490600000000000   0.746240000000000 1
ion O  -0.004360000000000  -0.000170000000000   0.254670000000000 1
ion O   0.249760000000000   0.493060000000000   0.486880000000000 1
ion Sc   0.742840000000000   0.679550000000000   0.943970000000000 1
ion Sc   0.535720000000000   0.241370000000000   0.776310000000000 1
ion Sc   0.786360000000000   0.548310000000000   0.246410000000000 1
ion Sc   0.937670000000000   0.724890000000000   0.719670000000000 1
ion Sc   0.693180000000000   0.931230000000000   0.757890000000000 1
ion Sc   0.241000000000000   0.793610000000000   0.559500000000000 1
ion Sc   0.739230000000000   0.236260000000000   0.478490000000000 1
ion Sc   0.023040000000000   0.260940000000000   0.246330000000000 1
ion Sc   0.267370000000000   0.034860000000000   0.245070000000000 1
ion Sc   0.473740000000000   0.745080000000000   0.227730000000000 1
ion Sc   0.232820000000000   0.483170000000000   0.754790000000000 1
ion Sc   0.258510000000000   0.281410000000000   0.027280000000000 1
ion Sc  -0.009090000000000   0.493720000000000  -0.009290000000000 1
ion Sc   0.505760000000000  -0.000380000000000   0.018020000000000 1
ion Sc   0.000270000000000  -0.014050000000000   0.479950000000000 1
ion Sc   0.477210000000000   0.495680000000000   0.502270000000000 1
ion-species GBRV/$ID_pbesol.uspp
ion-width 0
ionic-minimize  \
	dirUpdateScheme      L-BFGS \
	linminMethod         DirUpdateRecommended \
	nIterations          30 \
	history              15 \
	knormThreshold       0.0001 \
	maxThreshold         no \
	energyDiffThreshold  1e-06 \
	nEnergyDiff          2 \
	alphaTstart          1 \
	alphaTmin            1e-10 \
	updateTestStepSize   yes \
	alphaTreduceFactor   0.1 \
	alphaTincreaseFactor 3 \
	nAlphaAdjustMax      3 \
	wolfeEnergy          0.0001 \
	wolfeGradient        0.9 \
	fdTest               no
kpoint   0.500000000000   0.500000000000   0.500000000000  1.00000000000000
kpoint-folding 4 4 4 
latt-move-scale 1 1 1
latt-scale 1 1 1 
lattice  \
	  15.103010356151813   -7.551485125126342    0.000000030805744  \
	   0.000000021482740   13.079579132467680    0.000000053356926  \
	  -5.339704579097528   -5.339704579097677   16.019163907242984 
lattice-minimize  \
	dirUpdateScheme      L-BFGS \
	linminMethod         DirUpdateRecommended \
	nIterations          0 \
	history              15 \
	knormThreshold       0 \
	maxThreshold         no \
	energyDiffThreshold  1e-06 \
	nEnergyDiff          2 \
	alphaTstart          1 \
	alphaTmin            1e-10 \
	updateTestStepSize   yes \
	alphaTreduceFactor   0.1 \
	alphaTincreaseFactor 3 \
	nAlphaAdjustMax      3 \
	wolfeEnergy          0.0001 \
	wolfeGradient        0.9 \
	fdTest               no
lcao-params -1 1e-06 0.01
pcm-variant GLSSA13
perturb-minimize  \
	nIterations            0 \
	algorithm              MINRES \
	residualTol            0.0001 \
	residualDiffThreshold  0.0001 \
	CGBypass               no \
	recomputeResidual      no
spintype no-spin
subspace-rotation-factor 1 yes
symmetries automatic
symmetry-threshold 0.0001



---------- Setting up symmetries ----------

Found 48 point-group symmetries of the bravais lattice
Found 1 space-group symmetries with basis
Applied RMS atom displacement 0 bohrs to make symmetries exact.

---------- Initializing the Grid ----------
R = 
[       15.103     -7.55149  3.08057e-08  ]
[  2.14827e-08      13.0796  5.33569e-08  ]
[      -5.3397      -5.3397      16.0192  ]
unit cell volume = 3164.44
G =
[   0.416022    0.24019 -1.60006e-09  ]
[ -1.24901e-09   0.480381 -1.60006e-09  ]
[   0.138674    0.24019   0.392229  ]
Minimum fftbox size, Smin = [  76  76  76  ]
Chosen fftbox size, S = [  80  80  80  ]

---------- Initializing tighter grid for wavefunction operations ----------
R = 
[       15.103     -7.55149  3.08057e-08  ]
[  2.14827e-08      13.0796  5.33569e-08  ]
[      -5.3397      -5.3397      16.0192  ]
unit cell volume = 3164.44
G =
[   0.416022    0.24019 -1.60006e-09  ]
[ -1.24901e-09   0.480381 -1.60006e-09  ]
[   0.138674    0.24019   0.392229  ]
Minimum fftbox size, Smin = [  68  68  68  ]
Chosen fftbox size, S = [  70  70  70  ]

---------- Exchange Correlation functional ----------
Initalized PBEsol GGA exchange.
Initalized PBEsol GGA correlation.

---------- Setting up pseudopotentials ----------
Width of ionic core gaussian charges (only for fluid interactions / plotting) set to 0

Reading pseudopotential file '/home/rc652/build/pseudopotentials/GBRV/o_pbesol.uspp':
  Title: O.  Created by USPP 7.3.6 on 3-2-2014
  Reference state energy: -15.849885.  6 valence electrons in orbitals:
    |200>  occupation: 2  eigenvalue: -0.873214
    |210>  occupation: 4  eigenvalue: -0.330058
  lMax: 2  lLocal: 2  QijEcut: 6
  5 projectors sampled on a log grid with 511 points:
    l: 0  eig: -0.873214  rCut: 1.25
    l: 0  eig: 0.000000  rCut: 1.25
    l: 1  eig: -0.330058  rCut: 1.25
    l: 1  eig: 0.000000  rCut: 1.25
    l: 2  eig: 1.000000  rCut: 1.25
  Partial core density with radius 0.7
  Transforming core density to a uniform radial grid of dG=0.02 with 2359 points.
  Transforming local potential to a uniform radial grid of dG=0.02 with 2359 points.
  Transforming nonlocal projectors to a uniform radial grid of dG=0.02 with 432 points.
  Transforming density augmentations to a uniform radial grid of dG=0.02 with 2359 points.
  Transforming atomic orbitals to a uniform radial grid of dG=0.02 with 432 points.
  Core radius for overlap checks: 1.25 bohrs.

Reading pseudopotential file '/home/rc652/build/pseudopotentials/GBRV/sc_pbesol.uspp':
  Title: Sc.  Created by USPP 7.3.6 on 23-7-2013
  Reference state energy: -46.940880.  11 valence electrons in orbitals:
    |300>  occupation: 2  eigenvalue: -2.016614
    |310>  occupation: 6  eigenvalue: -1.232889
    |400>  occupation: 2  eigenvalue: -0.153915
    |320>  occupation: 1  eigenvalue: -0.119309
    |410>  occupation: 0  eigenvalue: -0.053306
  lMax: 2  lLocal: 3  QijEcut: 5
  6 projectors sampled on a log grid with 593 points:
    l: 0  eig: -2.016614  rCut: 2.2
    l: 0  eig: -0.153915  rCut: 2.2
    l: 1  eig: -1.232889  rCut: 2.2
    l: 1  eig: -0.053306  rCut: 2.2
    l: 2  eig: -0.119309  rCut: 2.2
    l: 2  eig: 0.150000  rCut: 2.2
  Partial core density with radius 1
  Transforming core density to a uniform radial grid of dG=0.02 with 2359 points.
  Transforming local potential to a uniform radial grid of dG=0.02 with 2359 points.
  Transforming nonlocal projectors to a uniform radial grid of dG=0.02 with 432 points.
  Transforming density augmentations to a uniform radial grid of dG=0.02 with 2359 points.
  Transforming atomic orbitals to a uniform radial grid of dG=0.02 with 432 points.
  Core radius for overlap checks: 2.20 bohrs.

Initialized 2 species with 40 total atoms.

Folded 1 k-points by 4x4x4 to 64 k-points.

---------- Setting up k-points, bands, fillings ----------
Adding inversion symmetry to k-mesh for non-inversion-symmetric unit cell.
Reduced to 32 k-points under symmetry. 
Computing the number of bands and number of electrons
Calculating initial fillings.
nElectrons: 320.000000   nBands: 304   nStates: 32

----- Setting up reduced wavefunction bases (one per k-point) -----
average nbasis = 13512.844 , ideal nbasis = 13518.737

---------- Setting up ewald sum ----------
Optimum gaussian width for ewald sums = 3.122604 bohr.
Real space sum over 729 unit cells with max indices [  4  4  4  ]
Reciprocal space sum over 6859 terms with max indices [  9  9  9  ]

---------- Allocating electronic variables ----------
Initializing wave functions:  linear combination of atomic orbitals
O pseudo-atom occupations:   s ( 2 )  p ( 4 )
Sc pseudo-atom occupations:   s ( 2 2 )  p ( 6 0 )  d ( 1 )
	FillingsUpdate:  mu: +0.411422739  nElectrons: 320.000000
LCAOMinimize: Iter:   0  F: -1130.2084149603251717  |grad|_K:  3.122e-03  alpha:  1.000e+00
	FillingsUpdate:  mu: +0.420090972  nElectrons: 320.000000
LCAOMinimize: Iter:   1  F: -1132.3057533393150607  |grad|_K:  2.719e-03  alpha:  7.272e-02  linmin: -4.501e-01  cgtest:  8.881e-01  t[s]:     86.00
LCAOMinimize: Encountered beta<0, resetting CG.
LCAOMinimize: 	Predicted alpha/alphaT>3.000000, increasing alphaT to 2.181464e-01.
	FillingsUpdate:  mu: +0.372987460  nElectrons: 320.000000
LCAOMinimize: Iter:   2  F: -1133.6396593630272491  |grad|_K:  3.978e-03  alpha:  3.144e-01  linmin:  2.713e-01  cgtest: -4.240e-01  t[s]:    126.81
LCAOMinimize: 	Bad step direction: g.d > 0.
LCAOMinimize: 	Undoing step.
LCAOMinimize: 	Step failed: resetting search direction.
	FillingsUpdate:  mu: +0.372987460  nElectrons: 320.000000
LCAOMinimize: Iter:   3  F: -1133.6396593630272491  |grad|_K:  3.978e-03  alpha:  0.000e+00
	FillingsUpdate:  mu: +0.424466858  nElectrons: 320.000000
LCAOMinimize: Iter:   4  F: -1135.4293788403820145  |grad|_K:  1.074e-03  alpha:  1.628e-01  linmin:  2.016e-01  cgtest: -1.560e+00  t[s]:    183.36
	FillingsUpdate:  mu: +0.422444176  nElectrons: 320.000000
LCAOMinimize: Iter:   5  F: -1135.4436667815864439  |grad|_K:  1.040e-03  alpha:  4.785e-02  linmin:  6.495e-03  cgtest:  9.658e-01  t[s]:    215.55
LCAOMinimize: 	Predicted alpha/alphaT>3.000000, increasing alphaT to 1.435361e-01.
LCAOMinimize: 	Step increased F by 5.896325e-01, reducing alpha to 2.688753e-02.
	FillingsUpdate:  mu: +0.421823907  nElectrons: 320.000000
LCAOMinimize: Iter:   6  F: -1135.5280268453091139  |grad|_K:  9.388e-04  alpha:  2.689e-02  linmin: -3.473e-01  cgtest:  9.509e-01  t[s]:    280.20
LCAOMinimize: Encountered beta<0, resetting CG.
LCAOMinimize: 	Predicted alpha/alphaT>3.000000, increasing alphaT to 8.066260e-02.
LCAOMinimize: 	Predicted alpha/alphaT>3.000000, increasing alphaT to 2.419878e-01.
	FillingsUpdate:  mu: +0.409183426  nElectrons: 320.000000
LCAOMinimize: Iter:   7  F: -1135.7353342992448688  |grad|_K:  5.042e-04  alpha:  9.035e-02  linmin: -3.704e-01  cgtest:  7.865e-01  t[s]:    329.10
LCAOMinimize: Encountered beta<0, resetting CG.
	FillingsUpdate:  mu: +0.379428002  nElectrons: 320.000000
LCAOMinimize: Iter:   8  F: -1135.7780769037522077  |grad|_K:  2.813e-04  alpha:  1.499e-01  linmin:  3.303e-01  cgtest: -6.567e-01  t[s]:    361.85
LCAOMinimize: 	Bad step direction: g.d > 0.
LCAOMinimize: 	Undoing step.
LCAOMinimize: 	Step failed: resetting search direction.
	FillingsUpdate:  mu: +0.379428002  nElectrons: 320.000000
LCAOMinimize: Iter:   9  F: -1135.7780769037522077  |grad|_K:  2.813e-04  alpha:  0.000e+00
	FillingsUpdate:  mu: +0.379500559  nElectrons: 320.000000
LCAOMinimize: Iter:  10  F: -1135.7881176753567161  |grad|_K:  5.054e-05  alpha:  9.092e-02  linmin:  3.353e-02  cgtest: -1.275e-01  t[s]:    418.22
LCAOMinimize: 	Predicted alpha/alphaT>3.000000, increasing alphaT to 2.727450e-01.
	FillingsUpdate:  mu: +0.379024280  nElectrons: 320.000000
LCAOMinimize: Iter:  11  F: -1135.7897893389817909  |grad|_K:  4.409e-05  alpha:  4.525e-01  linmin:  2.783e-03  cgtest:  6.750e-02  t[s]:    458.66
	FillingsUpdate:  mu: +0.377570147  nElectrons: 320.000000
LCAOMinimize: Iter:  12  F: -1135.7903177419766507  |grad|_K:  1.852e-05  alpha:  1.800e-01  linmin: -7.512e-03  cgtest:  6.219e-02  t[s]:    491.04
	FillingsUpdate:  mu: +0.378022646  nElectrons: 320.000000
LCAOMinimize: Iter:  13  F: -1135.7903982764132707  |grad|_K:  8.354e-06  alpha:  1.557e-01  linmin: -1.158e-03  cgtest: -3.774e-02  t[s]:    523.06
	FillingsUpdate:  mu: +0.377883494  nElectrons: 320.000000
LCAOMinimize: Iter:  14  F: -1135.7904146209605187  |grad|_K:  3.543e-06  alpha:  1.569e-01  linmin:  4.946e-04  cgtest: -1.855e-03  t[s]:    555.40
	FillingsUpdate:  mu: +0.377819412  nElectrons: 320.000000
LCAOMinimize: Iter:  15  F: -1135.7904192094940754  |grad|_K:  2.123e-06  alpha:  2.459e-01  linmin:  7.321e-04  cgtest:  1.609e-03  t[s]:    587.83
	FillingsUpdate:  mu: +0.377847201  nElectrons: 320.000000
LCAOMinimize: Iter:  16  F: -1135.7904210701246939  |grad|_K:  1.634e-06  alpha:  2.776e-01  linmin:  2.148e-04  cgtest:  2.075e-03  t[s]:    620.20
	FillingsUpdate:  mu: +0.377823929  nElectrons: 320.000000
LCAOMinimize: Iter:  17  F: -1135.7904218307576230  |grad|_K:  8.440e-07  alpha:  1.915e-01  linmin:  5.188e-06  cgtest:  1.134e-03  t[s]:    652.65
	FillingsUpdate:  mu: +0.377845663  nElectrons: 320.000000
LCAOMinimize: Iter:  18  F: -1135.7904219900001408  |grad|_K:  3.632e-07  alpha:  1.502e-01  linmin: -9.494e-05  cgtest: -2.313e-04  t[s]:    685.18
LCAOMinimize: Converged (|Delta F|<1.000000e-06 for 2 iters).


---- Citations for features of the code used in this run ----

   Software package:
      R. Sundararaman, K. Letchworth-Weaver, K.A. Schwarz, D. Gunceler, Y. Ozhabes and T.A. Arias, 'JDFTx: software for joint density-functional theory', SoftwareX 6, 278 (2017)

   gga-PBEsol exchange-correlation functional:
      J.P. Perdew et al., Phys. Rev. Lett. 100, 136406 (2008)

   Pseudopotentials:
      KF Garrity, JW Bennett, KM Rabe and D Vanderbilt, Comput. Mater. Sci. 81, 446 (2014)

This list may not be complete. Please suggest additional citations or
report any other bugs at https://github.com/shankar1729/jdftx/issues

Initialization completed successfully at t[s]:    693.57


-------- Electronic minimization -----------
Will mix electronic density at each iteration.
	FillingsUpdate:  mu: +0.377845663  nElectrons: 320.000000
	FillingsUpdate:  mu: +0.370303679  nElectrons: 320.000000
SCF: Cycle:  0   F: -1136.270392483115529   dF: -4.800e-01   |Residual|: 3.838e-01   |deigs|: 3.769e-02  t[s]:    803.71
	FillingsUpdate:  mu: +0.359085854  nElectrons: 320.000000
SCF: Cycle:  1   F: -1136.284686185913188   dF: -1.429e-02   |Residual|: 1.681e-01   |deigs|: 8.414e-03  t[s]:    890.36
	FillingsUpdate:  mu: +0.364377737  nElectrons: 320.000000
SCF: Cycle:  2   F: -1136.313931063063364   dF: -2.924e-02   |Residual|: 1.510e-01   |deigs|: 6.418e-03  t[s]:    977.32
	FillingsUpdate:  mu: +0.360769761  nElectrons: 320.000000
SCF: Cycle:  3   F: -1136.336653293273002   dF: -2.272e-02   |Residual|: 8.222e-02   |deigs|: 1.611e-03  t[s]:   1060.01
	FillingsUpdate:  mu: +0.360950424  nElectrons: 320.000000
SCF: Cycle:  4   F: -1136.350772201938071   dF: -1.412e-02   |Residual|: 1.655e-02   |deigs|: 4.776e-04  t[s]:   1140.46
	FillingsUpdate:  mu: +0.361355826  nElectrons: 320.000000
SCF: Cycle:  5   F: -1136.350725329775514   dF: +4.687e-05   |Residual|: 1.106e-02   |deigs|: 3.604e-04  t[s]:   1194.88
	FillingsUpdate:  mu: +0.361439867  nElectrons: 320.000000
SCF: Cycle:  6   F: -1136.350857067580364   dF: -1.317e-04   |Residual|: 5.129e-03   |deigs|: 1.881e-04  t[s]:   1249.41
	FillingsUpdate:  mu: +0.361398225  nElectrons: 320.000000
SCF: Cycle:  7   F: -1136.350907996963770   dF: -5.093e-05   |Residual|: 1.807e-03   |deigs|: 2.988e-05  t[s]:   1303.78
	FillingsUpdate:  mu: +0.361394102  nElectrons: 320.000000
SCF: Cycle:  8   F: -1136.350911882943592   dF: -3.886e-06   |Residual|: 9.694e-04   |deigs|: 1.501e-05  t[s]:   1357.93
	FillingsUpdate:  mu: +0.361411656  nElectrons: 320.000000
SCF: Cycle:  9   F: -1136.350912718867676   dF: -8.359e-07   |Residual|: 5.454e-04   |deigs|: 1.367e-05  t[s]:   1412.69
	FillingsUpdate:  mu: +0.361424536  nElectrons: 320.000000
SCF: Cycle: 10   F: -1136.350913265567215   dF: -5.467e-07   |Residual|: 1.284e-04   |deigs|: 9.086e-06  t[s]:   1467.39
	FillingsUpdate:  mu: +0.361426534  nElectrons: 320.000000
SCF: Cycle: 11   F: -1136.350913277412246   dF: -1.185e-08   |Residual|: 7.123e-05   |deigs|: 2.981e-06  t[s]:   1522.13
	FillingsUpdate:  mu: +0.361427592  nElectrons: 320.000000
SCF: Cycle: 12   F: -1136.350913283675709   dF: -6.263e-09   |Residual|: 2.643e-05   |deigs|: 1.533e-06  t[s]:   1576.98
	FillingsUpdate:  mu: +0.361428269  nElectrons: 320.000000
SCF: Cycle: 13   F: -1136.350913284392846   dF: -7.171e-10   |Residual|: 1.068e-05   |deigs|: 8.516e-07  t[s]:   1631.67
SCF: Converged (|Delta E|<1.000000e-08 for 2 iters).

Setting wave functions to eigenvectors of Hamiltonian

# Ionic positions in lattice coordinates:
ion O   0.736320000000000   0.240050000000000   0.745320000000000 1
ion O   0.004210000000000   0.015220000000000   0.752490000000000 1
ion O   0.497730000000000   0.258850000000000  -0.017290000000000 1
ion O   0.522510000000000   0.505690000000000   0.771030000000000 1
ion O   0.497010000000000   0.744600000000000   0.502220000000000 1
ion O   0.748360000000000   0.762030000000000   0.229360000000000 1
ion O  -0.005250000000000   0.741730000000000  -0.000830000000000 1
ion O   0.002620000000000   0.489720000000000   0.249090000000000 1
ion O   0.241620000000000   0.754370000000000   0.748550000000000 1
ion O   0.731570000000000   0.008970000000000  -0.002850000000000 1
ion O   0.246650000000000  -0.006560000000000   0.487420000000000 1
ion O   0.746470000000000   0.509580000000000   0.478840000000000 1
ion O  -0.004270000000000   0.238420000000000  -0.022240000000000 1
ion O   0.749350000000000  -0.010640000000000   0.487850000000000 1
ion O   0.739790000000000   0.244410000000000   0.255910000000000 1
ion O   0.503530000000000   0.260260000000000   0.497450000000000 1
ion O   0.509880000000000   0.495150000000000   0.244510000000000 1
ion O   0.250460000000000   0.250670000000000   0.730510000000000 1
ion O   0.496340000000000   0.740500000000000  -0.019820000000000 1
ion O   0.252090000000000  -0.008460000000000  -0.013400000000000 1
ion O   0.251600000000000   0.745020000000000   0.248360000000000 1
ion O  -0.005550000000000   0.490600000000000   0.746240000000000 1
ion O  -0.004360000000000  -0.000170000000000   0.254670000000000 1
ion O   0.249760000000000   0.493060000000000   0.486880000000000 1
ion Sc   0.742840000000000   0.679550000000000   0.943970000000000 1
ion Sc   0.535720000000000   0.241370000000000   0.776310000000000 1
ion Sc   0.786360000000000   0.548310000000000   0.246410000000000 1
ion Sc   0.937670000000000   0.724890000000000   0.719670000000000 1
ion Sc   0.693180000000000   0.931230000000000   0.757890000000000 1
ion Sc   0.241000000000000   0.793610000000000   0.559500000000000 1
ion Sc   0.739230000000000   0.236260000000000   0.478490000000000 1
ion Sc   0.023040000000000   0.260940000000000   0.246330000000000 1
ion Sc   0.267370000000000   0.034860000000000   0.245070000000000 1
ion Sc   0.473740000000000   0.745080000000000   0.227730000000000 1
ion Sc   0.232820000000000   0.483170000000000   0.754790000000000 1
ion Sc   0.258510000000000   0.281410000000000   0.027280000000000 1
ion Sc  -0.009090000000000   0.493720000000000  -0.009290000000000 1
ion Sc   0.505760000000000  -0.000380000000000   0.018020000000000 1
ion Sc   0.000270000000000  -0.014050000000000   0.479950000000000 1
ion Sc   0.477210000000000   0.495680000000000   0.502270000000000 1

# Forces in Lattice coordinates:
force O   0.389241392860286  -0.313850794865212   0.278722980392978 1
force O   0.140794383924002  -1.064831727521332   0.022059091493794 1
force O   0.506491620374298  -0.396237680263370   0.300701821639504 1
force O  -0.622352140967699  -0.752726934456911  -0.957205308794517 1
force O  -0.251650602370828  -0.010275556745018   0.367558383910063 1
force O   0.655892346104341  -1.072817397125536   0.110219049749310 1
force O   0.226699249232599  -0.115647542537683  -0.385145470822956 1
force O  -0.845433449737462   1.028980083453237  -0.169174268238972 1
force O  -0.302704095383565  -0.175307519602629   0.583990043233359 1
force O   0.074999141136840  -0.270219783941432   0.251317886333230 1
force O   0.130269175199146  -0.474949861686884   0.603020993760999 1
force O   0.143467929202390   0.365998343635862   0.035418531923882 1
force O   0.344437805261413   0.074032877823355   0.497582984881761 1
force O  -0.317586620726145   0.787738573681172  -0.637659231398354 1
force O   0.215124164826625  -0.489030677080763   0.250669121541399 1
force O   0.111393983404374  -0.129914561685214  -0.704534791637561 1
force O  -0.961318401050359   0.574297451607608  -0.021776119801479 1
force O  -0.805418298245133   0.558918059153266   0.243243891766172 1
force O  -0.973190055243394  -0.077711666359490   0.835750575977774 1
force O  -0.449977585933849   0.384248171541022   0.943656270254589 1
force O   0.478420476395381   0.188368707936748  -0.814643092278328 1
force O   0.442690227565779  -0.462223095052566  -0.235490951613725 1
force O   0.450886131719004   1.146552390008584  -0.864927451404284 1
force O  -0.519189523615521  -0.572813112978052   0.687358664121997 1
force Sc  -0.527748802151465   1.815168349196361   1.823229836101584 1
force Sc  -1.436548607561499   1.031364308432210  -0.930334023608879 1
force Sc  -0.923478120533700  -0.995767796441551   0.903481621559077 1
force Sc   1.170042880272290  -0.169942743280903   0.329461836302267 1
force Sc   1.365179255868070   1.296692452972394  -1.753929468902221 1
force Sc   1.266468976024310  -0.482040787279617  -2.022805770646563 1
force Sc  -0.335179929346554   0.181423181583634   0.969200637452259 1
force Sc  -1.041498584638190   0.141372282401033  -0.113547649095711 1
force Sc  -0.680701639728855  -1.026678379573430   0.856057181226488 1
force Sc   0.943302660006372  -0.647006323531426   0.646554036936412 1
force Sc   0.662822697188899   0.610076333203208  -0.821617924242030 1
force Sc   0.924775365343033  -0.881518818169827  -1.073850976789696 1
force Sc   0.364930840591023  -0.284303944042435   0.079439711707761 1
force Sc  -0.199065275373250   0.235217192289806  -0.095647182746149 1
force Sc  -0.487338729891938   0.616251278905718   0.350203298499741 1
force Sc   0.672778899728542  -0.171648521706408  -0.366503365596785 1

# Energy components:
   Eewald =     -856.3019495873933238
       EH =      252.0542797099127483
     Eloc =     -753.7162205537006230
      Enl =      130.8707799342273859
      Exc =     -193.2901863371620266
 Exc_core =        6.4609961837565368
       KE =      277.6457273263536081
-------------------------------------
     Etot =    -1136.2765733240055397
       TS =        0.0743399603872638
-------------------------------------
        F =    -1136.3509132843928455

IonicMinimize: Iter:   0  F: -1136.350913284392846  |grad|_K:  4.753e-02  t[s]:   1643.03

#--- Lowdin population analysis ---
# oxidation-state O -0.315 -0.331 -0.324 -0.228 -0.319 -0.316 -0.328 -0.352 -0.287 -0.284 -0.336 -0.316 -0.338 -0.358 -0.348 -0.369 -0.338 -0.353 -0.365 -0.357 -0.345 -0.378 -0.351 -0.337
# oxidation-state Sc +0.370 +0.461 +0.560 +0.519 +0.485 +0.520 +0.573 +0.568 +0.574 +0.550 +0.592 +0.531 +0.543 +0.519 +0.511 +0.482


-------- Electronic minimization -----------
Will mix electronic density at each iteration.
	FillingsUpdate:  mu: +0.361428269  nElectrons: 320.000000
	FillingsUpdate:  mu: +0.366355546  nElectrons: 320.000000
SCF: Cycle:  0   F: -1135.955341573786427   dF: +9.247e-02   |Residual|: 5.362e-01   |deigs|: 1.650e-03  t[s]:   1764.64
	FillingsUpdate:  mu: +0.368125196  nElectrons: 320.000000
SCF: Cycle:  1   F: -1136.350710989049730   dF: -3.954e-01   |Residual|: 2.695e-01   |deigs|: 7.586e-03  t[s]:   1851.60
	FillingsUpdate:  mu: +0.360660924  nElectrons: 320.000000
SCF: Cycle:  2   F: -1136.357604785254125   dF: -6.894e-03   |Residual|: 2.072e-01   |deigs|: 3.921e-03  t[s]:   1938.21
	FillingsUpdate:  mu: +0.362195728  nElectrons: 320.000000
SCF: Cycle:  3   F: -1136.464490779596645   dF: -1.069e-01   |Residual|: 4.940e-02   |deigs|: 1.611e-03  t[s]:   2020.82
	FillingsUpdate:  mu: +0.362188973  nElectrons: 320.000000
SCF: Cycle:  4   F: -1136.466355277257207   dF: -1.864e-03   |Residual|: 3.206e-02   |deigs|: 3.951e-04  t[s]:   2101.14
	FillingsUpdate:  mu: +0.362125358  nElectrons: 320.000000
SCF: Cycle:  5   F: -1136.466621337276138   dF: -2.661e-04   |Residual|: 2.074e-02   |deigs|: 3.117e-04  t[s]:   2155.35
	FillingsUpdate:  mu: +0.361922274  nElectrons: 320.000000
SCF: Cycle:  6   F: -1136.467549263730461   dF: -9.279e-04   |Residual|: 4.846e-03   |deigs|: 1.163e-04  t[s]:   2209.92
	FillingsUpdate:  mu: +0.361857566  nElectrons: 320.000000
SCF: Cycle:  7   F: -1136.467562728478015   dF: -1.346e-05   |Residual|: 2.955e-03   |deigs|: 4.749e-05  t[s]:   2264.26
	FillingsUpdate:  mu: +0.361876692  nElectrons: 320.000000
SCF: Cycle:  8   F: -1136.467577231187079   dF: -1.450e-05   |Residual|: 1.574e-03   |deigs|: 2.258e-05  t[s]:   2319.07
	FillingsUpdate:  mu: +0.361889017  nElectrons: 320.000000
SCF: Cycle:  9   F: -1136.467580914854580   dF: -3.684e-06   |Residual|: 6.359e-04   |deigs|: 1.051e-05  t[s]:   2373.36
	FillingsUpdate:  mu: +0.361881995  nElectrons: 320.000000
SCF: Cycle: 10   F: -1136.467581450355965   dF: -5.355e-07   |Residual|: 2.492e-04   |deigs|: 5.337e-06  t[s]:   2428.23
	FillingsUpdate:  mu: +0.361878328  nElectrons: 320.000000
SCF: Cycle: 11   F: -1136.467581470743426   dF: -2.039e-08   |Residual|: 1.827e-04   |deigs|: 1.996e-06  t[s]:   2483.13
	FillingsUpdate:  mu: +0.361879876  nElectrons: 320.000000
SCF: Cycle: 12   F: -1136.467581548234193   dF: -7.749e-08   |Residual|: 4.075e-05   |deigs|: 1.417e-06  t[s]:   2537.72
	FillingsUpdate:  mu: +0.361879917  nElectrons: 320.000000
SCF: Cycle: 13   F: -1136.467581549178476   dF: -9.443e-10   |Residual|: 2.560e-05   |deigs|: 2.849e-07  t[s]:   2593.30
	FillingsUpdate:  mu: +0.361879712  nElectrons: 320.000000
SCF: Cycle: 14   F: -1136.467581549819442   dF: -6.410e-10   |Residual|: 1.246e-05   |deigs|: 1.820e-07  t[s]:   2647.82
SCF: Converged (|Delta E|<1.000000e-08 for 2 iters).

Setting wave functions to eigenvectors of Hamiltonian

# Ionic positions in lattice coordinates:
ion O   0.737307107700316   0.240103487184850   0.746160364979432 1
ion O   0.003199162238163   0.012608197845353   0.751321510221334 1
ion O   0.498948292955562   0.258869564574565  -0.016344965365258 1
ion O   0.518586379324566   0.501593290690992   0.766661736580293 1
ion O   0.496816067416444   0.744726650880767   0.502848365544954 1
ion O   0.748823673711090   0.760198082568006   0.229099068924581 1
ion O  -0.005312962262909   0.741212467522983  -0.001705439304067 1
ion O   0.001516369816695   0.491105546521463   0.248884427883310 1
ion O   0.241358729966975   0.754277955506628   0.749466234582266 1
ion O   0.731744061385839   0.008685677538243  -0.002441775818431 1
ion O   0.247166023447009  -0.006847627166220   0.488563833699663 1
ion O   0.747384068693755   0.510789629369853   0.479610604376055 1
ion O  -0.002596163797551   0.239734804313845  -0.020362775883303 1
ion O   0.748705797564777  -0.009816336432028   0.486780778691473 1
ion O   0.740044787755855   0.243729754795226   0.256212010353232 1
ion O   0.502717723054767   0.259127325343491   0.495554233740921 1
ion O   0.508060534018039   0.495369802791725   0.243938219234958 1
ion O   0.249386096089715   0.251407915428252   0.730828686167093 1
ion O   0.494761916892214   0.740111115003411  -0.018995882084394 1
ion O   0.252658263128315  -0.006783875455795  -0.010981043847623 1
ion O   0.252038951485867   0.745073827378313   0.247081850705836 1
ion O  -0.005300814634420   0.489647555000136   0.745588616873824 1
ion O  -0.002788535172863   0.002325327809216   0.254494151611243 1
ion O   0.248533169506923   0.491762007460228   0.487255424742637 1
ion Sc   0.746269918710868   0.686091253195486   0.950521912182628 1
ion Sc   0.532038821767650   0.240966131932044   0.773301071880823 1
ion Sc   0.783784760255457   0.545638808183165   0.246260891172394 1
ion Sc   0.940989312741578   0.726429933163865   0.721873082670631 1
ion Sc   0.696198563705474   0.934157671535425   0.756766567169867 1
ion Sc   0.241037285798913   0.791325400449729   0.555169321458453 1
ion Sc   0.739867734116903   0.237583808392245   0.480859903479355 1
ion Sc   0.020310815521750   0.259781654686494   0.244833109131792 1
ion Sc   0.265335523943863   0.032366129857146   0.245076282688394 1
ion Sc   0.476244680449685   0.745472882315596   0.229840632498411 1
ion Sc   0.234299446755167   0.484579454397591   0.754298206020559 1
ion Sc   0.258369455970374   0.278870835437415   0.024485405782263 1
ion Sc  -0.008392858498194   0.493555040458678  -0.008971955606021 1
ion Sc   0.505416619412500  -0.000146625812080   0.017813974138095 1
ion Sc   0.000259052473166  -0.012595384647064   0.481051284964413 1
ion Sc   0.478282166589703   0.495630859980764   0.501962073757916 1

# Forces in Lattice coordinates:
force O   0.199141662042236  -0.273453761698168   0.361740873400986 1
force O   0.120075728844484  -1.053569417897137   0.019587107736508 1
force O   0.552936608513544  -0.366518649108230   0.197842281753445 1
force O  -0.066388950500046  -0.490656681692959  -0.719310171603723 1
force O  -0.259156385638265   0.004003611359743   0.409391614936600 1
force O   0.683193339303018  -1.035972160373083   0.085401388646736 1
force O   0.107981585223426  -0.078416822150040  -0.353744506094991 1
force O  -0.817275468233470   1.010665231214610  -0.153236864867816 1
force O  -0.252392982857768   0.023114796145418   0.267939484497822 1
force O   0.140053229059318  -0.289590183782063   0.071628676323307 1
force O   0.105424572422188  -0.472122640934407   0.620973755176391 1
force O   0.135328640705384   0.387654985322121   0.043054358192732 1
force O   0.357798230075171   0.062714321972993   0.484088996467523 1
force O  -0.305030552931639   0.763361538496324  -0.631300974301479 1
force O   0.210278601031202  -0.486307724558029   0.275458756392712 1
force O   0.122983067888582  -0.145304126279698  -0.703436811056210 1
force O  -0.958552195264894   0.550165293603835  -0.011601355520693 1
force O  -0.805706004100801   0.502315935676409   0.280700072741660 1
force O  -0.923612821123577  -0.087208109586691   0.826070439593142 1
force O  -0.439755610944182   0.384210324783365   0.921919285283540 1
force O   0.475656850160754   0.192030611245067  -0.799699934318815 1
force O   0.423081995576053  -0.460092632758046  -0.204048698962588 1
force O   0.443091021520844   1.064794655869345  -0.794894958703031 1
force O  -0.452337851491087  -0.579019758420544   0.615752858604664 1
force Sc  -0.991207517807667   1.593291296161283   1.579955168328767 1
force Sc  -1.307441833838993   1.002251549539892  -0.929089580165335 1
force Sc  -0.920761578272347  -1.015703272724474   0.918143437321990 1
force Sc   1.171991434601185  -0.200427799214852   0.304144228839942 1
force Sc   1.300838963501365   1.300156480571417  -1.623439082443311 1
force Sc   1.211647188282134  -0.670036398505093  -1.725825404414455 1
force Sc  -0.319765581311437   0.191965298057559   0.901853853096731 1
force Sc  -1.015041422036361   0.177053614550946  -0.105416899760442 1
force Sc  -0.651408111519242  -1.004753529817451   0.838552640602436 1
force Sc   0.907507181861161  -0.629372640438741   0.621799249694385 1
force Sc   0.650088113795543   0.625490640006575  -0.825188918627908 1
force Sc   0.899944692777787  -0.863626011753113  -1.046762167562700 1
force Sc   0.357903990090918  -0.294734403447885   0.072751200473316 1
force Sc  -0.193621125919638   0.217496457532957  -0.089591093201800 1
force Sc  -0.466088173905783   0.593388474041678   0.310273410940694 1
force Sc   0.569372417167780  -0.150056655890999  -0.312350555004590 1

# Energy components:
   Eewald =     -856.7864362156007019
       EH =      251.6127736052866908
     Eloc =     -752.6884029285380393
      Enl =      130.7677881104792732
      Exc =     -193.2641190846685504
 Exc_core =        6.4609943766841456
       KE =      277.4963296180821999
-------------------------------------
     Etot =    -1136.4010725182752140
       TS =        0.0665090315442969
-------------------------------------
        F =    -1136.4675815498194424

IonicMinimize: Iter:   1  F: -1136.467581549819442  |grad|_K:  4.329e-02  alpha:  4.544e-01  linmin: -9.848e-01  t[s]:   2659.25

#--- Lowdin population analysis ---
# oxidation-state O -0.325 -0.339 -0.332 -0.266 -0.323 -0.322 -0.329 -0.355 -0.303 -0.294 -0.340 -0.322 -0.343 -0.365 -0.353 -0.370 -0.344 -0.357 -0.368 -0.360 -0.354 -0.381 -0.362 -0.345
# oxidation-state Sc +0.414 +0.475 +0.562 +0.524 +0.497 +0.536 +0.575 +0.573 +0.579 +0.555 +0.591 +0.542 +0.554 +0.530 +0.530 +0.497


-------- Electronic minimization -----------
Will mix electronic density at each iteration.
	FillingsUpdate:  mu: +0.361879712  nElectrons: 320.000000
	FillingsUpdate:  mu: +0.366900148  nElectrons: 320.000000
SCF: Cycle:  0   F: -1136.073201223982551   dF: -5.600e-02   |Residual|: 6.207e-01   |deigs|: 2.103e-03  t[s]:   2780.92
	FillingsUpdate:  mu: +0.368689660  nElectrons: 320.000000
SCF: Cycle:  1   F: -1136.510846642451270   dF: -4.376e-01   |Residual|: 2.509e-01   |deigs|: 6.978e-03  t[s]:   2867.24
	FillingsUpdate:  mu: +0.361423159  nElectrons: 320.000000
SCF: Cycle:  2   F: -1136.507085334563499   dF: +3.761e-03   |Residual|: 1.982e-01   |deigs|: 3.981e-03  t[s]:   2953.99
	FillingsUpdate:  mu: +0.363156607  nElectrons: 320.000000
SCF: Cycle:  3   F: -1136.597562475528775   dF: -9.048e-02   |Residual|: 5.001e-02   |deigs|: 1.784e-03  t[s]:   3036.52
	FillingsUpdate:  mu: +0.363198769  nElectrons: 320.000000
SCF: Cycle:  4   F: -1136.598589944632522   dF: -1.027e-03   |Residual|: 2.771e-02   |deigs|: 3.936e-04  t[s]:   3113.69
	FillingsUpdate:  mu: +0.362962381  nElectrons: 320.000000
SCF: Cycle:  5   F: -1136.599143338157546   dF: -5.534e-04   |Residual|: 1.290e-02   |deigs|: 2.946e-04  t[s]:   3168.09
	FillingsUpdate:  mu: +0.362763081  nElectrons: 320.000000
SCF: Cycle:  6   F: -1136.599386798180831   dF: -2.435e-04   |Residual|: 5.171e-03   |deigs|: 1.009e-04  t[s]:   3223.00
	FillingsUpdate:  mu: +0.362772275  nElectrons: 320.000000
SCF: Cycle:  7   F: -1136.599439373780569   dF: -5.258e-05   |Residual|: 2.310e-03   |deigs|: 3.841e-05  t[s]:   3278.16
	FillingsUpdate:  mu: +0.362804741  nElectrons: 320.000000
SCF: Cycle:  8   F: -1136.599449063126258   dF: -9.689e-06   |Residual|: 8.719e-04   |deigs|: 2.472e-05  t[s]:   3332.40
	FillingsUpdate:  mu: +0.362802840  nElectrons: 320.000000
SCF: Cycle:  9   F: -1136.599449380183614   dF: -3.171e-07   |Residual|: 5.457e-04   |deigs|: 5.299e-06  t[s]:   3387.36
	FillingsUpdate:  mu: +0.362795441  nElectrons: 320.000000
SCF: Cycle: 10   F: -1136.599449860367486   dF: -4.802e-07   |Residual|: 1.590e-04   |deigs|: 4.678e-06  t[s]:   3441.55
	FillingsUpdate:  mu: +0.362795066  nElectrons: 320.000000
SCF: Cycle: 11   F: -1136.599449903733557   dF: -4.337e-08   |Residual|: 7.197e-05   |deigs|: 1.840e-06  t[s]:   3496.16
	FillingsUpdate:  mu: +0.362795390  nElectrons: 320.000000
SCF: Cycle: 12   F: -1136.599449910646854   dF: -6.913e-09   |Residual|: 3.786e-05   |deigs|: 6.513e-07  t[s]:   3551.26
	FillingsUpdate:  mu: +0.362795007  nElectrons: 320.000000
SCF: Cycle: 13   F: -1136.599449912042701   dF: -1.396e-09   |Residual|: 1.420e-05   |deigs|: 3.575e-07  t[s]:   3605.90
SCF: Converged (|Delta E|<1.000000e-08 for 2 iters).

Setting wave functions to eigenvectors of Hamiltonian
IonicMinimize: 	Wolfe criterion not satisfied: alpha: 0.075108  (E-E0)/|gdotd0|: -0.0732813  gdotd/gdotd0: 0.950534 (taking cubic step)

-------- Electronic minimization -----------
Will mix electronic density at each iteration.
	FillingsUpdate:  mu: +0.362795007  nElectrons: 320.000000
	FillingsUpdate:  mu: +0.372886347  nElectrons: 320.000000
SCF: Cycle:  0   F: -1135.090727545255504   dF: -5.847e-01   |Residual|: 1.227e+00   |deigs|: 8.434e-03  t[s]:   3738.68
	FillingsUpdate:  mu: +0.372005339  nElectrons: 320.000000
SCF: Cycle:  1   F: -1136.649921444480015   dF: -1.559e+00   |Residual|: 3.866e-01   |deigs|: 1.309e-02  t[s]:   3825.33
	FillingsUpdate:  mu: +0.365870984  nElectrons: 320.000000
SCF: Cycle:  2   F: -1136.758134852390867   dF: -1.082e-01   |Residual|: 2.046e-01   |deigs|: 3.937e-03  t[s]:   3911.87
	FillingsUpdate:  mu: +0.366961814  nElectrons: 320.000000
SCF: Cycle:  3   F: -1136.834821024879830   dF: -7.669e-02   |Residual|: 9.870e-02   |deigs|: 1.714e-03  t[s]:   3998.25
	FillingsUpdate:  mu: +0.365255086  nElectrons: 320.000000
SCF: Cycle:  4   F: -1136.839576552968310   dF: -4.756e-03   |Residual|: 3.154e-02   |deigs|: 6.995e-04  t[s]:   4085.69
	FillingsUpdate:  mu: +0.365395556  nElectrons: 320.000000
SCF: Cycle:  5   F: -1136.841479712025148   dF: -1.903e-03   |Residual|: 1.161e-02   |deigs|: 2.439e-04  t[s]:   4161.15
	FillingsUpdate:  mu: +0.365308455  nElectrons: 320.000000
SCF: Cycle:  6   F: -1136.841649558489962   dF: -1.698e-04   |Residual|: 4.827e-03   |deigs|: 1.082e-04  t[s]:   4215.96
	FillingsUpdate:  mu: +0.365283981  nElectrons: 320.000000
SCF: Cycle:  7   F: -1136.841662367390427   dF: -1.281e-05   |Residual|: 2.491e-03   |deigs|: 4.989e-05  t[s]:   4270.99
	FillingsUpdate:  mu: +0.365289078  nElectrons: 320.000000
SCF: Cycle:  8   F: -1136.841669351686278   dF: -6.984e-06   |Residual|: 9.706e-04   |deigs|: 2.101e-05  t[s]:   4325.49
	FillingsUpdate:  mu: +0.365287932  nElectrons: 320.000000
SCF: Cycle:  9   F: -1136.841670776391766   dF: -1.425e-06   |Residual|: 3.631e-04   |deigs|: 8.593e-06  t[s]:   4380.01
	FillingsUpdate:  mu: +0.365285416  nElectrons: 320.000000
SCF: Cycle: 10   F: -1136.841670938357538   dF: -1.620e-07   |Residual|: 1.738e-04   |deigs|: 3.078e-06  t[s]:   4434.38
	FillingsUpdate:  mu: +0.365282919  nElectrons: 320.000000
SCF: Cycle: 11   F: -1136.841670964455716   dF: -2.610e-08   |Residual|: 7.510e-05   |deigs|: 1.547e-06  t[s]:   4489.16
	FillingsUpdate:  mu: +0.365283142  nElectrons: 320.000000
SCF: Cycle: 12   F: -1136.841670969821962   dF: -5.366e-09   |Residual|: 3.193e-05   |deigs|: 9.873e-07  t[s]:   4543.93
	FillingsUpdate:  mu: +0.365282983  nElectrons: 320.000000
SCF: Cycle: 13   F: -1136.841670971241228   dF: -1.419e-09   |Residual|: 1.272e-05   |deigs|: 5.190e-07  t[s]:   4598.56
SCF: Converged (|Delta E|<1.000000e-08 for 2 iters).

Setting wave functions to eigenvectors of Hamiltonian

# Ionic positions in lattice coordinates:
ion O   0.739240083885385   0.240104171396910   0.749782091036343 1
ion O  -0.001266586735961   0.001773508020102   0.746355586159805 1
ion O   0.504165712393978   0.258976133428712  -0.013516304952797 1
ion O   0.515875599313074   0.495692985792658   0.759432135680253 1
ion O   0.496357669414746   0.745780714946590   0.506214394651001 1
ion O   0.751306576632090   0.753243257838665   0.228139250301115 1
ion O  -0.006993808995121   0.738958558437726  -0.005492348323120 1
ion O  -0.002605857427447   0.496913135637730   0.248382974289389 1
ion O   0.240132415970437   0.754999057840870   0.750040699810336 1
ion O   0.731885817003069   0.006216806295329  -0.003387623713792 1
ion O   0.249062413774436  -0.008050583335071   0.493423241182299 1
ion O   0.751283452485325   0.516165104431200   0.483047850017098 1
ion O   0.004359975838910   0.244994767082305  -0.012789200815016 1
ion O   0.746094450094883  -0.006652208981035   0.482355094435173 1
ion O   0.741251083366872   0.241122877485796   0.257863373294120 1
ion O   0.499424584497203   0.254278853511170   0.487680484843780 1
ion O   0.500445762754311   0.495984068887025   0.241558951567525 1
ion O   0.244767575847417   0.253827961365509   0.732301624152473 1
ion O   0.488891518247081   0.738674551755458  -0.015404621366368 1
ion O   0.255003209738987   0.000068234328595  -0.001231506724406 1
ion O   0.253968932373799   0.745461064629075   0.242041298092913 1
ion O  -0.004315110925018   0.485833898080534   0.743269759599151 1
ion O   0.003497350542400   0.011819680052245   0.254189906512156 1
ion O   0.243916550246774   0.486235869643183   0.488117570844725 1
ion Sc   0.748782595371030   0.703536127104261   0.967831028534289 1
ion Sc   0.518713249670686   0.239898262204904   0.761687372913926 1
ion Sc   0.773108587208682   0.534374293543786   0.245744474193506 1
ion Sc   0.954315338144687   0.732105483891794   0.730341654765444 1
ion Sc   0.708758542180617   0.946911107793710   0.753791630895256 1
ion Sc   0.241186327981054   0.780727304065804   0.540166806925940 1
ion Sc   0.742293437090673   0.242813166549824   0.489771480613207 1
ion Sc   0.009808566969600   0.255870056252718   0.239286092193060 1
ion Sc   0.257430083095185   0.022493984665342   0.245238675920074 1
ion Sc   0.485967595169161   0.746889225370921   0.238022614300660 1
ion Sc   0.240318948867463   0.490545531101941   0.752221598862090 1
ion Sc   0.257747364354391   0.268662900085674   0.013295741836773 1
ion Sc  -0.005764549859565   0.492580281678385  -0.007912606952775 1
ion Sc   0.503986354304345   0.000619644178949   0.016958372813977 1
ion Sc   0.000042988845474  -0.007105915495928   0.484932213868360 1
ion Sc   0.481625200268885   0.495376078436637   0.500908167742056 1

# Forces in Lattice coordinates:
force O  -0.256243515405615  -0.194886929796374   0.535925630008380 1
force O   0.013029721003312  -0.945801299732515   0.028124834523925 1
force O   0.643453337744591  -0.251914672245341  -0.108223646913300 1
force O   0.468076351047702  -0.152652158542389  -0.368907682091029 1
force O  -0.258224520202996   0.041785740311411   0.541397543350562 1
force O   0.706730889092033  -0.867150462454235   0.043333510275977 1
force O  -0.341705624948505   0.038061803719931  -0.206570838996837 1
force O  -0.693720327179025   0.902422040477615  -0.095208320854376 1
force O  -0.166210866464475   0.404643257367842  -0.315294125491875 1
force O   0.274287629555756  -0.344008804342321  -0.352099393248566 1
force O   0.019511078502495  -0.438265214089863   0.641856586762846 1
force O   0.072815306256204   0.424067584580327   0.092679420039406 1
force O   0.394454353879789   0.023277706102730   0.394395222183025 1
force O  -0.228769172733960   0.650263422213451  -0.576711886998086 1
force O   0.195322626969053  -0.466048252464212   0.313774393321742 1
force O   0.094600554618369  -0.130520708517748  -0.617244980944234 1
force O  -0.898226369117454   0.429294498024527   0.023335463790488 1
force O  -0.734562408970560   0.362104165573391   0.326808986257098 1
force O  -0.731997462517703  -0.090790820751216   0.747340694979967 1
force O  -0.345001408261429   0.350596116848171   0.795212800638597 1
force O   0.460055336020653   0.192295673152834  -0.718802389993435 1
force O   0.401915386949808  -0.455350225303821  -0.112035357766010 1
force O   0.362617429157238   0.755839287849215  -0.489844646395858 1
force O  -0.246755904407362  -0.571926113763111   0.421575577638627 1
force Sc  -1.090983497219926   1.265483687934018   1.085816779282071 1
force Sc  -0.958224128487362   0.839762012154899  -0.806834238335864 1
force Sc  -0.846757381482926  -1.041116499670444   0.907708599697437 1
force Sc   1.136372127958927  -0.293206446046623   0.265598746122838 1
force Sc   1.109353928191792   1.290209021725483  -1.335783518995825 1
force Sc   1.069664379581505  -0.968110706604753  -1.159319764648241 1
force Sc  -0.263615913989060   0.213002528510372   0.653521593664475 1
force Sc  -0.886627137843544   0.282588291489732  -0.083963676461154 1
force Sc  -0.528334809548244  -0.909507949885056   0.722308555219112 1
force Sc   0.717930614781043  -0.533059301608632   0.515573348830400 1
force Sc   0.512722939530123   0.632168180406754  -0.757061584137320 1
force Sc   0.764292634894104  -0.770934481069072  -0.895740780601703 1
force Sc   0.292269538408848  -0.227931134805396   0.041754241987386 1
force Sc  -0.172875042766548   0.167490550868709  -0.060293046332083 1
force Sc  -0.381397193503813   0.464777291083903   0.222621537109809 1
force Sc   0.319982184057371  -0.077209592189899  -0.260189332863348 1

# Energy components:
   Eewald =     -856.5710198956686554
       EH =      251.8382321315936565
     Eloc =     -753.0327904370678880
      Enl =      130.5182396152082447
      Exc =     -193.2877337836136178
 Exc_core =        6.4609906009768849
       KE =      277.2693501862012226
-------------------------------------
     Etot =    -1136.8047315823705503
       TS =        0.0369393888705776
-------------------------------------
        F =    -1136.8416709712412285

IonicMinimize: Iter:   2  F: -1136.841670971241228  |grad|_K:  3.683e-02  alpha:  2.253e-01  linmin: -9.809e-01  t[s]:   4610.10

#--- Lowdin population analysis ---
# oxidation-state O -0.357 -0.372 -0.360 -0.321 -0.341 -0.341 -0.347 -0.371 -0.342 -0.325 -0.356 -0.345 -0.366 -0.388 -0.374 -0.382 -0.370 -0.379 -0.385 -0.376 -0.382 -0.390 -0.390 -0.373
# oxidation-state Sc +0.508 +0.525 +0.572 +0.541 +0.543 +0.580 +0.583 +0.588 +0.592 +0.569 +0.592 +0.580 +0.594 +0.575 +0.595 +0.553


-------- Electronic minimization -----------
Will mix electronic density at each iteration.
	FillingsUpdate:  mu: +0.365282983  nElectrons: 320.000000
	FillingsUpdate:  mu: +0.370986541  nElectrons: 320.000000
SCF: Cycle:  0   F: -1136.561144754953830   dF: -2.474e-01   |Residual|: 6.341e-01   |deigs|: 2.250e-03  t[s]:   4731.96
	FillingsUpdate:  mu: +0.370644459  nElectrons: 320.000000
SCF: Cycle:  1   F: -1136.922191317563147   dF: -3.610e-01   |Residual|: 1.971e-01   |deigs|: 4.356e-03  t[s]:   4818.08
	FillingsUpdate:  mu: +0.366636607  nElectrons: 320.000000
SCF: Cycle:  2   F: -1136.942219327543853   dF: -2.003e-02   |Residual|: 1.063e-01   |deigs|: 2.283e-03  t[s]:   4904.44
	FillingsUpdate:  mu: +0.367870776  nElectrons: 320.000000
SCF: Cycle:  3   F: -1136.961136980640958   dF: -1.892e-02   |Residual|: 4.913e-02   |deigs|: 1.246e-03  t[s]:   4986.02
	FillingsUpdate:  mu: +0.367125066  nElectrons: 320.000000
SCF: Cycle:  4   F: -1136.962242557446189   dF: -1.106e-03   |Residual|: 1.372e-02   |deigs|: 3.252e-04  t[s]:   5066.12
	FillingsUpdate:  mu: +0.367124751  nElectrons: 320.000000
SCF: Cycle:  5   F: -1136.962515958713766   dF: -2.734e-04   |Residual|: 5.096e-03   |deigs|: 9.785e-05  t[s]:   5120.67
	FillingsUpdate:  mu: +0.367092377  nElectrons: 320.000000
SCF: Cycle:  6   F: -1136.962550149753042   dF: -3.419e-05   |Residual|: 1.920e-03   |deigs|: 5.405e-05  t[s]:   5175.30
	FillingsUpdate:  mu: +0.367078660  nElectrons: 320.000000
SCF: Cycle:  7   F: -1136.962552653798411   dF: -2.504e-06   |Residual|: 1.046e-03   |deigs|: 2.189e-05  t[s]:   5230.54
	FillingsUpdate:  mu: +0.367082320  nElectrons: 320.000000
SCF: Cycle:  8   F: -1136.962554062626168   dF: -1.409e-06   |Residual|: 3.627e-04   |deigs|: 9.731e-06  t[s]:   5285.15
	FillingsUpdate:  mu: +0.367081711  nElectrons: 320.000000
SCF: Cycle:  9   F: -1136.962554267568066   dF: -2.049e-07   |Residual|: 1.163e-04   |deigs|: 4.068e-06  t[s]:   5339.86
	FillingsUpdate:  mu: +0.367080561  nElectrons: 320.000000
SCF: Cycle: 10   F: -1136.962554283771624   dF: -1.620e-08   |Residual|: 6.167e-05   |deigs|: 1.143e-06  t[s]:   5394.21
	FillingsUpdate:  mu: +0.367080029  nElectrons: 320.000000
SCF: Cycle: 11   F: -1136.962554286765908   dF: -2.994e-09   |Residual|: 2.583e-05   |deigs|: 5.916e-07  t[s]:   5448.98
	FillingsUpdate:  mu: +0.367079863  nElectrons: 320.000000
SCF: Cycle: 12   F: -1136.962554287396642   dF: -6.307e-10   |Residual|: 6.905e-06   |deigs|: 4.420e-07  t[s]:   5503.56
SCF: Converged (|Delta E|<1.000000e-08 for 2 iters).

Setting wave functions to eigenvectors of Hamiltonian
IonicMinimize: 	Wolfe criterion not satisfied: alpha: 0.0474452  (E-E0)/|gdotd0|: -0.0462281  gdotd/gdotd0: 0.947189 (taking cubic step)

-------- Electronic minimization -----------
Will mix electronic density at each iteration.
	FillingsUpdate:  mu: +0.367079863  nElectrons: 320.000000
	FillingsUpdate:  mu: +0.378349963  nElectrons: 320.000000
SCF: Cycle:  0   F: -1135.724688419178392   dF: -1.144e+00   |Residual|: 1.266e+00   |deigs|: 9.031e-03  t[s]:   5635.56
	FillingsUpdate:  mu: +0.374690323  nElectrons: 320.000000
SCF: Cycle:  1   F: -1137.037835145081317   dF: -1.313e+00   |Residual|: 3.748e-01   |deigs|: 1.089e-02  t[s]:   5722.56
	FillingsUpdate:  mu: +0.372283229  nElectrons: 320.000000
SCF: Cycle:  2   F: -1137.142750221494452   dF: -1.049e-01   |Residual|: 1.657e-01   |deigs|: 3.109e-03  t[s]:   5809.61
	FillingsUpdate:  mu: +0.372387256  nElectrons: 320.000000
SCF: Cycle:  3   F: -1137.176737874312494   dF: -3.399e-02   |Residual|: 8.982e-02   |deigs|: 1.109e-03  t[s]:   5896.46
	FillingsUpdate:  mu: +0.371278606  nElectrons: 320.000000
SCF: Cycle:  4   F: -1137.181474657244962   dF: -4.737e-03   |Residual|: 1.519e-02   |deigs|: 5.722e-04  t[s]:   5982.96
	FillingsUpdate:  mu: +0.371148872  nElectrons: 320.000000
SCF: Cycle:  5   F: -1137.181844037654400   dF: -3.694e-04   |Residual|: 8.735e-03   |deigs|: 1.736e-04  t[s]:   6037.42
	FillingsUpdate:  mu: +0.371072298  nElectrons: 320.000000
SCF: Cycle:  6   F: -1137.181941626135085   dF: -9.759e-05   |Residual|: 3.474e-03   |deigs|: 6.792e-05  t[s]:   6091.64
	FillingsUpdate:  mu: +0.371061060  nElectrons: 320.000000
SCF: Cycle:  7   F: -1137.181955681864792   dF: -1.406e-05   |Residual|: 1.262e-03   |deigs|: 3.689e-05  t[s]:   6146.70
	FillingsUpdate:  mu: +0.371047675  nElectrons: 320.000000
SCF: Cycle:  8   F: -1137.181958021516721   dF: -2.340e-06   |Residual|: 5.239e-04   |deigs|: 1.397e-05  t[s]:   6201.62
	FillingsUpdate:  mu: +0.371048210  nElectrons: 320.000000
SCF: Cycle:  9   F: -1137.181958409984418   dF: -3.885e-07   |Residual|: 1.969e-04   |deigs|: 6.393e-06  t[s]:   6255.92
	FillingsUpdate:  mu: +0.371046259  nElectrons: 320.000000
SCF: Cycle: 10   F: -1137.181958442776931   dF: -3.279e-08   |Residual|: 7.700e-05   |deigs|: 2.298e-06  t[s]:   6310.45
	FillingsUpdate:  mu: +0.371046109  nElectrons: 320.000000
SCF: Cycle: 11   F: -1137.181958447968100   dF: -5.191e-09   |Residual|: 2.811e-05   |deigs|: 1.435e-06  t[s]:   6365.24
	FillingsUpdate:  mu: +0.371045882  nElectrons: 320.000000
SCF: Cycle: 12   F: -1137.181958449007652   dF: -1.040e-09   |Residual|: 1.129e-05   |deigs|: 7.572e-07  t[s]:   6420.26
SCF: Converged (|Delta E|<1.000000e-08 for 2 iters).

Setting wave functions to eigenvectors of Hamiltonian

# Ionic positions in lattice coordinates:
ion O   0.737660745455338   0.239222173944250   0.753915416933642 1
ion O  -0.007403531230457  -0.010617152334470   0.740461135682111 1
ion O   0.510400508177233   0.259204117859895  -0.012655505858989 1
ion O   0.517474698543400   0.493493592462690   0.755843005652850 1
ion O   0.496984661817475   0.748451822072154   0.512364528801167 1
ion O   0.755428115291110   0.746873973022070   0.227775513932177 1
ion O  -0.013384540912224   0.735668995786344  -0.010381197114297 1
ion O  -0.006368994566250   0.503745335732239   0.248613917757667 1
ion O   0.238475627204356   0.757326509226663   0.747212849586181 1
ion O   0.730718842629998   0.000754434644485  -0.009096788591368 1
ion O   0.250596361704633  -0.009505893022295   0.499252433106235 1
ion O   0.755691674507788   0.523045599405142   0.487731638046372 1
ion O   0.012468905700546   0.250519518958056  -0.004816861066316 1
ion O   0.743617597826740  -0.003364855071118   0.477493048539138 1
ion O   0.742873375148170   0.238286143060715   0.260301983990109 1
ion O   0.495676181807613   0.249136921565118   0.479302818444589 1
ion O   0.491386770974290   0.495726377612491   0.238705677800307 1
ion O   0.239590462881643   0.255907968941485   0.734205151897443 1
ion O   0.483685558459753   0.737662071544241  -0.010839429720410 1
ion O   0.258152712885779   0.007765980844895   0.009393627619083 1
ion O   0.256692812370106   0.746373729405852   0.236860912740888 1
ion O  -0.002605533585231   0.481702048007648   0.741538726575152 1
ion O   0.010040112020465   0.020853781225912   0.255361577799098 1
ion O   0.239759601354221   0.479732049020155   0.488208578360282 1
ion Sc   0.751786082041859   0.721586962429569   0.984446269312605 1
ion Sc   0.506388666528755   0.239371501193084   0.750347628911563 1
ion Sc   0.760868157894709   0.520709170998452   0.245266074006983 1
ion Sc   0.969384151420781   0.737444236341958   0.739553731268180 1
ion Sc   0.723350839237891   0.962854690317538   0.752041446657204 1
ion Sc   0.241244205731709   0.767013884313632   0.525326665472144 1
ion Sc   0.744480678897913   0.248196389403298   0.497911692093084 1
ion Sc  -0.000521937396251   0.253428605907005   0.234286313172455 1
ion Sc   0.249177681837670   0.011623607249839   0.245221230675477 1
ion Sc   0.495182677247310   0.747924805368999   0.245967998342389 1
ion Sc   0.246154414747976   0.497354002027143   0.749731438550082 1
ion Sc   0.256776200271981   0.257514038099836   0.001369017197177 1
ion Sc  -0.003131214470669   0.491898368085299  -0.006927887967582 1
ion Sc   0.502400191292767   0.001291691193367   0.016149545497762 1
ion Sc  -0.000493791016801  -0.002122375993126   0.488378018747164 1
ion Sc   0.483410269265907   0.494665179149488   0.498838057150203 1

# Forces in Lattice coordinates:
force O  -0.347185148492246  -0.186988176583269   0.524933393392070 1
force O  -0.085066316600696  -0.718906350816632   0.036333361670607 1
force O   0.562908962414316  -0.194304799352329  -0.195569260019777 1
force O   0.547479377246268   0.078471477885482  -0.174991512692787 1
force O  -0.200501555772497   0.064124031233420   0.555942077114988 1
force O   0.596298301076756  -0.713786030161376   0.146951202646170 1
force O  -0.430271687935187   0.058881119544777  -0.120389783783416 1
force O  -0.530925125947673   0.717425551839089  -0.056048438809144 1
force O  -0.113290409517395   0.483974485872001  -0.451263350918391 1
force O   0.285982376317002  -0.348545273523412  -0.468931073220901 1
force O  -0.056692256365976  -0.408789341791318   0.586120132649765 1
force O  -0.008742840772082   0.382448083252976   0.187358361155703 1
force O   0.386886044467097   0.014356870477540   0.265862828368348 1
force O  -0.110489475584462   0.516532880636667  -0.465261850827385 1
force O   0.177199902298407  -0.413710767126552   0.269591868444751 1
force O   0.050358771195818  -0.106601540957974  -0.511215101988465 1
force O  -0.750070166832927   0.258030906015623   0.038022307036332 1
force O  -0.636967393784298   0.266967339029545   0.307902333113265 1
force O  -0.569274806188740  -0.033765201672632   0.643694840436194 1
force O  -0.222373845491751   0.260027904356805   0.617080683103859 1
force O   0.399262876434642   0.173495733693272  -0.605309217659816 1
force O   0.377231623518443  -0.415473904786953  -0.023329932379117 1
force O   0.215819110027260   0.503135215598984  -0.235396405273364 1
force O  -0.147221855713515  -0.482420718669068   0.247237111450951 1
force Sc  -1.010349860313849   1.054160378309985   0.645643984807628 1
force Sc  -0.716607133337186   0.701740574257986  -0.645596382673007 1
force Sc  -0.694940873582834  -0.915356395973265   0.751887001897793 1
force Sc   1.019067821047723  -0.353834094997354   0.199567746570520 1
force Sc   0.899731216238323   1.182311912856406  -1.139610202142470 1
force Sc   0.920646833927544  -0.888131225603004  -0.925657518519103 1
force Sc  -0.258513204555811   0.227083913763138   0.467914893748949 1
force Sc  -0.730439328986618   0.326493039500543  -0.066405166556287 1
force Sc  -0.359578455478916  -0.796916000113899   0.598929091895148 1
force Sc   0.490902805495556  -0.417709714686153   0.386084464049341 1
force Sc   0.415158324275605   0.524654716601128  -0.617588684249763 1
force Sc   0.591705560866274  -0.610358745417480  -0.697659969423664 1
force Sc   0.194670683512149  -0.132512315431353   0.027409214946163 1
force Sc  -0.102392343627261   0.116771967552736  -0.076608013565788 1
force Sc  -0.264994059170343   0.284580523541551   0.184730765082159 1
force Sc   0.215655539388508  -0.057082486937887  -0.212847667054103 1

# Energy components:
   Eewald =     -854.9913166717406057
       EH =      253.2465731650509895
     Eloc =     -756.1145570700789449
      Enl =      130.3585884012183556
      Exc =     -193.3816866869263436
 Exc_core =        6.4609886840213875
       KE =      277.2535999143597110
-------------------------------------
     Etot =    -1137.1678102640951238
       TS =        0.0141481849124406
-------------------------------------
        F =    -1137.1819584490076522

IonicMinimize: Iter:   3  F: -1137.181958449007652  |grad|_K:  3.052e-02  alpha:  1.423e-01  linmin: -9.836e-01  t[s]:   6431.79

#--- Lowdin population analysis ---
# oxidation-state O -0.384 -0.397 -0.384 -0.362 -0.365 -0.355 -0.366 -0.389 -0.370 -0.356 -0.376 -0.368 -0.385 -0.403 -0.392 -0.393 -0.391 -0.396 -0.398 -0.391 -0.404 -0.398 -0.402 -0.391
# oxidation-state Sc +0.564 +0.558 +0.586 +0.564 +0.585 +0.611 +0.590 +0.602 +0.601 +0.579 +0.597 +0.608 +0.634 +0.623 +0.648 +0.607


-------- Electronic minimization -----------
Will mix electronic density at each iteration.
	FillingsUpdate:  mu: +0.371045882  nElectrons: 320.000000
	FillingsUpdate:  mu: +0.374899779  nElectrons: 320.000000
SCF: Cycle:  0   F: -1137.014925245122186   dF: -2.596e-01   |Residual|: 5.533e-01   |deigs|: 1.748e-03  t[s]:   6553.46
	FillingsUpdate:  mu: +0.374571140  nElectrons: 320.000000
SCF: Cycle:  1   F: -1137.246180967257260   dF: -2.313e-01   |Residual|: 1.615e-01   |deigs|: 2.738e-03  t[s]:   6640.17
	FillingsUpdate:  mu: +0.373062394  nElectrons: 320.000000
SCF: Cycle:  2   F: -1137.264141859492156   dF: -1.796e-02   |Residual|: 6.768e-02   |deigs|: 1.125e-03  t[s]:   6726.46
	FillingsUpdate:  mu: +0.373544823  nElectrons: 320.000000
SCF: Cycle:  3   F: -1137.269034003078787   dF: -4.892e-03   |Residual|: 3.807e-02   |deigs|: 6.560e-04  t[s]:   6806.89
	FillingsUpdate:  mu: +0.373096404  nElectrons: 320.000000
SCF: Cycle:  4   F: -1137.269842897332182   dF: -8.089e-04   |Residual|: 6.345e-03   |deigs|: 2.598e-04  t[s]:   6882.87
	FillingsUpdate:  mu: +0.373085595  nElectrons: 320.000000
SCF: Cycle:  5   F: -1137.269907175382059   dF: -6.428e-05   |Residual|: 3.742e-03   |deigs|: 7.984e-05  t[s]:   6937.42
	FillingsUpdate:  mu: +0.373043327  nElectrons: 320.000000
SCF: Cycle:  6   F: -1137.269926285006704   dF: -1.911e-05   |Residual|: 1.416e-03   |deigs|: 3.487e-05  t[s]:   6991.95
	FillingsUpdate:  mu: +0.373034046  nElectrons: 320.000000
SCF: Cycle:  7   F: -1137.269928902552238   dF: -2.618e-06   |Residual|: 4.950e-04   |deigs|: 1.779e-05  t[s]:   7046.31
	FillingsUpdate:  mu: +0.373031785  nElectrons: 320.000000
SCF: Cycle:  8   F: -1137.269929261537300   dF: -3.590e-07   |Residual|: 1.872e-04   |deigs|: 5.320e-06  t[s]:   7100.50
	FillingsUpdate:  mu: +0.373031707  nElectrons: 320.000000
SCF: Cycle:  9   F: -1137.269929307531129   dF: -4.599e-08   |Residual|: 7.643e-05   |deigs|: 2.186e-06  t[s]:   7155.69
	FillingsUpdate:  mu: +0.373031144  nElectrons: 320.000000
SCF: Cycle: 10   F: -1137.269929311846681   dF: -4.316e-09   |Residual|: 2.772e-05   |deigs|: 8.250e-07  t[s]:   7210.23
	FillingsUpdate:  mu: +0.373031020  nElectrons: 320.000000
SCF: Cycle: 11   F: -1137.269929312487648   dF: -6.410e-10   |Residual|: 8.573e-06   |deigs|: 4.924e-07  t[s]:   7264.80
SCF: Converged (|Delta E|<1.000000e-08 for 2 iters).

Setting wave functions to eigenvectors of Hamiltonian
IonicMinimize: 	Wolfe criterion not satisfied: alpha: 0.0538582  (E-E0)/|gdotd0|: -0.0520834  gdotd/gdotd0: 0.932885 (taking cubic step)

-------- Electronic minimization -----------
Will mix electronic density at each iteration.
	FillingsUpdate:  mu: +0.373031020  nElectrons: 320.000000
	FillingsUpdate:  mu: +0.379140438  nElectrons: 320.000000
SCF: Cycle:  0   F: -1136.438278670837917   dF: -1.078e+00   |Residual|: 1.108e+00   |deigs|: 7.016e-03  t[s]:   7398.22
	FillingsUpdate:  mu: +0.377447362  nElectrons: 320.000000
SCF: Cycle:  1   F: -1137.331585811826471   dF: -8.933e-01   |Residual|: 3.218e-01   |deigs|: 8.607e-03  t[s]:   7485.82
	FillingsUpdate:  mu: +0.376773865  nElectrons: 320.000000
SCF: Cycle:  2   F: -1137.407591715110811   dF: -7.601e-02   |Residual|: 1.279e-01   |deigs|: 2.416e-03  t[s]:   7572.45
	FillingsUpdate:  mu: +0.377167406  nElectrons: 320.000000
SCF: Cycle:  3   F: -1137.422484547621934   dF: -1.489e-02   |Residual|: 7.250e-02   |deigs|: 8.251e-04  t[s]:   7657.06
	FillingsUpdate:  mu: +0.376720951  nElectrons: 320.000000
SCF: Cycle:  4   F: -1137.425622666972458   dF: -3.138e-03   |Residual|: 1.229e-02   |deigs|: 4.146e-04  t[s]:   7743.44
	FillingsUpdate:  mu: +0.376631860  nElectrons: 320.000000
SCF: Cycle:  5   F: -1137.425926713374793   dF: -3.040e-04   |Residual|: 5.883e-03   |deigs|: 1.524e-04  t[s]:   7798.23
	FillingsUpdate:  mu: +0.376607479  nElectrons: 320.000000
SCF: Cycle:  6   F: -1137.425972045694834   dF: -4.533e-05   |Residual|: 2.657e-03   |deigs|: 5.193e-05  t[s]:   7852.25
	FillingsUpdate:  mu: +0.376596762  nElectrons: 320.000000
SCF: Cycle:  7   F: -1137.425984287690198   dF: -1.224e-05   |Residual|: 9.309e-04   |deigs|: 3.598e-05  t[s]:   7906.54
	FillingsUpdate:  mu: +0.376591862  nElectrons: 320.000000
SCF: Cycle:  8   F: -1137.425985709425504   dF: -1.422e-06   |Residual|: 2.550e-04   |deigs|: 1.226e-05  t[s]:   7961.19
	FillingsUpdate:  mu: +0.376590681  nElectrons: 320.000000
SCF: Cycle:  9   F: -1137.425985765863516   dF: -5.644e-08   |Residual|: 1.338e-04   |deigs|: 2.512e-06  t[s]:   8016.07
	FillingsUpdate:  mu: +0.376589688  nElectrons: 320.000000
SCF: Cycle: 10   F: -1137.425985781235113   dF: -1.537e-08   |Residual|: 4.064e-05   |deigs|: 1.406e-06  t[s]:   8070.75
	FillingsUpdate:  mu: +0.376589464  nElectrons: 320.000000
SCF: Cycle: 11   F: -1137.425985782932457   dF: -1.697e-09   |Residual|: 1.323e-05   |deigs|: 7.596e-07  t[s]:   8125.45
	FillingsUpdate:  mu: +0.376589423  nElectrons: 320.000000
SCF: Cycle: 12   F: -1137.425985783132774   dF: -2.003e-10   |Residual|: 7.147e-06   |deigs|: 5.563e-07  t[s]:   8180.28
SCF: Converged (|Delta E|<1.000000e-08 for 2 iters).

Setting wave functions to eigenvectors of Hamiltonian

# Ionic positions in lattice coordinates:
ion O   0.735091429888497   0.236901418820386   0.757366863449269 1
ion O  -0.014279796888456  -0.020246657947323   0.735512015432480 1
ion O   0.514860010464748   0.258410170455262  -0.013532471033992 1
ion O   0.520199724181536   0.495703556731862   0.755507437183570 1
ion O   0.500050191577998   0.753322290350081   0.521244220125179 1
ion O   0.760743518915791   0.742966569336018   0.231765962522480 1
ion O  -0.020358711715786   0.732396446690722  -0.014577765813860 1
ion O  -0.008682828055553   0.509564840811977   0.249417810569237 1
ion O   0.237411479790226   0.760535880806094   0.744374976611505 1
ion O   0.728223408533215  -0.006793047830029  -0.017365245350903 1
ion O   0.249624334304629  -0.012866369961899   0.503834006112225 1
ion O   0.759454058127133   0.530403081094174   0.494858064254547 1
ion O   0.020368533304776   0.255335760158214   0.001072639393452 1
ion O   0.744188182512270   0.000665155777094   0.474882822060573 1
ion O   0.744305388514968   0.235070087918761   0.262021450443957 1
ion O   0.491357247746702   0.244228716508871   0.471429806634836 1
ion O   0.482076370629015   0.492499162108941   0.235033901171931 1
ion O   0.234227563778668   0.257271528972757   0.735886594755132 1
ion O   0.480956005921378   0.739275243339685  -0.004743666741231 1
ion O   0.261738582321376   0.013670848119132   0.017846415218174 1
ion O   0.259533654501092   0.747574701086098   0.232293955447952 1
ion O   0.001014811550227   0.478732914955793   0.742290743436593 1
ion O   0.013625018549102   0.026696863155349   0.258094184070596 1
ion O   0.235532120920303   0.473150900666979   0.486070228158910 1
ion Sc   0.753625274556113   0.737752856745138   0.994905034802227 1
ion Sc   0.497004884687454   0.240427026805572   0.741874242106275 1
ion Sc   0.749678061384753   0.507561673602538   0.243830130833272 1
ion Sc   0.983055604872168   0.739698069665008   0.746592970890291 1
ion Sc   0.736472853455288   0.978896827057958   0.749271736317818 1
ion Sc   0.241686280877128   0.754731565379128   0.510052379361027 1
ion Sc   0.744695377817765   0.252947084363884   0.503593021886903 1
ion Sc  -0.008498355147696   0.253711848085518   0.231067425645863 1
ion Sc   0.243700893287975   0.001715206355963   0.245888334738055 1
ion Sc   0.499804890730984   0.747272246956099   0.250490999587480 1
ion Sc   0.251430071693161   0.503102537636861   0.747889763220139 1
ion Sc   0.255875373563303   0.248766620261135  -0.007909836811111 1
ion Sc  -0.001460689864490   0.492500790010760  -0.005925778527418 1
ion Sc   0.501683960102480   0.001499486414904   0.014720667813284 1
ion Sc  -0.000683846317000   0.000058240922459   0.491218497064044 1
ion Sc   0.484739064926759   0.493607857612080   0.496515462959234 1

# Forces in Lattice coordinates:
force O  -0.361921009612878  -0.071149935749091   0.406791583780880 1
force O  -0.053614246378112  -0.544931206234366   0.029582360466534 1
force O   0.443264254303818  -0.168440822211814  -0.220867136230479 1
force O   0.475794393224236   0.164830766619737  -0.111271482834947 1
force O  -0.127867852236572   0.034259206357024   0.402044511114661 1
force O   0.464672254973932  -0.608090907878648   0.171047267472630 1
force O  -0.399008515216166   0.038043527553432  -0.044981309565585 1
force O  -0.414519366618512   0.544883222560855  -0.063789534860498 1
force O   0.034428023351767   0.420047341813170  -0.547806611262841 1
force O   0.272955641757907  -0.252913936143957  -0.471130814469040 1
force O  -0.063741053878941  -0.319428424927392   0.451031361764050 1
force O  -0.069507929878802   0.258200430655716   0.201295943957516 1
force O   0.307462437129923   0.058348249956213   0.188489949100454 1
force O  -0.101524148802719   0.437457148517440  -0.351469648771576 1
force O   0.112158412683977  -0.305199875510375   0.234886158448458 1
force O   0.005884992933730  -0.098388066759741  -0.359813604776117 1
force O  -0.584128228731951   0.139369971534565   0.065463003398210 1
force O  -0.477081664486659   0.220670600115346   0.227535335349895 1
force O  -0.451996675906054  -0.018352976419477   0.552797571107432 1
force O  -0.147229102002740   0.146993416564681   0.508028276673219 1
force O   0.299413923703455   0.115128060789918  -0.436799962300245 1
force O   0.315256882195834  -0.355571091488669   0.019816157711144 1
force O   0.125517836717151   0.389528301637359  -0.134581372878364 1
force O  -0.067194249472665  -0.372932406808630   0.116837606331022 1
force Sc  -0.864071697896687   0.857580648511635   0.454151737554304 1
force Sc  -0.525934553628749   0.547972119841023  -0.485932758678510 1
force Sc  -0.547336784063672  -0.665457002495776   0.586234342253167 1
force Sc   0.802335660221969  -0.278669343283189   0.174643899254120 1
force Sc   0.697860759355311   0.919982893628879  -0.832764018034183 1
force Sc   0.721864505536520  -0.755602929607751  -0.603680272062626 1
force Sc  -0.191336805497086   0.195315678457451   0.352583830499267 1
force Sc  -0.534857615183055   0.194830234114902  -0.063630589984212 1
force Sc  -0.321000353824486  -0.611255495030287   0.447832790397978 1
force Sc   0.439940010178231  -0.349621338874960   0.296448102076092 1
force Sc   0.345824476840868   0.419216232208973  -0.482134130533706 1
force Sc   0.404327540214129  -0.478253695597009  -0.511756654980596 1
force Sc   0.114290308476115  -0.077146571349640   0.006255288511895 1
force Sc  -0.035473779519080   0.068698560050570  -0.136476777736560 1
force Sc  -0.201024992828382   0.160523036584841   0.132385408108013 1
force Sc   0.157164265634645   0.000059979016072  -0.166431768768632 1

# Energy components:
   Eewald =     -853.5051415709364164
       EH =      254.4367946147284840
     Eloc =     -758.9004730498038498
      Enl =      130.2701443361136171
      Exc =     -193.4583322327749499
 Exc_core =        6.4609911305034364
       KE =      277.2753057819554670
-------------------------------------
     Etot =    -1137.4207109902140473
       TS =        0.0052747929187234
-------------------------------------
        F =    -1137.4259857831327736

IonicMinimize: Iter:   4  F: -1137.425985783132774  |grad|_K:  2.398e-02  alpha:  1.616e-01  linmin: -9.739e-01  t[s]:   8191.79

#--- Lowdin population analysis ---
# oxidation-state O -0.401 -0.410 -0.397 -0.387 -0.387 -0.372 -0.382 -0.400 -0.394 -0.386 -0.390 -0.388 -0.398 -0.409 -0.402 -0.399 -0.402 -0.403 -0.402 -0.400 -0.410 -0.402 -0.409 -0.400
# oxidation-state Sc +0.595 +0.584 +0.599 +0.578 +0.601 +0.626 +0.602 +0.612 +0.608 +0.593 +0.605 +0.615 +0.662 +0.653 +0.671 +0.648


-------- Electronic minimization -----------
Will mix electronic density at each iteration.
	FillingsUpdate:  mu: +0.376589423  nElectrons: 320.000000
	FillingsUpdate:  mu: +0.378430748  nElectrons: 320.000000
SCF: Cycle:  0   F: -1137.261202614165995   dF: -3.465e-01   |Residual|: 5.741e-01   |deigs|: 1.919e-03  t[s]:   8313.20
	FillingsUpdate:  mu: +0.378446662  nElectrons: 320.000000
SCF: Cycle:  1   F: -1137.475455126245379   dF: -2.143e-01   |Residual|: 1.682e-01   |deigs|: 2.543e-03  t[s]:   8399.79
	FillingsUpdate:  mu: +0.377925056  nElectrons: 320.000000
SCF: Cycle:  2   F: -1137.492960992497046   dF: -1.751e-02   |Residual|: 6.471e-02   |deigs|: 1.063e-03  t[s]:   8485.71
	FillingsUpdate:  mu: +0.378249555  nElectrons: 320.000000
SCF: Cycle:  3   F: -1137.495991361015058   dF: -3.030e-03   |Residual|: 3.571e-02   |deigs|: 4.927e-04  t[s]:   8565.88
	FillingsUpdate:  mu: +0.378056704  nElectrons: 320.000000
SCF: Cycle:  4   F: -1137.496610140685561   dF: -6.188e-04   |Residual|: 5.871e-03   |deigs|: 2.446e-04  t[s]:   8620.20
	FillingsUpdate:  mu: +0.378066804  nElectrons: 320.000000
SCF: Cycle:  5   F: -1137.496671649580776   dF: -6.151e-05   |Residual|: 2.769e-03   |deigs|: 7.458e-05  t[s]:   8674.48
	FillingsUpdate:  mu: +0.378045195  nElectrons: 320.000000
SCF: Cycle:  6   F: -1137.496680750729638   dF: -9.101e-06   |Residual|: 1.298e-03   |deigs|: 2.562e-05  t[s]:   8728.57
	FillingsUpdate:  mu: +0.378048389  nElectrons: 320.000000
SCF: Cycle:  7   F: -1137.496683720374904   dF: -2.970e-06   |Residual|: 4.757e-04   |deigs|: 1.657e-05  t[s]:   8782.98
	FillingsUpdate:  mu: +0.378047852  nElectrons: 320.000000
SCF: Cycle:  8   F: -1137.496683962582438   dF: -2.422e-07   |Residual|: 1.391e-04   |deigs|: 3.760e-06  t[s]:   8837.34
	FillingsUpdate:  mu: +0.378047878  nElectrons: 320.000000
SCF: Cycle:  9   F: -1137.496683983512185   dF: -2.093e-08   |Residual|: 6.479e-05   |deigs|: 1.360e-06  t[s]:   8892.04
	FillingsUpdate:  mu: +0.378047515  nElectrons: 320.000000
SCF: Cycle: 10   F: -1137.496683987182223   dF: -3.670e-09   |Residual|: 2.027e-05   |deigs|: 6.698e-07  t[s]:   8946.46
	FillingsUpdate:  mu: +0.378047443  nElectrons: 320.000000
SCF: Cycle: 11   F: -1137.496683987615825   dF: -4.336e-10   |Residual|: 6.400e-06   |deigs|: 4.060e-07  t[s]:   9001.65
SCF: Converged (|Delta E|<1.000000e-08 for 2 iters).

Setting wave functions to eigenvectors of Hamiltonian

# Ionic positions in lattice coordinates:
ion O   0.733662566854412   0.236840016347522   0.758282707524624 1
ion O  -0.016003447067667  -0.023034360672544   0.734201479906681 1
ion O   0.515517066670463   0.257098252947879  -0.015064888877220 1
ion O   0.521148503692680   0.497395745858797   0.755543824696642 1
ion O   0.501007003009825   0.754363331713718   0.523356485785919 1
ion O   0.762375308380952   0.740901784521364   0.233616433364555 1
ion O  -0.023072162893145   0.731040927034876  -0.015649189286152 1
ion O  -0.010002633756200   0.510975814310388   0.248973532403939 1
ion O   0.238074612460509   0.761452831339107   0.741731230351548 1
ion O   0.727734474406440  -0.009095328044970  -0.020888803701671 1
ion O   0.248930719759425  -0.014243600473135   0.505006890863277 1
ion O   0.759530691133106   0.531815417301012   0.497198551120931 1
ion O   0.023434825760862   0.257898168782173   0.003326316609205 1
ion O   0.744447391354831   0.002766581134527   0.474404886218858 1
ion O   0.744641177422680   0.234313746363012   0.262945890115992 1
ion O   0.489441816562265   0.242303013366303   0.469048377255248 1
ion O   0.478731344360690   0.490644873748138   0.233939393184963 1
ion O   0.232869324160415   0.258229834157272   0.736489594224134 1
ion O   0.480247039577501   0.740330801862212  -0.001694603493243 1
ion O   0.263152439346731   0.015076434531131   0.021054130319123 1
ion O   0.260335478419248   0.747730713478959   0.231081737538419 1
ion O   0.002683682582544   0.477637159763702   0.743080454185593 1
ion O   0.014533913033533   0.028974644498781   0.259371938467721 1
ion O   0.234204553691268   0.470745570672954   0.484473970526518 1
ion Sc   0.754225994949662   0.744211380044773   0.998728574102061 1
ion Sc   0.494208106639863   0.241169918265903   0.739450948913191 1
ion Sc   0.746311313391103   0.504207232928177   0.243798606118060 1
ion Sc   0.988079875720054   0.740921390485728   0.749583588449533 1
ion Sc   0.741371747976388   0.984600494822618   0.749124014089998 1
ion Sc   0.242512829235364   0.750831042406590   0.506225661532863 1
ion Sc   0.745158357423305   0.255001914730325   0.505865984323383 1
ion Sc  -0.011479340352722   0.252443460375585   0.229238672519417 1
ion Sc   0.240713574597019  -0.002147809144335   0.245355859657286 1
ion Sc   0.502587466306367   0.747205680655682   0.252508544717260 1
ion Sc   0.253877910928617   0.505477592194622   0.747608546431252 1
ion Sc   0.254693329503723   0.245391923204486  -0.011132807174558 1
ion Sc  -0.001504916532701   0.492690854960678  -0.005981215020167 1
ion Sc   0.501315511951938   0.000794344597021   0.012828259793971 1
ion Sc  -0.001370231784821  -0.000372019575004   0.491506528243799 1
ion Sc   0.485742781123473   0.494130224503972   0.496119893997049 1

# Forces in Lattice coordinates:
force O  -0.327985187475334  -0.045034340283982   0.365978598152918 1
force O  -0.026546396240597  -0.496319122903503   0.023326687432774 1
force O   0.391940658159619  -0.167598708223526  -0.192502618566999 1
force O   0.441834070141050   0.192832136051241  -0.078387859314613 1
force O  -0.072873205481296   0.045452640960486   0.362026428168600 1
force O   0.406152563005644  -0.507512563561106   0.143543396444750 1
force O  -0.394888703566087   0.057256654959339  -0.035025331410150 1
force O  -0.390703316658009   0.479360175151341  -0.055220011327521 1
force O   0.038817816530826   0.366508383054355  -0.456351887052825 1
force O   0.240248699038500  -0.225014560648972  -0.418110429643934 1
force O  -0.077485620391428  -0.295343486511784   0.417155974881807 1
force O  -0.050617924379865   0.236405516518890   0.212947750395489 1
force O   0.275969417983218   0.044130094350117   0.154884911105152 1
force O  -0.071519070700856   0.381685909055083  -0.308772874544314 1
force O   0.097813131561316  -0.288148824008525   0.197813305610527 1
force O  -0.008348129168752  -0.091909005760328  -0.319998513661340 1
force O  -0.516532899867488   0.107090659956149   0.047835108861579 1
force O  -0.435564962649111   0.203211325323526   0.196929844973011 1
force O  -0.391461405836834   0.001811619369978   0.486320213962762 1
force O  -0.114063339012009   0.103667205440153   0.435281937223774 1
force O   0.296805000992705   0.083664886349298  -0.401394524243250 1
force O   0.303763166019186  -0.300973666306572   0.011198258341774 1
force O   0.080701677223309   0.335271923298655  -0.102820136501486 1
force O  -0.064805874506783  -0.336737702742870   0.090279014045173 1
force Sc  -0.789420683032515   0.736996081490397   0.400498202615604 1
force Sc  -0.483430626105063   0.510914041029316  -0.460634048874328 1
force Sc  -0.474636055086370  -0.649909467128021   0.549259849077637 1
force Sc   0.703134372580353  -0.269691311553680   0.156804645123740 1
force Sc   0.612818793850184   0.823630346041448  -0.781329438665797 1
force Sc   0.667207343641296  -0.657477009723914  -0.607421487318412 1
force Sc  -0.203492296377721   0.200548689882778   0.306835836804497 1
force Sc  -0.487133313827906   0.215730182910502  -0.051995924800873 1
force Sc  -0.262016458830798  -0.566215572800633   0.427795024423631 1
force Sc   0.350729018016181  -0.309923104112418   0.297941167017700 1
force Sc   0.326116650590233   0.358627166530939  -0.441635311262800 1
force Sc   0.371173239146070  -0.422106163299780  -0.457364266469892 1
[...]
force O   0.000109536407717  -0.000674634450143   0.000901112247867 1
force O   0.001362903707771  -0.000685497230026   0.001995115885814 1
force O   0.001411679513206  -0.001106068499995  -0.001910557881092 1
force O   0.000148871527092   0.000728844939991  -0.000209334152421 1
force O  -0.000749337638299  -0.001799438343652  -0.000259467039724 1
force O   0.000936851049202  -0.000490790563115  -0.000524997556034 1
force O  -0.000982028452189  -0.001514468954484   0.002026100465345 1
force O  -0.002484330413711   0.001179595060027   0.001043871368135 1
force O  -0.000532545960565   0.000142303105444   0.000246196705549 1
force O   0.001543534586456  -0.001896075446382  -0.001456054150907 1
force O   0.000929171629198  -0.000874067109939   0.000358862566548 1
force O  -0.001699633759493   0.001669790122949   0.001973449988915 1
force O  -0.001727160274333   0.001953537155973  -0.000988728480561 1
force O  -0.000669041976503  -0.000339464624615   0.000204660424794 1
force O   0.001204141747270   0.000609635070409  -0.002288056449704 1
force O   0.000081338808132   0.000048174881395   0.001173623379072 1
force O   0.000749264571416  -0.000125505943261  -0.000311097029695 1
force O  -0.002387746196869   0.001648087492739   0.001220769151628 1
force O   0.000447110514996  -0.000401802034613   0.000912588477159 1
force O  -0.000810298900421  -0.000013723517363  -0.000926713737086 1
force O  -0.002765330656158  -0.000505123906446   0.002424229651454 1
force O  -0.001002429826096   0.000314980197852  -0.000359245349558 1
force O   0.000441219919667  -0.002154421877232   0.000292551472870 1
force Sc  -0.000805354670491   0.002632611788943   0.000535258981224 1
force Sc  -0.003293076562580   0.003610765787576  -0.001185216404218 1
force Sc   0.000739396988116   0.000459267103624  -0.001213021487587 1
force Sc   0.001553293984152   0.002584361099688  -0.001750823071480 1
force Sc   0.003255358088496   0.000766138323415  -0.002521426211820 1
force Sc   0.000070537747020  -0.001139061907224   0.001573403497798 1
force Sc  -0.000483589903437  -0.001304825815157   0.000652231829656 1
force Sc   0.003428482937006  -0.001434937135975   0.000329994774832 1
force Sc   0.000565204787089   0.000772560892507   0.001379347465387 1
force Sc  -0.000161970561645   0.001385594962863  -0.000764189325286 1
force Sc   0.002878981486684  -0.001831964479877  -0.000197953200862 1
force Sc  -0.000915632929981   0.001871154458341  -0.004456360506309 1
force Sc  -0.001647727793094  -0.001367340320759   0.001606644196930 1
force Sc  -0.000476496448185   0.000110415628812  -0.004352269107165 1
force Sc   0.002226069860405  -0.002065323625749   0.002167307462151 1
force Sc  -0.001966045412073   0.000750227454770   0.003575852605541 1

# Energy components:
   Eewald =     -848.2897261325531417
       EH =      257.9778907449726830
     Eloc =     -767.5798985713514639
      Enl =      130.1273584591654924
      Exc =     -193.4761022616179105
 Exc_core =        6.4610068157975000
       KE =      276.9627750278606868
-------------------------------------
     Etot =    -1137.8166959177262925
       TS =        0.0005552511059348
-------------------------------------
        F =    -1137.8172511688321720

IonicMinimize: Iter:  18  F: -1137.817251168832172  |grad|_K:  1.008e-04  alpha:  1.000e+00  linmin: -6.103e-02  t[s]:  18480.30

#--- Lowdin population analysis ---
# oxidation-state O -0.414 -0.414 -0.414 -0.414 -0.414 -0.414 -0.414 -0.414 -0.414 -0.414 -0.414 -0.414 -0.414 -0.414 -0.414 -0.414 -0.414 -0.415 -0.414 -0.414 -0.414 -0.414 -0.414 -0.414
# oxidation-state Sc +0.638 +0.638 +0.638 +0.638 +0.638 +0.638 +0.638 +0.637 +0.637 +0.637 +0.637 +0.637 +0.648 +0.648 +0.648 +0.648


-------- Electronic minimization -----------
Will mix electronic density at each iteration.
	FillingsUpdate:  mu: +0.385389984  nElectrons: 320.000000
	FillingsUpdate:  mu: +0.385388736  nElectrons: 320.000000
SCF: Cycle:  0   F: -1137.817247779278432   dF: -2.343e-06   |Residual|: 1.469e-03   |deigs|: 2.025e-07  t[s]:  18572.01
	FillingsUpdate:  mu: +0.385388614  nElectrons: 320.000000
SCF: Cycle:  1   F: -1137.817252773501650   dF: -4.994e-06   |Residual|: 7.038e-04   |deigs|: 9.003e-06  t[s]:  18626.17
	FillingsUpdate:  mu: +0.385388703  nElectrons: 320.000000
SCF: Cycle:  2   F: -1137.817253221002829   dF: -4.475e-07   |Residual|: 2.264e-04   |deigs|: 2.582e-06  t[s]:  18680.37
	FillingsUpdate:  mu: +0.385388696  nElectrons: 320.000000
SCF: Cycle:  3   F: -1137.817253456029448   dF: -2.350e-07   |Residual|: 1.088e-04   |deigs|: 2.108e-06  t[s]:  18735.01
	FillingsUpdate:  mu: +0.385388600  nElectrons: 320.000000
SCF: Cycle:  4   F: -1137.817253488056167   dF: -3.203e-08   |Residual|: 3.657e-05   |deigs|: 8.811e-07  t[s]:  18789.90
	FillingsUpdate:  mu: +0.385388659  nElectrons: 320.000000
SCF: Cycle:  5   F: -1137.817253491061138   dF: -3.005e-09   |Residual|: 1.937e-05   |deigs|: 2.970e-07  t[s]:  18844.17
	FillingsUpdate:  mu: +0.385388611  nElectrons: 320.000000
SCF: Cycle:  6   F: -1137.817253491619340   dF: -5.582e-10   |Residual|: 5.913e-06   |deigs|: 1.461e-07  t[s]:  18898.92
SCF: Converged (|Delta E|<1.000000e-08 for 2 iters).

Setting wave functions to eigenvectors of Hamiltonian

# Ionic positions in lattice coordinates:
ion O   0.724028937419222   0.260399769833226   0.768869124684679 1
ion O  -0.013963146500423  -0.048621343266394   0.721905500345365 1
ion O   0.507144811002152   0.234509725472160  -0.040116115872907 1
ion O   0.542759108485215   0.533057041780704   0.767981867078893 1
ion O   0.532110909174088   0.770036322219132   0.541405793981476 1
ion O   0.770115563136762   0.724902002722458   0.258343295831536 1
ion O  -0.049416742009715   0.724005460061467  -0.015153126528752 1
ion O  -0.038929477087353   0.507998493374895   0.232368320161987 1
ion O   0.259584368641190   0.770982377495197   0.722792800013674 1
ion O   0.723144045799405  -0.013060407872024  -0.050660807634151 1
ion O   0.233606745023171  -0.038083979449641   0.505844397094970 1
ion O   0.769178716597529   0.543527732180389   0.530866399547255 1
ion O   0.042677967346653   0.270898799281104   0.005860527912974 1
ion O   0.759514540743970   0.033045420626548   0.484868967548535 1
ion O   0.733767151970272   0.224131286167802   0.268080273810140 1
ion O   0.460998375357714   0.224799110127235   0.449305477536551 1
ion O   0.450534796129759   0.461898956905241   0.222679435704002 1
ion O   0.223218114298288   0.270158877170745   0.732511881696558 1
ion O   0.486098460326776   0.760317833701328   0.030940906273328 1
ion O   0.270035367988650   0.007953887815848   0.041489871520868 1
ion O   0.269279681716788   0.734584321816647   0.221933500878654 1
ion O   0.032113026194729   0.486948173021946   0.758198350969783 1
ion O   0.007110648012278   0.043580465803681   0.268773673415643 1
ion O   0.223897076767596   0.451366978200671   0.459777355254945 1
ion Sc   0.746468187739978   0.783694301992642   1.031586809815252 1
ion Sc   0.460282660852635   0.247495805282840   0.709063047876047 1
ion Sc   0.710277048574503   0.461148586424928   0.245334802690763 1
ion Sc   1.032929278131256   0.747483098039950   0.781642123118102 1
ion Sc   0.782891189435057   1.033754113222290   0.745369200629039 1
ion Sc   0.246610686052458   0.711139911855060   0.459066707148710 1
ion Sc   0.746530133433655   0.283825581103066   0.531755240287741 1
ion Sc  -0.039799952548464   0.247494222010620   0.208943083148330 1
ion Sc   0.210218019569721  -0.038896354146211   0.245375974796014 1
ion Sc   0.532987725734442   0.747476285200098   0.281769369472460 1
ion Sc   0.283052500866760   0.533870401210019   0.745360266281793 1
ion Sc   0.246574432709065   0.211005455362487  -0.041074873696428 1
ion Sc  -0.003285301988352   0.497458594461552  -0.004653653371049 1
ion Sc   0.496618612382656  -0.002562921359285  -0.004488350077393 1
ion Sc  -0.003407190665767  -0.002382352438488   0.495405526976078 1
ion Sc   0.496512923185678   0.497377966588066   0.495337053678537 1

# Forces in Lattice coordinates:
force O  -0.001836888331772   0.000870127406694  -0.000547968699237 1
force O   0.000568168280462   0.000852846209994  -0.000569061027090 1
force O  -0.000083627196885   0.000795462002463  -0.002391441087364 1
force O  -0.002175768761232  -0.000515867023234   0.000191907207399 1
force O   0.000085286900807   0.000222051552068   0.000625906751007 1
force O  -0.000913934805023   0.000605744324196  -0.000284295533542 1
force O  -0.001728780983307   0.001189161842199  -0.000221866275674 1
force O  -0.000062753978973  -0.000232201758791   0.001124337256955 1
force O   0.000974872559744  -0.000945644488867   0.000235588614490 1
force O  -0.000489934240039   0.000294755059664  -0.000976128804079 1
force O   0.000819477691295  -0.000200294577132   0.001362351625960 1
force O  -0.000654844992135  -0.000217744856914   0.001152264334605 1
force O   0.000694011318367  -0.001176038911576  -0.000686131847837 1
force O  -0.000762862523648  -0.000141741423433   0.001157731043271 1
force O  -0.000775510675247  -0.000663762702782  -0.000138129086733 1
force O   0.000172255082528   0.000763567861805   0.001146299450892 1
force O  -0.000391529789626  -0.000286939919798   0.000855732849609 1
force O   0.001372619537812   0.000292728858084  -0.000981747102027 1
force O   0.000311366615473   0.001010273698201  -0.001837180534075 1
force O   0.000966815735095   0.001058246514422  -0.002714966881281 1
force O   0.000194359241984  -0.000702467520135   0.001461097944508 1
force O   0.002069491663338  -0.000246907618172  -0.000669218920002 1
force O  -0.000523062032598  -0.000914218989562   0.000616370013032 1
force O   0.001300792283857   0.000537535477321   0.000931739262150 1
force Sc   0.004649198593972   0.000683799864076   0.002987319971214 1
force Sc   0.000144114537951  -0.002658877448464   0.000557408626481 1
force Sc  -0.001177189613935  -0.000514811762908   0.001815506732854 1
force Sc  -0.000140804360003  -0.003347383013013   0.003415915687138 1
force Sc   0.000621522598516   0.001383064805761  -0.000643173389277 1
force Sc  -0.000162694956220   0.001266937705652  -0.002880478485450 1
force Sc   0.002361161338664   0.000795193001153  -0.001682242296900 1
force Sc   0.000433192840118  -0.001903558760689   0.001320551875056 1
force Sc  -0.002293545813525  -0.000870536411778   0.000578382624011 1
force Sc   0.000298545465904  -0.001753135373298   0.000598265765489 1
force Sc  -0.004936313269382   0.000483949826020   0.001784475573515 1
force Sc  -0.000520489038103   0.001071220063219   0.002647357960578 1
force Sc  -0.000663505956728   0.001775179716793  -0.000310596814923 1
force Sc  -0.000342585677685   0.002248437960614  -0.000884450609113 1
force Sc   0.001618891470021  -0.001082222512994  -0.003166321566799 1
force Sc   0.002343901138472   0.001557300053146  -0.004784088232230 1

# Energy components:
   Eewald =     -848.3042346646425358
       EH =      257.9632015659538524
     Eloc =     -767.5499826858947472
      Enl =      130.1271323749470525
      Exc =     -193.4757434603549768
 Exc_core =        6.4610068978759898
       KE =      276.9619218968496739
-------------------------------------
     Etot =    -1137.8166980752660038
       TS =        0.0005554163533838
-------------------------------------
        F =    -1137.8172534916193399

IonicMinimize: Iter:  19  F: -1137.817253491619340  |grad|_K:  1.008e-04  alpha:  1.000e+00  linmin:  3.556e-01  t[s]:  18910.51

#--- Lowdin population analysis ---
# oxidation-state O -0.414 -0.414 -0.414 -0.414 -0.414 -0.414 -0.414 -0.414 -0.414 -0.414 -0.414 -0.414 -0.414 -0.414 -0.414 -0.414 -0.414 -0.414 -0.414 -0.414 -0.414 -0.414 -0.414 -0.414
# oxidation-state Sc +0.638 +0.638 +0.637 +0.638 +0.638 +0.638 +0.637 +0.637 +0.637 +0.637 +0.638 +0.638 +0.648 +0.648 +0.648 +0.648


-------- Electronic minimization -----------
Will mix electronic density at each iteration.
	FillingsUpdate:  mu: +0.385388611  nElectrons: 320.000000
	FillingsUpdate:  mu: +0.385386476  nElectrons: 320.000000
SCF: Cycle:  0   F: -1137.817254180686405   dF: +2.983e-07   |Residual|: 6.317e-04   |deigs|: 6.058e-08  t[s]:  19001.09
	FillingsUpdate:  mu: +0.385386236  nElectrons: 320.000000
SCF: Cycle:  1   F: -1137.817255193963092   dF: -1.013e-06   |Residual|: 3.100e-04   |deigs|: 3.403e-06  t[s]:  19055.41
	FillingsUpdate:  mu: +0.385386496  nElectrons: 320.000000
SCF: Cycle:  2   F: -1137.817255285697456   dF: -9.173e-08   |Residual|: 8.844e-05   |deigs|: 8.724e-07  t[s]:  19110.01
	FillingsUpdate:  mu: +0.385386627  nElectrons: 320.000000
SCF: Cycle:  3   F: -1137.817255333798357   dF: -4.810e-08   |Residual|: 4.683e-05   |deigs|: 8.286e-07  t[s]:  19164.71
	FillingsUpdate:  mu: +0.385386730  nElectrons: 320.000000
SCF: Cycle:  4   F: -1137.817255340735073   dF: -6.937e-09   |Residual|: 1.625e-05   |deigs|: 4.044e-07  t[s]:  19219.15
	FillingsUpdate:  mu: +0.385386747  nElectrons: 320.000000
SCF: Cycle:  5   F: -1137.817255341265536   dF: -5.305e-10   |Residual|: 8.151e-06   |deigs|: 1.229e-07  t[s]:  19273.83
SCF: Converged (|Delta E|<1.000000e-08 for 2 iters).

Setting wave functions to eigenvectors of Hamiltonian

# Ionic positions in lattice coordinates:
ion O   0.724003881084736   0.260409705478413   0.768857541035377 1
ion O  -0.013951293413108  -0.048617747872240   0.721901300158366 1
ion O   0.507124102243978   0.234492622724496  -0.040152411014704 1
ion O   0.542722240713683   0.533045614720267   0.767968334551055 1
ion O   0.532130328984204   0.770045525584988   0.541418205775101 1
ion O   0.770107920800286   0.724901272521494   0.258351102378392 1
ion O  -0.049447657646051   0.724000927616155  -0.015161503199651 1
ion O  -0.038935982214129   0.508000024176106   0.232369963738201 1
ion O   0.259608002416551   0.770981770774535   0.722793155109746 1
ion O   0.723130957733674  -0.013066205171901  -0.050682690687762 1
ion O   0.233618988953728  -0.038079077877551   0.505868267241234 1
ion O   0.769175282686793   0.543526400707017   0.530885583921489 1
ion O   0.042671034120200   0.270876462997260   0.005838596313791 1
ion O   0.759513794146608   0.033058049693236   0.484887865148566 1
ion O   0.733750232363559   0.224117021792738   0.268072750269782 1
ion O   0.461003619204501   0.224808917612073   0.449320323861826 1
ion O   0.450527518040110   0.461884232061410   0.222682148253784 1
ion O   0.223225726092117   0.270166519149145   0.732510072819590 1
ion O   0.486109397793931   0.760330618660592   0.030938949732695 1
ion O   0.270029847316382   0.007943938450181   0.041464973864489 1
ion O   0.269291630698521   0.734585353833998   0.221953341384335 1
ion O   0.032145615655929   0.486962713881156   0.758208056373926 1
ion O   0.007093473417943   0.043567198169250   0.268771573400024 1
ion O   0.223919048920111   0.451391773121689   0.459782658508349 1
ion Sc   0.746556608581402   0.783762319037074   1.031672703259600 1
ion Sc   0.460258678901771   0.247466781892371   0.709049144508605 1
ion Sc   0.710260957833587   0.461134061569180   0.245347967635993 1
ion Sc   1.032943560160891   0.747458334975979   0.781673450562143 1
ion Sc   0.782914562777460   1.033785722945195   0.745372148929077 1
ion Sc   0.246598822317500   0.711128582853247   0.459023712792204 1
ion Sc   0.746559249782361   0.283850089707334   0.531762781714456 1
ion Sc  -0.039802185827012   0.247483960871822   0.208945031985706 1
ion Sc   0.210178756908590  -0.038929318913278   0.245365010820312 1
ion Sc   0.532994896783873   0.747456021448507   0.281772685270171 1
ion Sc   0.283010866636085   0.533866902340740   0.745351992103792 1
ion Sc   0.246587487221956   0.211023457731872  -0.041043471838364 1
ion Sc  -0.003285556733052   0.497474033631487  -0.004655783940201 1
ion Sc   0.496620477212550  -0.002546570274297  -0.004490895440105 1
ion Sc  -0.003411885940967  -0.002405014235827   0.495373905096444 1
ion Sc   0.496516993268750   0.497377001614087   0.495291457602165 1

# Forces in Lattice coordinates:
force O  -0.000160752064606   0.000705201532101  -0.000635947539397 1
force O   0.000782262431487   0.000231423610126  -0.000323134684449 1
force O  -0.000206707416282   0.000605956849212  -0.000672883076606 1
force O  -0.001341303742452  -0.000277638960976   0.000373835551807 1
force O   0.000186447460474   0.000445223855254  -0.000363026319016 1
force O  -0.000495695811700   0.000024551925008   0.000051007635483 1
force O  -0.000319272958426   0.000344383511311   0.000144282955584 1
force O  -0.000190360351807  -0.000282560262608   0.000773748449200 1
force O  -0.000072980209964  -0.000592223498762   0.000324747648631 1
force O   0.000060786541269   0.000473004956890  -0.000245185709574 1
force O   0.000443405702061  -0.000165245989587   0.000138017530946 1
force O   0.000297695049357  -0.000301817026539   0.000359738585061 1
force O  -0.000036320832468  -0.000107235793017  -0.000000133501799 1
force O  -0.000055753513902  -0.000199896069105   0.000244050550398 1
force O  -0.000366377263605  -0.000249749351454  -0.000212765131084 1
force O   0.000292545183911   0.000134257794105   0.000000798407280 1
force O  -0.000006382735967  -0.000061806339542   0.000436597165409 1
force O   0.000448060903631  -0.000261702673270  -0.000470167855559 1
force O  -0.000073714611102   0.000753751112568  -0.000538879516787 1
force O   0.000037059354793   0.000535321298115  -0.000960161366560 1
force O  -0.000414709328885  -0.000279148721923   0.000677029918458 1
force O   0.000320038123042  -0.000137157373544   0.000464950698620 1
force O  -0.000006740709688  -0.000725897928879   0.000399123867489 1
force O   0.000416565614851   0.000298886095932   0.000136794658571 1
force Sc   0.001276823205728   0.000592225170100   0.000936800189552 1
force Sc  -0.000102411781812  -0.000231262646270  -0.000328902638861 1
force Sc  -0.000169244489802  -0.000557802360772   0.000772414810307 1
force Sc  -0.000069769836658  -0.000665071333483   0.001073264175772 1
force Sc   0.000578062000521   0.000586431321796  -0.000513242902005 1
force Sc   0.000017496672178   0.000219675679832  -0.000877308187201 1
force Sc   0.000902092355875   0.000098938914943  -0.000797843909907 1
force Sc   0.000344875386553  -0.000759393671874   0.000654147523559 1
force Sc  -0.000131636130408   0.000043349686020  -0.000048083616441 1
force Sc   0.000026538512341  -0.000107276085143  -0.000148593649920 1
force Sc  -0.001074744065098  -0.000180262167650   0.000530529912698 1
force Sc  -0.000363377425271   0.000669661036367   0.000757739668801 1
force Sc  -0.000947506668044   0.000335937578201   0.000464713030647 1
force Sc   0.000156961040293   0.000999992802274  -0.001147502894695 1
force Sc   0.000705601725844  -0.001100943549721  -0.000309369578299 1
force Sc   0.000624986606869   0.000515943201257  -0.000905164130877 1

# Energy components:
   Eewald =     -848.2989061776539756
       EH =      257.9681176224475507
     Eloc =     -767.5603285820185420
      Enl =      130.1271781688926126
      Exc =     -193.4758074971089172
 Exc_core =        6.4610068903466491
       KE =      276.9620395629939367
-------------------------------------
     Etot =    -1137.8167000121006822
       TS =        0.0005553291648417
-------------------------------------
        F =    -1137.8172553412655361

IonicMinimize: Iter:  20  F: -1137.817255341265536  |grad|_K:  3.454e-05  alpha:  1.000e+00  linmin: -7.550e-01  t[s]:  19285.43
IonicMinimize: Converged (|grad|_K<1.000000e-04).

#--- Lowdin population analysis ---
# oxidation-state O -0.414 -0.414 -0.414 -0.414 -0.414 -0.414 -0.414 -0.414 -0.414 -0.414 -0.414 -0.414 -0.414 -0.414 -0.414 -0.414 -0.414 -0.414 -0.414 -0.414 -0.414 -0.414 -0.414 -0.414
# oxidation-state Sc +0.638 +0.638 +0.638 +0.638 +0.638 +0.638 +0.637 +0.637 +0.637 +0.637 +0.638 +0.637 +0.648 +0.648 +0.648 +0.648


Dumping '/data/rc652/Sc2O3/ion/Sc2O3_ion.Ecomponents' ... done
End date and time: Thu Jun 27 08:19:26 2024  (Duration: 0-5:21:31.63)
Done!
