--------------------------------------------------------------------------
Initialization of PSM library failed.

  Error: PSM is in the finalized state
--------------------------------------------------------------------------

*************** JDFTx 1.7.0 (git hash 3664913) ***************

Start date and time: Mon Jul 15 12:46:32 2024
Executable jdftx with command-line: -i Zn_oct.in
Running on hosts (process indices):  node3104.physics.cornell.edu (0-15)
Divided in process groups (process indices):  0 (0)  1 (1)  2 (2)  3 (3)  4 (4)  5 (5)  6 (6)  7 (7)  8 (8)  9 (9)  10 (10)  11 (11)  12 (12)  13 (13)  14 (14)  15 (15)
Resource initialization completed at t[s]:      0.00
Run totals: 16 processes, 32 threads, 0 GPUs


Input parsed successfully to the following command list (including defaults):

basis kpoint-dependent
coords-type Lattice
core-overlap-check vector
coulomb-interaction Periodic
davidson-band-ratio 1.1
dump End Ecomponents
dump-name /data/rc652/Zn/oct/Zn_oct.$VAR
elec-cutoff 20 100
elec-eigen-algo Davidson
elec-ex-corr gga-PBEsol
elec-smearing Fermi 0.01
electronic-minimize  \
	dirUpdateScheme      FletcherReeves \
	linminMethod         DirUpdateRecommended \
	nIterations          100 \
	history              15 \
	knormThreshold       0 \
	maxThreshold         no \
	energyDiffThreshold  1e-08 \
	nEnergyDiff          2 \
	alphaTstart          1 \
	alphaTmin            1e-10 \
	updateTestStepSize   yes \
	alphaTreduceFactor   0.1 \
	alphaTincreaseFactor 3 \
	nAlphaAdjustMax      3 \
	wolfeEnergy          0.0001 \
	wolfeGradient        0.9 \
	fdTest               no
electronic-scf  \
	nIterations	50 \
	energyDiffThreshold	1e-08 \
	residualThreshold	1e-07 \
	mixFraction	0.5 \
	qMetric	0.8 \
	history	10 \
	nEigSteps	2 \
	eigDiffThreshold	1e-08 \
	mixedVariable	Density \
	qKerker	0.8 \
	qKappa	-1 \
	verbose	no \
	mixFractionMag	1.5
exchange-regularization WignerSeitzTruncated
fluid None
fluid-ex-corr lda-TF lda-PZ
fluid-gummel-loop 10 1.000000e-05
fluid-minimize  \
	dirUpdateScheme      PolakRibiere \
	linminMethod         DirUpdateRecommended \
	nIterations          100 \
	history              15 \
	knormThreshold       0 \
	maxThreshold         no \
	energyDiffThreshold  0 \
	nEnergyDiff          2 \
	alphaTstart          1 \
	alphaTmin            1e-10 \
	updateTestStepSize   yes \
	alphaTreduceFactor   0.1 \
	alphaTincreaseFactor 3 \
	nAlphaAdjustMax      3 \
	wolfeEnergy          0.0001 \
	wolfeGradient        0.9 \
	fdTest               no
fluid-solvent H2O 55.338 ScalarEOS \
	epsBulk 78.4 \
	pMol 0.92466 \
	epsInf 1.77 \
	Pvap 1.06736e-10 \
	sigmaBulk 4.62e-05 \
	Rvdw 2.61727 \
	Res 1.42 \
	tauNuc 343133 \
	poleEl 15 7 1
forces-output-coords Positions
ion Zn   0.116610000000000   0.222230000000000   0.124910000000000 1
ion Zn   0.217550000000000   0.098010000000000   0.369920000000000 1
ion Zn   0.111430000000000   0.225450000000000   0.626430000000000 1
ion Zn   0.234430000000000   0.115970000000000   0.869310000000000 1
ion Zn   0.120990000000000   0.558910000000000   0.127560000000000 1
ion Zn   0.223410000000000   0.455750000000000   0.384970000000000 1
ion Zn   0.092170000000000   0.551240000000000   0.632150000000000 1
ion Zn   0.210480000000000   0.455280000000000   0.900880000000000 1
ion Zn   0.102200000000000   0.884360000000000   0.122040000000000 1
ion Zn   0.227320000000000   0.783970000000000   0.382650000000000 1
ion Zn   0.118320000000000   0.887450000000000   0.635400000000000 1
ion Zn   0.231280000000000   0.788460000000000   0.882760000000000 1
ion Zn   0.434320000000000   0.231840000000000   0.105380000000000 1
ion Zn   0.550680000000000   0.110460000000000   0.359480000000000 1
ion Zn   0.434050000000000   0.248110000000000   0.622110000000000 1
ion Zn   0.541660000000000   0.127280000000000   0.875300000000000 1
ion Zn   0.436920000000000   0.550340000000000   0.123580000000000 1
ion Zn   0.556510000000000   0.434580000000000   0.390490000000000 1
ion Zn   0.461260000000000   0.551110000000000   0.626180000000000 1
ion Zn   0.550910000000000   0.451410000000000   0.872940000000000 1
ion Zn   0.454440000000000   0.902470000000000   0.103710000000000 1
ion Zn   0.573210000000000   0.778290000000000   0.364050000000000 1
ion Zn   0.437830000000000   0.878400000000000   0.625140000000000 1
ion Zn   0.566830000000000   0.780700000000000   0.869050000000000 1
ion Zn   0.758190000000000   0.224510000000000   0.121250000000000 1
ion Zn   0.905370000000000   0.096810000000000   0.366810000000000 1
ion Zn   0.783050000000000   0.193620000000000   0.623780000000000 1
ion Zn   0.889910000000000   0.105350000000000   0.897890000000000 1
ion Zn   0.766170000000000   0.545530000000000   0.117660000000000 1
ion Zn   0.896790000000000   0.446260000000000   0.371480000000000 1
ion Zn   0.777180000000000   0.555840000000000   0.620750000000000 1
ion Zn   0.887940000000000   0.454450000000000   0.872150000000000 1
ion Zn   0.786220000000000   0.896230000000000   0.129160000000000 1
ion Zn   0.869730000000000   0.793030000000000   0.376750000000000 1
ion Zn   0.789530000000000   0.889760000000000   0.612850000000000 1
ion Zn   0.893370000000000   0.772590000000000   0.892010000000000 1
ion O   0.330000000000000   0.380000000000000   0.550000000000000 1
ion-species GBRV/$ID_pbesol.uspp
ion-width 0
ionic-minimize  \
	dirUpdateScheme      L-BFGS \
	linminMethod         DirUpdateRecommended \
	nIterations          50 \
	history              15 \
	knormThreshold       0.0001 \
	maxThreshold         no \
	energyDiffThreshold  1e-06 \
	nEnergyDiff          2 \
	alphaTstart          1 \
	alphaTmin            1e-10 \
	updateTestStepSize   yes \
	alphaTreduceFactor   0.1 \
	alphaTincreaseFactor 3 \
	nAlphaAdjustMax      3 \
	wolfeEnergy          0.0001 \
	wolfeGradient        0.9 \
	fdTest               no
kpoint   0.500000000000   0.500000000000   0.500000000000  1.00000000000000
kpoint-folding 4 4 4 
latt-move-scale 1 1 1
latt-scale 1 1 1 
lattice  \
	   7.580356660815777    7.580356660815777   -0.000000000000000  \
	 -13.129568758365000   13.129568758365000   -0.000000000000000  \
	   0.000000000000000   -0.000000000000000   17.147384969974024 
lattice-minimize  \
	dirUpdateScheme      L-BFGS \
	linminMethod         DirUpdateRecommended \
	nIterations          0 \
	history              15 \
	knormThreshold       0 \
	maxThreshold         no \
	energyDiffThreshold  1e-06 \
	nEnergyDiff          2 \
	alphaTstart          1 \
	alphaTmin            1e-10 \
	updateTestStepSize   yes \
	alphaTreduceFactor   0.1 \
	alphaTincreaseFactor 3 \
	nAlphaAdjustMax      3 \
	wolfeEnergy          0.0001 \
	wolfeGradient        0.9 \
	fdTest               no
lcao-params -1 1e-06 0.01
pcm-variant GLSSA13
perturb-minimize  \
	nIterations            0 \
	algorithm              MINRES \
	residualTol            0.0001 \
	residualDiffThreshold  0.0001 \
	CGBypass               no \
	recomputeResidual      no
spintype no-spin
subspace-rotation-factor 1 yes
symmetries automatic
symmetry-threshold 0.0001



---------- Setting up symmetries ----------

Found 24 point-group symmetries of the bravais lattice
Found 1 space-group symmetries with basis
Applied RMS atom displacement 0 bohrs to make symmetries exact.

---------- Initializing the Grid ----------
R = 
[      7.58036      7.58036            0  ]
[     -13.1296      13.1296            0  ]
[            0            0      17.1474  ]
unit cell volume = 3413.25
G =
[   0.414439  -0.239276          0  ]
[   0.414439   0.239276          0  ]
[          0          0   0.366422  ]
Minimum fftbox size, Smin = [  72  72  80  ]
Chosen fftbox size, S = [  72  72  80  ]

---------- Initializing tighter grid for wavefunction operations ----------
R = 
[      7.58036      7.58036            0  ]
[     -13.1296      13.1296            0  ]
[            0            0      17.1474  ]
unit cell volume = 3413.25
G =
[   0.414439  -0.239276          0  ]
[   0.414439   0.239276          0  ]
[          0          0   0.366422  ]
Minimum fftbox size, Smin = [  64  64  72  ]
Chosen fftbox size, S = [  64  64  72  ]

---------- Exchange Correlation functional ----------
Initalized PBEsol GGA exchange.
Initalized PBEsol GGA correlation.

---------- Setting up pseudopotentials ----------
Width of ionic core gaussian charges (only for fluid interactions / plotting) set to 0

Reading pseudopotential file '/home/rc652/build/pseudopotentials/GBRV/zn_pbesol.uspp':
  Title: Zn.  Created by USPP 7.3.6 on 23-7-2013
  Reference state energy: -230.565303.  20 valence electrons in orbitals:
    |300>  occupation: 2  eigenvalue: -4.737806
    |310>  occupation: 6  eigenvalue: -3.059602
    |320>  occupation: 10  eigenvalue: -0.373701
    |400>  occupation: 2  eigenvalue: -0.220431
    |410>  occupation: 0  eigenvalue: -0.039521
  lMax: 2  lLocal: 3  QijEcut: 5
  6 projectors sampled on a log grid with 687 points:
    l: 0  eig: -4.737806  rCut: 1.35
    l: 0  eig: -0.220431  rCut: 1.35
    l: 1  eig: -3.059602  rCut: 1.4
    l: 1  eig: -0.039521  rCut: 1.4
    l: 2  eig: -0.373701  rCut: 1.6
    l: 2  eig: 1.000000  rCut: 1.6
  Transforming local potential to a uniform radial grid of dG=0.02 with 1668 points.
  Transforming nonlocal projectors to a uniform radial grid of dG=0.02 with 432 points.
  Transforming density augmentations to a uniform radial grid of dG=0.02 with 1668 points.
  Transforming atomic orbitals to a uniform radial grid of dG=0.02 with 432 points.
  Core radius for overlap checks: 1.80 bohrs.

Reading pseudopotential file '/home/rc652/build/pseudopotentials/GBRV/o_pbesol.uspp':
  Title: O.  Created by USPP 7.3.6 on 3-2-2014
  Reference state energy: -15.849885.  6 valence electrons in orbitals:
    |200>  occupation: 2  eigenvalue: -0.873214
    |210>  occupation: 4  eigenvalue: -0.330058
  lMax: 2  lLocal: 2  QijEcut: 6
  5 projectors sampled on a log grid with 511 points:
    l: 0  eig: -0.873214  rCut: 1.25
    l: 0  eig: 0.000000  rCut: 1.25
    l: 1  eig: -0.330058  rCut: 1.25
    l: 1  eig: 0.000000  rCut: 1.25
    l: 2  eig: 1.000000  rCut: 1.25
  Partial core density with radius 0.7
  Transforming core density to a uniform radial grid of dG=0.02 with 1668 points.
  Transforming local potential to a uniform radial grid of dG=0.02 with 1668 points.
  Transforming nonlocal projectors to a uniform radial grid of dG=0.02 with 432 points.
  Transforming density augmentations to a uniform radial grid of dG=0.02 with 1668 points.
  Transforming atomic orbitals to a uniform radial grid of dG=0.02 with 432 points.
  Core radius for overlap checks: 1.25 bohrs.

Initialized 2 species with 37 total atoms.

Folded 1 k-points by 4x4x4 to 64 k-points.

---------- Setting up k-points, bands, fillings ----------
Adding inversion symmetry to k-mesh for non-inversion-symmetric unit cell.
Reduced to 32 k-points under symmetry. 
Computing the number of bands and number of electrons
Calculating initial fillings.
nElectrons: 726.000000   nBands: 472   nStates: 32

----- Setting up reduced wavefunction bases (one per k-point) -----
average nbasis = 14581.312 , ideal nbasis = 14581.661

---------- Setting up ewald sum ----------
Optimum gaussian width for ewald sums = 3.290529 bohr.
Real space sum over 567 unit cells with max indices [  4  4  3  ]
Reciprocal space sum over 5491 terms with max indices [  8  8  9  ]

---------- Allocating electronic variables ----------
Initializing wave functions:  linear combination of atomic orbitals
Zn pseudo-atom occupations:   s ( 2 2 )  p ( 6 0 )  d ( 10 )
O pseudo-atom occupations:   s ( 2 )  p ( 4 )
	FillingsUpdate:  mu: +0.563965226  nElectrons: 726.000000
LCAOMinimize: Iter:   0  F: -8317.5714708944451559  |grad|_K:  4.429e-04  alpha:  1.000e+00
	FillingsUpdate:  mu: +0.558533894  nElectrons: 726.000000
LCAOMinimize: Iter:   1  F: -8317.7153801733675209  |grad|_K:  2.888e-04  alpha:  1.213e-01  linmin: -3.085e-01  cgtest:  8.834e-01  t[s]:    126.65
LCAOMinimize: Encountered beta<0, resetting CG.
LCAOMinimize: 	Predicted alpha/alphaT>3.000000, increasing alphaT to 3.638653e-01.
	FillingsUpdate:  mu: +0.554984275  nElectrons: 726.000000
LCAOMinimize: Iter:   2  F: -8317.8158394136626157  |grad|_K:  1.292e-04  alpha:  3.258e-01  linmin:  5.143e-02  cgtest: -5.759e-02  t[s]:    181.80
	FillingsUpdate:  mu: +0.556881064  nElectrons: 726.000000
LCAOMinimize: Iter:   3  F: -8317.8296445635842247  |grad|_K:  6.211e-05  alpha:  2.632e-01  linmin: -1.961e-03  cgtest:  2.062e-01  t[s]:    225.38
	FillingsUpdate:  mu: +0.557250478  nElectrons: 726.000000
LCAOMinimize: Iter:   4  F: -8317.8327214062828716  |grad|_K:  2.472e-05  alpha:  2.223e-01  linmin: -8.803e-04  cgtest: -2.701e-02  t[s]:    268.96
	FillingsUpdate:  mu: +0.557586051  nElectrons: 726.000000
LCAOMinimize: Iter:   5  F: -8317.8332490583998151  |grad|_K:  8.916e-06  alpha:  2.406e-01  linmin: -1.099e-03  cgtest: -1.286e-02  t[s]:    312.84
	FillingsUpdate:  mu: +0.557549177  nElectrons: 726.000000
LCAOMinimize: Iter:   6  F: -8317.8333331619160163  |grad|_K:  3.903e-06  alpha:  2.949e-01  linmin:  9.546e-05  cgtest: -6.014e-03  t[s]:    357.01
	FillingsUpdate:  mu: +0.557588412  nElectrons: 726.000000
LCAOMinimize: Iter:   7  F: -8317.8333478464155633  |grad|_K:  2.039e-06  alpha:  2.694e-01  linmin:  1.124e-05  cgtest: -4.007e-04  t[s]:    400.92
	FillingsUpdate:  mu: +0.557582121  nElectrons: 726.000000
LCAOMinimize: Iter:   8  F: -8317.8333530671607150  |grad|_K:  1.119e-06  alpha:  3.509e-01  linmin: -1.962e-05  cgtest:  1.321e-04  t[s]:    444.73
	FillingsUpdate:  mu: +0.557583991  nElectrons: 726.000000
LCAOMinimize: Iter:   9  F: -8317.8333540531748440  |grad|_K:  4.390e-07  alpha:  2.200e-01  linmin: -2.936e-06  cgtest: -2.321e-04  t[s]:    488.87
	FillingsUpdate:  mu: +0.557577446  nElectrons: 726.000000
LCAOMinimize: Iter:  10  F: -8317.8333543373501016  |grad|_K:  2.224e-07  alpha:  4.117e-01  linmin: -2.117e-04  cgtest:  1.168e-03  t[s]:    532.62
LCAOMinimize: Converged (|Delta F|<1.000000e-06 for 2 iters).


---- Citations for features of the code used in this run ----

   Software package:
      R. Sundararaman, K. Letchworth-Weaver, K.A. Schwarz, D. Gunceler, Y. Ozhabes and T.A. Arias, 'JDFTx: software for joint density-functional theory', SoftwareX 6, 278 (2017)

   gga-PBEsol exchange-correlation functional:
      J.P. Perdew et al., Phys. Rev. Lett. 100, 136406 (2008)

   Pseudopotentials:
      KF Garrity, JW Bennett, KM Rabe and D Vanderbilt, Comput. Mater. Sci. 81, 446 (2014)

This list may not be complete. Please suggest additional citations or
report any other bugs at https://github.com/shankar1729/jdftx/issues

Initialization completed successfully at t[s]:    554.19


-------- Electronic minimization -----------
Will mix electronic density at each iteration.
	FillingsUpdate:  mu: +0.557577446  nElectrons: 726.000000
	FillingsUpdate:  mu: +0.553636718  nElectrons: 726.000000
SCF: Cycle:  0   F: -8318.076005990742487   dF: -2.427e-01   |Residual|: 1.473e-01   |deigs|: 2.917e-02  t[s]:    761.74
	FillingsUpdate:  mu: +0.554010602  nElectrons: 726.000000
SCF: Cycle:  1   F: -8318.083297635710551   dF: -7.292e-03   |Residual|: 5.532e-02   |deigs|: 3.262e-03  t[s]:    939.53
	FillingsUpdate:  mu: +0.553821991  nElectrons: 726.000000
SCF: Cycle:  2   F: -8318.086940658984531   dF: -3.643e-03   |Residual|: 3.520e-02   |deigs|: 2.149e-03  t[s]:   1101.72
	FillingsUpdate:  mu: +0.553866781  nElectrons: 726.000000
SCF: Cycle:  3   F: -8318.087388152656786   dF: -4.475e-04   |Residual|: 6.222e-03   |deigs|: 5.385e-04  t[s]:   1262.61
	FillingsUpdate:  mu: +0.553884199  nElectrons: 726.000000
SCF: Cycle:  4   F: -8318.087395898006434   dF: -7.745e-06   |Residual|: 2.680e-03   |deigs|: 1.109e-04  t[s]:   1365.00
	FillingsUpdate:  mu: +0.553880622  nElectrons: 726.000000
SCF: Cycle:  5   F: -8318.087399367132093   dF: -3.469e-06   |Residual|: 6.850e-04   |deigs|: 6.992e-05  t[s]:   1468.53
	FillingsUpdate:  mu: +0.553883757  nElectrons: 726.000000
SCF: Cycle:  6   F: -8318.087399607862608   dF: -2.407e-07   |Residual|: 3.371e-04   |deigs|: 1.608e-05  t[s]:   1571.75
	FillingsUpdate:  mu: +0.553884796  nElectrons: 726.000000
SCF: Cycle:  7   F: -8318.087399647454731   dF: -3.959e-08   |Residual|: 1.280e-04   |deigs|: 6.490e-06  t[s]:   1674.36
	FillingsUpdate:  mu: +0.553884718  nElectrons: 726.000000
SCF: Cycle:  8   F: -8318.087399656958951   dF: -9.504e-09   |Residual|: 3.599e-05   |deigs|: 2.618e-06  t[s]:   1777.72
	FillingsUpdate:  mu: +0.553884720  nElectrons: 726.000000
SCF: Cycle:  9   F: -8318.087399657935748   dF: -9.768e-10   |Residual|: 2.071e-05   |deigs|: 6.352e-07  t[s]:   1882.43
SCF: Converged (|Delta E|<1.000000e-08 for 2 iters).

Setting wave functions to eigenvectors of Hamiltonian

# Ionic positions in lattice coordinates:
ion Zn   0.116610000000000   0.222230000000000   0.124910000000000 1
ion Zn   0.217550000000000   0.098010000000000   0.369920000000000 1
ion Zn   0.111430000000000   0.225450000000000   0.626430000000000 1
ion Zn   0.234430000000000   0.115970000000000   0.869310000000000 1
ion Zn   0.120990000000000   0.558910000000000   0.127560000000000 1
ion Zn   0.223410000000000   0.455750000000000   0.384970000000000 1
ion Zn   0.092170000000000   0.551240000000000   0.632150000000000 1
ion Zn   0.210480000000000   0.455280000000000   0.900880000000000 1
ion Zn   0.102200000000000   0.884360000000000   0.122040000000000 1
ion Zn   0.227320000000000   0.783970000000000   0.382650000000000 1
ion Zn   0.118320000000000   0.887450000000000   0.635400000000000 1
ion Zn   0.231280000000000   0.788460000000000   0.882760000000000 1
ion Zn   0.434320000000000   0.231840000000000   0.105380000000000 1
ion Zn   0.550680000000000   0.110460000000000   0.359480000000000 1
ion Zn   0.434050000000000   0.248110000000000   0.622110000000000 1
ion Zn   0.541660000000000   0.127280000000000   0.875300000000000 1
ion Zn   0.436920000000000   0.550340000000000   0.123580000000000 1
ion Zn   0.556510000000000   0.434580000000000   0.390490000000000 1
ion Zn   0.461260000000000   0.551110000000000   0.626180000000000 1
ion Zn   0.550910000000000   0.451410000000000   0.872940000000000 1
ion Zn   0.454440000000000   0.902470000000000   0.103710000000000 1
ion Zn   0.573210000000000   0.778290000000000   0.364050000000000 1
ion Zn   0.437830000000000   0.878400000000000   0.625140000000000 1
ion Zn   0.566830000000000   0.780700000000000   0.869050000000000 1
ion Zn   0.758190000000000   0.224510000000000   0.121250000000000 1
ion Zn   0.905370000000000   0.096810000000000   0.366810000000000 1
ion Zn   0.783050000000000   0.193620000000000   0.623780000000000 1
ion Zn   0.889910000000000   0.105350000000000   0.897890000000000 1
ion Zn   0.766170000000000   0.545530000000000   0.117660000000000 1
ion Zn   0.896790000000000   0.446260000000000   0.371480000000000 1
ion Zn   0.777180000000000   0.555840000000000   0.620750000000000 1
ion Zn   0.887940000000000   0.454450000000000   0.872150000000000 1
ion Zn   0.786220000000000   0.896230000000000   0.129160000000000 1
ion Zn   0.869730000000000   0.793030000000000   0.376750000000000 1
ion Zn   0.789530000000000   0.889760000000000   0.612850000000000 1
ion Zn   0.893370000000000   0.772590000000000   0.892010000000000 1
ion O   0.330000000000000   0.380000000000000   0.550000000000000 1

# Forces in Lattice coordinates:
force Zn  -0.084075940686709   0.042904762329586   0.095406427370369 1
force Zn   0.131863664683826  -0.152715047583213  -0.220071752419958 1
force Zn  -1.338558474341864  -0.405235437154470   0.922554125830306 1
force Zn  -0.312950597875493   0.132113093018729  -0.055059861797304 1
force Zn  -0.175212613927672   0.136617725252552   0.129705586107789 1
force Zn  -0.303920417210571   0.250204117437357  -0.653256117905661 1
force Zn  -0.033822849857849   0.067317152970939   0.041117709306524 1
force Zn   0.099610900428507  -0.130585801481182  -0.311428615064635 1
force Zn   0.125660035794338  -0.075191789919757   0.112508188416029 1
force Zn   0.013435821364595  -0.067570775410853  -0.059696861450124 1
force Zn  -0.077874419524153   0.062454163842634  -0.025367882194363 1
force Zn  -0.009425944084677  -0.063030692223474  -0.086565600893279 1
force Zn   0.069535788603519  -0.101116332530337   0.266063337086887 1
force Zn   0.054573780372082  -0.039415979072791   0.121721146234435 1
force Zn   1.505788469199899  -1.848103863247317   0.650106792370716 1
force Zn   0.363537924986223  -0.227459222611799  -0.213456769479887 1
force Zn   0.086984978380255   0.081028749731363   0.158752198903076 1
force Zn   0.338651463295625  -0.085303068815585  -0.698337012574470 1
force Zn   1.678180691182124   5.127160394122505   4.330465869420246 1
force Zn   0.022890774952398   0.050514347122038   0.020002931639574 1
force Zn  -0.002147495308624  -0.099850628949909   0.191113920736946 1
force Zn  -0.467526432742933   0.222004078747577  -0.055078507324185 1
force Zn   0.070025587309533  -0.000895156067283  -0.021938888701258 1
force Zn  -0.040397655719167   0.028563784396712  -0.060935649199436 1
force Zn   0.181668086703339  -0.034003563105830   0.054758634365758 1
force Zn  -0.315192816701561   0.558612479677400   0.008546066955502 1
force Zn  -0.210242604194521   0.246905497805102   0.035313865646160 1
force Zn  -0.035946211784770   0.071492422986664  -0.193294927452513 1
force Zn   0.028703286839939   0.061850964687357   0.130161372041607 1
force Zn  -0.045303151160295  -0.005368375332867  -0.020292340009916 1
force Zn   0.200132057727271  -0.073873555551140   0.063551488992402 1
force Zn   0.026915538673384  -0.135106762549108  -0.014793518403163 1
force Zn  -0.106747539840449  -0.020515231040330  -0.119800139775140 1
force Zn   0.621719967701944  -0.714083069464511  -0.050336563341002 1
force Zn  -0.055384298944531  -0.027895841864030   0.273309684573636 1
force Zn  -0.061641194906459   0.110674889807550  -0.174769831494846 1
force O  -1.943514754285597  -2.943080565974034  -4.570208077332246 1

# Energy components:
   Eewald =    -4546.9156247876680936
       EH =     3314.7469281722815140
     Eloc =    -7328.3499737363454187
      Enl =      262.8712504411623740
      Exc =     -755.5246726218946378
 Exc_core =        0.0628971648134192
       KE =      735.1016403558785441
-------------------------------------
     Etot =    -8318.0075550117708190
       TS =        0.0798446461643834
-------------------------------------
        F =    -8318.0873996579357481

IonicMinimize: Iter:   0  F: -8318.087399657935748  |grad|_K:  6.768e-02  t[s]:   1904.47

#--- Lowdin population analysis ---
# oxidation-state Zn -0.004 +0.026 +0.188 -0.019 +0.005 +0.146 -0.032 -0.006 +0.026 -0.001 -0.011 -0.012 -0.006 +0.002 +0.187 +0.010 -0.000 +0.086 +0.236 -0.024 +0.015 -0.013 +0.002 +0.020 +0.002 -0.024 +0.019 +0.023 +0.012 +0.016 -0.029 +0.007 -0.016 +0.002 -0.010 +0.006
# oxidation-state O -0.657


-------- Electronic minimization -----------
Will mix electronic density at each iteration.
	FillingsUpdate:  mu: +0.553884720  nElectrons: 726.000000
	FillingsUpdate:  mu: +0.554480754  nElectrons: 726.000000
SCF: Cycle:  0   F: -8317.791390640784812   dF: -5.119e-02   |Residual|: 3.685e-01   |deigs|: 1.149e-03  t[s]:   2145.19
	FillingsUpdate:  mu: +0.553021626  nElectrons: 726.000000
SCF: Cycle:  1   F: -8318.120633768594416   dF: -3.292e-01   |Residual|: 2.358e-01   |deigs|: 7.930e-03  t[s]:   2323.36
	FillingsUpdate:  mu: +0.553649807  nElectrons: 726.000000
SCF: Cycle:  2   F: -8318.155119565208224   dF: -3.449e-02   |Residual|: 7.593e-02   |deigs|: 2.203e-03  t[s]:   2501.04
	FillingsUpdate:  mu: +0.553771769  nElectrons: 726.000000
SCF: Cycle:  3   F: -8318.164180369405585   dF: -9.061e-03   |Residual|: 1.935e-02   |deigs|: 1.446e-03  t[s]:   2675.75
	FillingsUpdate:  mu: +0.553722561  nElectrons: 726.000000
SCF: Cycle:  4   F: -8318.164401930280292   dF: -2.216e-04   |Residual|: 8.775e-03   |deigs|: 4.163e-04  t[s]:   2779.55
	FillingsUpdate:  mu: +0.553721929  nElectrons: 726.000000
SCF: Cycle:  5   F: -8318.164434847460143   dF: -3.292e-05   |Residual|: 3.570e-03   |deigs|: 2.374e-04  t[s]:   2883.71
	FillingsUpdate:  mu: +0.553739661  nElectrons: 726.000000
SCF: Cycle:  6   F: -8318.164449619252991   dF: -1.477e-05   |Residual|: 9.000e-04   |deigs|: 7.251e-05  t[s]:   2986.55
	FillingsUpdate:  mu: +0.553737141  nElectrons: 726.000000
SCF: Cycle:  7   F: -8318.164449769337807   dF: -1.501e-07   |Residual|: 5.022e-04   |deigs|: 2.105e-05  t[s]:   3089.30
	FillingsUpdate:  mu: +0.553736545  nElectrons: 726.000000
SCF: Cycle:  8   F: -8318.164450067793950   dF: -2.985e-07   |Residual|: 1.185e-04   |deigs|: 1.017e-05  t[s]:   3192.24
	FillingsUpdate:  mu: +0.553736428  nElectrons: 726.000000
SCF: Cycle:  9   F: -8318.164450077356378   dF: -9.562e-09   |Residual|: 4.421e-05   |deigs|: 2.316e-06  t[s]:   3295.60
	FillingsUpdate:  mu: +0.553736377  nElectrons: 726.000000
SCF: Cycle: 10   F: -8318.164450078478694   dF: -1.122e-09   |Residual|: 1.662e-05   |deigs|: 8.110e-07  t[s]:   3397.95
SCF: Converged (|Delta E|<1.000000e-08 for 2 iters).

Setting wave functions to eigenvectors of Hamiltonian

# Ionic positions in lattice coordinates:
ion Zn   0.116541654338197   0.222230945532136   0.124971037600856 1
ion Zn   0.217610577731210   0.097915286834764   0.369779179107276 1
ion Zn   0.109748003012076   0.224277303692494   0.627020287479535 1
ion Zn   0.234160546688622   0.115943411222596   0.869274761850546 1
ion Zn   0.120873328204597   0.558963489202883   0.127642983893682 1
ion Zn   0.223214842647010   0.455857220124584   0.384552006392771 1
ion Zn   0.092169820672367   0.551295010965562   0.632176301002420 1
ion Zn   0.210517453592171   0.455191838181479   0.900680724482351 1
ion Zn   0.102296110653935   0.884346508322748   0.122111980150749 1
ion Zn   0.227297790956379   0.783903586453642   0.382611794869548 1
ion Zn   0.118269090348981   0.887475665290442   0.635383760243011 1
ion Zn   0.231235317724172   0.788386066018574   0.882704602925332 1
ion Zn   0.434340711542416   0.231767588758366   0.105550232305661 1
ion Zn   0.550718051469606   0.110446762240573   0.359557875055391 1
ion Zn   0.434684890307259   0.246914718838843   0.622525962243004 1
ion Zn   0.541932633683259   0.127230134626377   0.875163411699502 1
ion Zn   0.437059149203656   0.550475898614090   0.123681569348646 1
ion Zn   0.556833045977647   0.434671699688449   0.390043161413720 1
ion Zn   0.465889341498428   0.557621400064359   0.628950837434759 1
ion Zn   0.550962547279525   0.451477620707300   0.872952790726638 1
ion Zn   0.454383169080239   0.902359853515983   0.103832275973818 1
ion Zn   0.572820899219872   0.778277165803613   0.364014749920218 1
ion Zn   0.437905935432094   0.878437234635397   0.625125954282109 1
ion Zn   0.566801497924637   0.780709128836097   0.869011002232069 1
ion Zn   0.758369712137564   0.224572022840193   0.121285029138817 1
ion Zn   0.905330834525483   0.097247657225446   0.366815460059751 1
ion Zn   0.782955279990912   0.193774738815300   0.623802587417097 1
ion Zn   0.889909781682534   0.105408409049152   0.897766312240079 1
ion Zn   0.766235077131585   0.545613164984871   0.117743275527994 1
ion Zn   0.896737627884097   0.446229419359741   0.371467007825143 1
ion Zn   0.777358106687014   0.555868585379561   0.620790655240725 1
ion Zn   0.887895648871993   0.454317235257321   0.872140526242317 1
ion Zn   0.786092303755939   0.896149359133582   0.129083337828779 1
ion Zn   0.870018862338818   0.792589933353718   0.376717784049773 1
ion Zn   0.789454332667179   0.889699332364582   0.613024868876053 1
ion Zn   0.893363120234476   0.772677150298216   0.891898165509823 1
ion O   0.326272902904052   0.375727453766963   0.547075747410035 1

# Forces in Lattice coordinates:
force Zn  -0.082640108794167   0.042426829211145   0.096839302656418 1
force Zn   0.130803892740510  -0.159143150546063  -0.226514398195313 1
force Zn  -1.306779323123199  -0.379183627929286   0.970711288726399 1
force Zn  -0.305666869508872   0.128638624260325  -0.050287631977881 1
force Zn  -0.171527958267605   0.133242927725167   0.125490720002635 1
force Zn  -0.298279914353095   0.263125509242449  -0.636969783559969 1
force Zn  -0.023318454253833   0.061858308234871   0.041077480214506 1
force Zn   0.099562134504872  -0.129833858317888  -0.312010782732720 1
force Zn   0.123970000083117  -0.075384245480663   0.107306516920733 1
force Zn   0.012556387216298  -0.065582237651308  -0.059666765621774 1
force Zn  -0.075873288356931   0.056805323305817  -0.024626868631479 1
force Zn  -0.010913642727910  -0.061326666820859  -0.082969589850828 1
force Zn   0.068618526801342  -0.100311392763225   0.262527526973230 1
force Zn   0.054779040219050  -0.040171138114260   0.119760921458271 1
force Zn   1.361312332952862  -1.625666696163819   0.604229628475428 1
force Zn   0.357365777010530  -0.225333071492797  -0.207197379987904 1
force Zn   0.084992126529822   0.080180736022229   0.156026021062109 1
force Zn   0.312583795124407  -0.069988670849633  -0.642297997788432 1
force Zn   0.944132704311992   3.294856135547395   2.731765750695401 1
force Zn   0.022136455470500   0.043710585077648   0.017118836243764 1
force Zn  -0.002884437139735  -0.097650944307306   0.187861866255716 1
force Zn  -0.451767233466147   0.214988921151381  -0.049965047538219 1
force Zn   0.062267566984347   0.006293175108302  -0.023903750149518 1
force Zn  -0.042507074963106   0.038297892359184  -0.041906127904294 1
force Zn   0.180216371858407  -0.034981643892734   0.052777373925862 1
force Zn  -0.313145664372814   0.537715684001283   0.003973291364622 1
force Zn  -0.215774293666338   0.248663379662759   0.033268491452697 1
force Zn  -0.035631669004022   0.071534857625618  -0.189609977354067 1
force Zn   0.029228392561853   0.060963842484976   0.128131055917720 1
force Zn  -0.044636126670062  -0.005808757554383  -0.018481652586539 1
force Zn   0.190706007505228  -0.076106731448469   0.058693419451328 1
force Zn   0.026634476749163  -0.132717064451069  -0.013404950136660 1
force Zn  -0.104692020861941  -0.021112159452160  -0.116790840521016 1
force Zn   0.602238028510639  -0.688263949756515  -0.051758361458425 1
force Zn  -0.044773029957953  -0.019022041669277   0.261274569638349 1
force Zn  -0.059208391506913   0.107833328544082  -0.170646910211314 1
force O  -1.074104263732582  -1.383751315238793  -3.040821354759595 1

# Energy components:
   Eewald =    -4550.7050024780701278
       EH =     3311.3062220896408689
     Eloc =    -7321.0454036660512429
      Enl =      262.8107328656184336
      Exc =     -755.4770634436737282
 Exc_core =        0.0628955451201510
       KE =      734.9626854895568613
-------------------------------------
     Etot =    -8318.0849335978600720
       TS =        0.0795164806178919
-------------------------------------
        F =    -8318.1644500784786942

IonicMinimize: Iter:   1  F: -8318.164450078478694  |grad|_K:  4.388e-02  alpha:  1.881e-01  linmin: -9.836e-01  t[s]:   3420.07

#--- Lowdin population analysis ---
# oxidation-state Zn -0.005 +0.034 +0.189 -0.018 +0.006 +0.151 -0.029 -0.004 +0.025 -0.000 -0.013 -0.011 -0.006 +0.000 +0.188 +0.010 -0.001 +0.090 +0.212 -0.023 +0.015 -0.012 +0.003 +0.020 +0.002 -0.024 +0.018 +0.023 +0.012 +0.015 -0.029 +0.008 -0.015 +0.003 -0.009 +0.008
# oxidation-state O -0.661


-------- Electronic minimization -----------
Will mix electronic density at each iteration.
	FillingsUpdate:  mu: +0.553736377  nElectrons: 726.000000
	FillingsUpdate:  mu: +0.554790502  nElectrons: 726.000000
SCF: Cycle:  0   F: -8317.468041841842933   dF: +1.735e-01   |Residual|: 4.479e-01   |deigs|: 1.308e-03  t[s]:   3660.18
	FillingsUpdate:  mu: +0.552499259  nElectrons: 726.000000
SCF: Cycle:  1   F: -8318.121734126798401   dF: -6.537e-01   |Residual|: 3.379e-01   |deigs|: 1.109e-02  t[s]:   3836.95
	FillingsUpdate:  mu: +0.553306463  nElectrons: 726.000000
SCF: Cycle:  2   F: -8318.206232839847871   dF: -8.450e-02   |Residual|: 1.001e-01   |deigs|: 3.351e-03  t[s]:   4013.30
	FillingsUpdate:  mu: +0.553674928  nElectrons: 726.000000
SCF: Cycle:  3   F: -8318.219950095945023   dF: -1.372e-02   |Residual|: 3.147e-02   |deigs|: 1.097e-03  t[s]:   4187.00
	FillingsUpdate:  mu: +0.553555579  nElectrons: 726.000000
SCF: Cycle:  4   F: -8318.221207635411702   dF: -1.258e-03   |Residual|: 1.051e-02   |deigs|: 5.792e-04  t[s]:   4348.49
	FillingsUpdate:  mu: +0.553550792  nElectrons: 726.000000
SCF: Cycle:  5   F: -8318.221233648820998   dF: -2.601e-05   |Residual|: 6.279e-03   |deigs|: 2.974e-04  t[s]:   4450.74
	FillingsUpdate:  mu: +0.553576097  nElectrons: 726.000000
SCF: Cycle:  6   F: -8318.221288413169532   dF: -5.476e-05   |Residual|: 1.008e-03   |deigs|: 1.107e-04  t[s]:   4553.37
	FillingsUpdate:  mu: +0.553573259  nElectrons: 726.000000
SCF: Cycle:  7   F: -8318.221288745609854   dF: -3.324e-07   |Residual|: 5.351e-04   |deigs|: 2.552e-05  t[s]:   4656.10
	FillingsUpdate:  mu: +0.553574148  nElectrons: 726.000000
SCF: Cycle:  8   F: -8318.221288944358093   dF: -1.987e-07   |Residual|: 1.300e-04   |deigs|: 1.007e-05  t[s]:   4758.83
	FillingsUpdate:  mu: +0.553573971  nElectrons: 726.000000
SCF: Cycle:  9   F: -8318.221288955459386   dF: -1.110e-08   |Residual|: 4.665e-05   |deigs|: 2.668e-06  t[s]:   4861.57
	FillingsUpdate:  mu: +0.553573964  nElectrons: 726.000000
SCF: Cycle: 10   F: -8318.221288957021898   dF: -1.563e-09   |Residual|: 1.813e-05   |deigs|: 8.252e-07  t[s]:   4964.84
	FillingsUpdate:  mu: +0.553573948  nElectrons: 726.000000
SCF: Cycle: 11   F: -8318.221288957465731   dF: -4.438e-10   |Residual|: 6.550e-06   |deigs|: 3.430e-07  t[s]:   5067.42
SCF: Converged (|Delta E|<1.000000e-08 for 2 iters).

Setting wave functions to eigenvectors of Hamiltonian

# Ionic positions in lattice coordinates:
ion Zn   0.116388483955544   0.222234074990685   0.125115271776502 1
ion Zn   0.217734007561807   0.097669893422920   0.369439637147951 1
ion Zn   0.106037183920042   0.221731277854059   0.628491717802253 1
ion Zn   0.233559816983379   0.115882694565290   0.869204258352389 1
ion Zn   0.120611667888971   0.559081107201831   0.127825150793440 1
ion Zn   0.222810843053478   0.456165313766648   0.383623815878086 1
ion Zn   0.092199319240158   0.551421240816877   0.632237019374526 1
ion Zn   0.210605191860458   0.454991125338155   0.900219444617393 1
ion Zn   0.102511139689481   0.884311394736968   0.122266518431874 1
ion Zn   0.227246972608455   0.783756240943808   0.382523749959956 1
ion Zn   0.118148404760492   0.887517065464576   0.635348028457197 1
ion Zn   0.231129730404650   0.788219094771253   0.882584907677011 1
ion Zn   0.434386560325158   0.231601772269240   0.105935355930926 1
ion Zn   0.550805249030729   0.110413715219370   0.359733330810718 1
ion Zn   0.436022744093987   0.244732872115724   0.623382925759548 1
ion Zn   0.542542413625846   0.127111345270641   0.874862279539224 1
ion Zn   0.437371113982217   0.550782571055606   0.123909999911900 1
ion Zn   0.557508057756068   0.434892195680451   0.389138005168966 1
ion Zn   0.470230794353359   0.564196125464482   0.631743351528817 1
ion Zn   0.551067889972946   0.451606141452712   0.872975906819096 1
ion Zn   0.454253375040979   0.902112630107548   0.104107325157180 1
ion Zn   0.571969731314652   0.778250884205918   0.363944988222483 1
ion Zn   0.438065243677397   0.878535946339750   0.625089187040972 1
ion Zn   0.566746314450250   0.780763605564940   0.868963963855321 1
ion Zn   0.758777153299272   0.224708682576212   0.121361521404920 1
ion Zn   0.905208120002435   0.098181651411320   0.366817844906798 1
ion Zn   0.782718725088306   0.194128123396143   0.623850211597777 1
ion Zn   0.889910581736719   0.105544046545662   0.897489158485418 1
ion Zn   0.766385643653666   0.545802785315036   0.117931041034558 1
ion Zn   0.896618450417293   0.446158432169991   0.371441185263685 1
ion Zn   0.777728761717823   0.555907890004016   0.620873650079090 1
ion Zn   0.887796784766157   0.454019401589645   0.872121874743671 1
ion Zn   0.785804268162597   0.895964868398109   0.128913226185299 1
ion Zn   0.870660481189762   0.791635829530800   0.376640292571598 1
ion Zn   0.789337526223219   0.889613824890808   0.613401534013681 1
ion Zn   0.893351142018455   0.772872123403363   0.891649364218983 1
ion O   0.324010112173793   0.373532012149438   0.543772955480792 1

# Forces in Lattice coordinates:
force Zn  -0.080162281499730   0.042106857162934   0.095938365502748 1
force Zn   0.123409390199380  -0.152285701211620  -0.215737419248785 1
force Zn  -1.066336731097774  -0.315816639535427   0.875390782635245 1
force Zn  -0.288998360147924   0.122673843951928  -0.043447374590325 1
force Zn  -0.163949849290389   0.126337898810309   0.114997487354986 1
force Zn  -0.289096423787205   0.263270226999248  -0.607990891804166 1
force Zn  -0.010677166598345   0.053675775932577   0.040417209442110 1
force Zn   0.098524317104692  -0.126833374287033  -0.304997501436716 1
force Zn   0.119811581455573  -0.074041131203032   0.099517144852008 1
force Zn   0.011334631029220  -0.062533656779236  -0.057462280115576 1
force Zn  -0.072777357985419   0.052387806677446  -0.025076747350361 1
force Zn  -0.012195976866672  -0.058669516796872  -0.078047930534014 1
force Zn   0.067530726812575  -0.098849966332965   0.253213310870446 1
force Zn   0.055405846468314  -0.040974682060591   0.116366712947054 1
force Zn   1.121654379590259  -1.322466194426298   0.503503395318183 1
force Zn   0.342459675726977  -0.218969165651490  -0.193584756802733 1
force Zn   0.080716042070827   0.077709148579351   0.150057934160930 1
force Zn   0.279553442550914  -0.057830624912167  -0.573485400541859 1
force Zn   0.524316273270228   2.183056923570386   1.805521383776924 1
force Zn   0.022256092501843   0.034274425402951   0.017420725363845 1
force Zn  -0.003905623595382  -0.092893075369635   0.180921397576512 1
force Zn  -0.417408605491552   0.204947626151112  -0.045914421861914 1
force Zn   0.052180768514384   0.016251954372491  -0.026294969292704 1
force Zn  -0.045284202605893   0.049362817050577  -0.017540392959177 1
force Zn   0.176273382063350  -0.036132599631620   0.049423423521610 1
force Zn  -0.302225293215842   0.495710957495740   0.000584619490024 1
force Zn  -0.227944809704884   0.252619644905486   0.029124149723179 1
force Zn  -0.036536330283493   0.071232470502542  -0.180729951576900 1
force Zn   0.029964300658575   0.059366375835428   0.122793087671150 1
force Zn  -0.044715673507816  -0.005672261981305  -0.015776781081618 1
force Zn   0.177934790383168  -0.076585796724690   0.053723029653346 1
force Zn   0.025683791248348  -0.127429509282712  -0.010007674116039 1
force Zn  -0.100341689289948  -0.021427182152981  -0.109980392465328 1
force Zn   0.557231370473225  -0.634613627997189  -0.051367016055536 1
force Zn  -0.035281961167334  -0.012782453740334   0.238435655607905 1
force Zn  -0.054889477213520   0.102184201331482  -0.163718991188397 1
force O  -0.613731792322417  -0.670312712547511  -2.026033785616136 1

# Energy components:
   Eewald =    -4555.4929260457774944
       EH =     3306.8237134978148788
     Eloc =    -7311.6940767253399827
      Enl =      262.7618629251981019
      Exc =     -755.4282950345998415
 Exc_core =        0.0628932943141188
       KE =      734.8247483613263284
-------------------------------------
     Etot =    -8318.1420797270639014
       TS =        0.0792092304017687
-------------------------------------
        F =    -8318.2212889574657311

IonicMinimize: Iter:   2  F: -8318.221288957465731  |grad|_K:  3.016e-02  alpha:  5.107e-01  linmin: -9.982e-01  t[s]:   5089.38

#--- Lowdin population analysis ---
# oxidation-state Zn -0.006 +0.042 +0.184 -0.018 +0.007 +0.154 -0.025 -0.002 +0.024 -0.001 -0.014 -0.010 -0.005 -0.002 +0.185 +0.008 -0.003 +0.096 +0.192 -0.021 +0.016 -0.011 +0.003 +0.019 +0.002 -0.024 +0.017 +0.022 +0.011 +0.014 -0.029 +0.008 -0.014 +0.005 -0.010 +0.010
# oxidation-state O -0.658


-------- Electronic minimization -----------
Will mix electronic density at each iteration.
	FillingsUpdate:  mu: +0.553573948  nElectrons: 726.000000
	FillingsUpdate:  mu: +0.555162785  nElectrons: 726.000000
SCF: Cycle:  0   F: -8316.917421625466886   dF: +4.973e-01   |Residual|: 5.622e-01   |deigs|: 2.085e-03  t[s]:   5329.83
	FillingsUpdate:  mu: +0.551977635  nElectrons: 726.000000
SCF: Cycle:  1   F: -8318.059861896070288   dF: -1.142e+00   |Residual|: 4.654e-01   |deigs|: 1.448e-02  t[s]:   5508.79
	FillingsUpdate:  mu: +0.552916583  nElectrons: 726.000000
SCF: Cycle:  2   F: -8318.242705569686223   dF: -1.828e-01   |Residual|: 1.348e-01   |deigs|: 4.897e-03  t[s]:   5682.55
	FillingsUpdate:  mu: +0.553587467  nElectrons: 726.000000
SCF: Cycle:  3   F: -8318.261903471257028   dF: -1.920e-02   |Residual|: 5.559e-02   |deigs|: 6.644e-04  t[s]:   5855.92
	FillingsUpdate:  mu: +0.553345545  nElectrons: 726.000000
SCF: Cycle:  4   F: -8318.266917371549425   dF: -5.014e-03   |Residual|: 1.284e-02   |deigs|: 8.946e-04  t[s]:   6019.53
	FillingsUpdate:  mu: +0.553358515  nElectrons: 726.000000
SCF: Cycle:  5   F: -8318.266897908033570   dF: +1.946e-05   |Residual|: 8.842e-03   |deigs|: 3.269e-04  t[s]:   6122.16
	FillingsUpdate:  mu: +0.553389100  nElectrons: 726.000000
SCF: Cycle:  6   F: -8318.267020068273268   dF: -1.222e-04   |Residual|: 1.372e-03   |deigs|: 1.446e-04  t[s]:   6225.83
	FillingsUpdate:  mu: +0.553387866  nElectrons: 726.000000
SCF: Cycle:  7   F: -8318.267021049634423   dF: -9.814e-07   |Residual|: 6.783e-04   |deigs|: 3.048e-05  t[s]:   6329.51
	FillingsUpdate:  mu: +0.553389448  nElectrons: 726.000000
SCF: Cycle:  8   F: -8318.267021284107614   dF: -2.345e-07   |Residual|: 2.063e-04   |deigs|: 1.261e-05  t[s]:   6432.53
	FillingsUpdate:  mu: +0.553389202  nElectrons: 726.000000
SCF: Cycle:  9   F: -8318.267021307288815   dF: -2.318e-08   |Residual|: 6.472e-05   |deigs|: 4.083e-06  t[s]:   6535.07
	FillingsUpdate:  mu: +0.553389250  nElectrons: 726.000000
SCF: Cycle: 10   F: -8318.267021309975462   dF: -2.687e-09   |Residual|: 2.887e-05   |deigs|: 1.219e-06  t[s]:   6638.15
	FillingsUpdate:  mu: +0.553389209  nElectrons: 726.000000
SCF: Cycle: 11   F: -8318.267021310779455   dF: -8.040e-10   |Residual|: 1.068e-05   |deigs|: 5.339e-07  t[s]:   6741.26
SCF: Converged (|Delta E|<1.000000e-08 for 2 iters).

Setting wave functions to eigenvectors of Hamiltonian

# Ionic positions in lattice coordinates:
ion Zn   0.116121493563519   0.222245608650966   0.125374642536904 1
ion Zn   0.217940160193109   0.097252207882767   0.368865611896199 1
ion Zn   0.101003201293041   0.218238823482983   0.630767359585506 1
ion Zn   0.232542384461052   0.115787099295109   0.869097582100198 1
ion Zn   0.120156759241042   0.559278024830002   0.128121229414154 1
ion Zn   0.222113897339432   0.456737515227974   0.382021993010999 1
ion Zn   0.092299041022017   0.551640350277598   0.632345589955675 1
ion Zn   0.210768655212607   0.454638773079904   0.899401981395495 1
ion Zn   0.102884566537911   0.884243632377379   0.122523561167900 1
ion Zn   0.227155685574787   0.783500143826817   0.382370891511216 1
ion Zn   0.117934450899201   0.887580786654560   0.635279905824754 1
ion Zn   0.230937480380207   0.787925088890234   0.882381529391359 1
ion Zn   0.434469008743487   0.231303419454830   0.106607543097158 1
ion Zn   0.550966896565446   0.110350802489388   0.360043164242015 1
ion Zn   0.437932240340090   0.241737674419860   0.624596724189366 1
ion Zn   0.543589026448664   0.126887682508664   0.874358281452218 1
ion Zn   0.437909545178263   0.551316457606993   0.124307451767809 1
ion Zn   0.558592124946868   0.435263374530702   0.387699834023643 1
ion Zn   0.474171726253885   0.570750093612725   0.634655715814868 1
ion Zn   0.551236427323528   0.451789560968065   0.873021957353819 1
ion Zn   0.454024052437873   0.901685222703024   0.104586867379803 1
ion Zn   0.570588484768179   0.778249545483349   0.363828309768564 1
ion Zn   0.438329283708505   0.878744913740022   0.625013951296309 1
ion Zn   0.566659474214854   0.780915270545034   0.868956683415398 1
ion Zn   0.759496580449064   0.224940731164088   0.121490114072243 1
ion Zn   0.904928157750199   0.099677905842597   0.366812816912653 1
ion Zn   0.782223477451464   0.194763097414137   0.623922811241514 1
ion Zn   0.889904398993814   0.105787248482169   0.897012725975808 1
ion Zn   0.766661117998185   0.546143026436317   0.118255805364599 1
ion Zn   0.896399209422732   0.446029081433114   0.371402746049196 1
ion Zn   0.778336795769935   0.555944362270201   0.621010391618907 1
ion Zn   0.887625569058944   0.453502380510014   0.872099710250874 1
ion Zn   0.785301837404583   0.895638518786108   0.128625443046400 1
ion Zn   0.871724116110164   0.790072088186347   0.376500926586092 1
ion Zn   0.789185131864392   0.889509133369870   0.614012416426024 1
ion Zn   0.893337709140472   0.773208467894809   0.891216774288237 1
ion O   0.322809831938484   0.372771885671279   0.540338956576125 1

# Forces in Lattice coordinates:
force Zn  -0.076234464967199   0.041597405005739   0.091872413442738 1
force Zn   0.109108854293985  -0.133222351816049  -0.191262293560120 1
force Zn  -0.738616462096716  -0.239166167991960   0.698994865961513 1
force Zn  -0.260793220811638   0.112599174966140  -0.032674919533385 1
force Zn  -0.152028414856896   0.115520926356892   0.096041719527306 1
force Zn  -0.267655056521676   0.244841093750654  -0.558231590101377 1
force Zn   0.004157076878405   0.043095161823093   0.038864226176120 1
force Zn   0.096232406424755  -0.120942421645367  -0.288614769335247 1
force Zn   0.112430882351841  -0.070441535392320   0.088057927277880 1
force Zn   0.009257038087072  -0.057361527468440  -0.052850848137339 1
force Zn  -0.068343397418547   0.048555628372778  -0.026660507763847 1
force Zn  -0.013204480161880  -0.054615955243287  -0.071047630288885 1
force Zn   0.066223361277078  -0.096574607946028   0.236514676440589 1
force Zn   0.056268116972758  -0.041794597841655   0.111159314471410 1
force Zn   0.858605526944378  -1.008394237946014   0.377872309134808 1
force Zn   0.316879371493983  -0.207311497617619  -0.171480351202754 1
force Zn   0.073773828872042   0.073078995269686   0.139257938212874 1
force Zn   0.237696930158705  -0.046417668497540  -0.492973000081015 1
force Zn   0.270705175307397   1.451883656146089   1.210686655651987 1
force Zn   0.023310198451282   0.021971397826325   0.020624333879919 1
force Zn  -0.005518206902592  -0.084889868710012   0.169600941941184 1
force Zn  -0.364323612147915   0.190288607968121  -0.040833689214119 1
force Zn   0.039514692457154   0.028107608506826  -0.029078784749543 1
force Zn  -0.048675244921859   0.061441796089387   0.012403762648598 1
force Zn   0.169080177724551  -0.037441744616065   0.044304566015049 1
force Zn  -0.281384190765973   0.432656710730656  -0.000730695486609 1
force Zn  -0.241755827475767   0.255965639146638   0.022324169595334 1
force Zn  -0.038445236279060   0.070419377917595  -0.165968015158043 1
force Zn   0.030728445769102   0.056818637461636   0.113163547390148 1
force Zn  -0.045643933881775  -0.004956583877799  -0.011639090476688 1
force Zn   0.158523240157656  -0.073566052416599   0.048668105079303 1
force Zn   0.024044471040646  -0.118769909489106  -0.004274845100184 1
force Zn  -0.092945959790138  -0.021445288224880  -0.098954783957812 1
force Zn   0.487113865378394  -0.553005797465136  -0.048891514862330 1
force Zn  -0.026516710953612  -0.008707199020659   0.204129941733036 1
force Zn  -0.048491974935932   0.093259048905697  -0.153162767453718 1
force O  -0.373214740034747  -0.362992268892626  -1.284169650171438 1

# Energy components:
   Eewald =    -4560.9444959479005774
       EH =     3301.6492174361646903
     Eloc =    -7300.9842313036278938
      Enl =      262.7202341350255210
      Exc =     -755.3786092299026222
 Exc_core =        0.0628954532826370
       KE =      734.6868793847511370
-------------------------------------
     Etot =    -8318.1881100722075644
       TS =        0.0789112385712612
-------------------------------------
        F =    -8318.2670213107794552

IonicMinimize: Iter:   3  F: -8318.267021310779455  |grad|_K:  2.101e-02  alpha:  4.212e-01  linmin: -9.822e-01  t[s]:   6763.45

#--- Lowdin population analysis ---
# oxidation-state Zn -0.007 +0.051 +0.175 -0.017 +0.007 +0.157 -0.019 +0.000 +0.022 -0.001 -0.015 -0.008 -0.005 -0.004 +0.180 +0.007 -0.005 +0.103 +0.175 -0.020 +0.016 -0.009 +0.002 +0.018 +0.003 -0.022 +0.016 +0.020 +0.011 +0.012 -0.029 +0.009 -0.013 +0.006 -0.010 +0.012
# oxidation-state O -0.651


-------- Electronic minimization -----------
Will mix electronic density at each iteration.
	FillingsUpdate:  mu: +0.553389209  nElectrons: 726.000000
	FillingsUpdate:  mu: +0.555559329  nElectrons: 726.000000
SCF: Cycle:  0   F: -8316.094240694068503   dF: +9.845e-01   |Residual|: 6.934e-01   |deigs|: 2.927e-03  t[s]:   7003.01
	FillingsUpdate:  mu: +0.551520231  nElectrons: 726.000000
SCF: Cycle:  1   F: -8317.922969648474464   dF: -1.829e+00   |Residual|: 6.074e-01   |deigs|: 1.850e-02  t[s]:   7179.84
	FillingsUpdate:  mu: +0.552484034  nElectrons: 726.000000
SCF: Cycle:  2   F: -8318.263557503332777   dF: -3.406e-01   |Residual|: 1.781e-01   |deigs|: 6.854e-03  t[s]:   7357.05
	FillingsUpdate:  mu: +0.553527736  nElectrons: 726.000000
SCF: Cycle:  3   F: -8318.289205617262269   dF: -2.565e-02   |Residual|: 9.191e-02   |deigs|: 1.493e-03  t[s]:   7533.20
	FillingsUpdate:  mu: +0.553094334  nElectrons: 726.000000
SCF: Cycle:  4   F: -8318.303809215280125   dF: -1.460e-02   |Residual|: 1.703e-02   |deigs|: 1.430e-03  t[s]:   7695.98
	FillingsUpdate:  mu: +0.553141312  nElectrons: 726.000000
SCF: Cycle:  5   F: -8318.303732801738079   dF: +7.641e-05   |Residual|: 1.191e-02   |deigs|: 3.875e-04  t[s]:   7799.06
	FillingsUpdate:  mu: +0.553180532  nElectrons: 726.000000
SCF: Cycle:  6   F: -8318.303987238963600   dF: -2.544e-04   |Residual|: 2.233e-03   |deigs|: 1.828e-04  t[s]:   7902.64
	FillingsUpdate:  mu: +0.553183562  nElectrons: 726.000000
SCF: Cycle:  7   F: -8318.303993021871065   dF: -5.783e-06   |Residual|: 8.385e-04   |deigs|: 3.976e-05  t[s]:   8005.34
	FillingsUpdate:  mu: +0.553185698  nElectrons: 726.000000
SCF: Cycle:  8   F: -8318.303993269100829   dF: -2.472e-07   |Residual|: 2.947e-04   |deigs|: 1.570e-05  t[s]:   8107.95
	FillingsUpdate:  mu: +0.553185712  nElectrons: 726.000000
SCF: Cycle:  9   F: -8318.303993326115233   dF: -5.701e-08   |Residual|: 8.159e-05   |deigs|: 5.057e-06  t[s]:   8211.37
	FillingsUpdate:  mu: +0.553185883  nElectrons: 726.000000
SCF: Cycle: 10   F: -8318.303993330888261   dF: -4.773e-09   |Residual|: 3.941e-05   |deigs|: 1.577e-06  t[s]:   8313.88
	FillingsUpdate:  mu: +0.553185851  nElectrons: 726.000000
SCF: Cycle: 11   F: -8318.303993332514437   dF: -1.626e-09   |Residual|: 1.246e-05   |deigs|: 6.487e-07  t[s]:   8417.21
SCF: Converged (|Delta E|<1.000000e-08 for 2 iters).

Setting wave functions to eigenvectors of Hamiltonian

# Ionic positions in lattice coordinates:
ion Zn   0.115683101910652   0.222281648830337   0.125808933701880 1
ion Zn   0.218263310117884   0.096651754654450   0.368005367478874 1
ion Zn   0.095838455386715   0.214491669917033   0.633662304120608 1
ion Zn   0.230971944761299   0.115660105780983   0.868972140151610 1
ion Zn   0.119412605034631   0.559578897747995   0.128530497942718 1
ion Zn   0.220985177960305   0.457638890293386   0.379469470884739 1
ion Zn   0.092566599393755   0.551997332562773   0.632529100706852 1
ion Zn   0.211067127187098   0.454061131622636   0.898050341111312 1
ion Zn   0.103492881133186   0.884124158880693   0.122913750025711 1
ion Zn   0.226998043030019   0.783086171180412   0.382127847160323 1
ion Zn   0.117581927075527   0.887685977735893   0.635146915822583 1
ion Zn   0.230607073291707   0.787437854930907   0.882059672316003 1
ion Zn   0.434615443478410   0.230787997869963   0.107702621284305 1
ion Zn   0.551260721404113   0.110235446652477   0.360564650958014 1
ion Zn   0.440275608752650   0.238058490604092   0.626022853286320 1
ion Zn   0.545248369266761   0.126477828977751   0.873594690635596 1
ion Zn   0.438772827512477   0.552183163412675   0.124949267032636 1
ion Zn   0.560165585375693   0.435817374408071   0.385584354069429 1
ion Zn   0.477520289179386   0.577184685762419   0.637773733004986 1
ion Zn   0.551489608035078   0.452001562881457   0.873128277410803 1
ion Zn   0.453640255752596   0.900998416856869   0.105373093523424 1
ion Zn   0.568602463882196   0.778375461784766   0.363647723883667 1
ion Zn   0.438734177106612   0.879171213508942   0.624863815194480 1
ion Zn   0.566527755705743   0.781282461302837   0.869114607152816 1
ion Zn   0.760697585178676   0.225303938459434   0.121688545705028 1
ion Zn   0.904328669684202   0.101809083217817   0.366801368320465 1
ion Zn   0.781218096008885   0.195859329119306   0.624010306203878 1
ion Zn   0.889867070341444   0.106201439391584   0.896253565388633 1
ion Zn   0.767146864903855   0.546727558330982   0.118774929707063 1
ion Zn   0.896000283450103   0.445801037259602   0.371358913545844 1
ion Zn   0.779243955487689   0.555950200955940   0.621227629831092 1
ion Zn   0.887347896558718   0.452661717604000   0.872095705666729 1
ion Zn   0.784483536591941   0.895096007836428   0.128179550310443 1
ion Zn   0.873312911054795   0.787761904549074   0.376269924525797 1
ion Zn   0.789001406684596   0.889386496325950   0.614894733943120 1
ion Zn   0.893332940401339   0.773748646891352   0.890508105075619 1
ion O   0.321957431919262   0.372472941898713   0.537270692916600 1

# Forces in Lattice coordinates:
force Zn  -0.069965897583065   0.040278224113246   0.083528356899363 1
force Zn   0.087415724742541  -0.102397422546515  -0.156886124008643 1
force Zn  -0.453276422479401  -0.169580153303889   0.521187075392657 1
force Zn  -0.217694956163571   0.096210123456859  -0.016166002230662 1
force Zn  -0.134923963780749   0.100119521725162   0.065279548082957 1
force Zn  -0.217545803109525   0.196221294635125  -0.472650361992159 1
force Zn   0.020981507409055   0.030553724524106   0.035571234433387 1
force Zn   0.092159060825654  -0.111046146816461  -0.259785365322337 1
force Zn   0.100358955566436  -0.063094193170853   0.071371767138189 1
force Zn   0.005727128917450  -0.048653905120717  -0.044967326475399 1
force Zn  -0.061948982438389   0.043911095842667  -0.029170457954120 1
force Zn  -0.013768776875253  -0.048547957637426  -0.061388609258408 1
force Zn   0.064451401684310  -0.092720080410481   0.210044356580983 1
force Zn   0.056585575817505  -0.042064861183626   0.103460285639056 1
force Zn   0.623484080162333  -0.728428046786618   0.252869711334571 1
force Zn   0.277521273765275  -0.188685823116158  -0.138969183615233 1
force Zn   0.063525195637504   0.064870883852914   0.121624205639961 1
force Zn   0.183198709161956  -0.032251438573430  -0.400810383871987 1
force Zn   0.111549674697690   0.931448682233029   0.782684919482472 1
force Zn   0.025153015974334   0.006603773911745   0.026260723447699 1
force Zn  -0.008232458150375  -0.072399614624935   0.152969641466328 1
force Zn  -0.293361937719656   0.168025265008289  -0.031500789430103 1
force Zn   0.024160989808921   0.040443097751993  -0.032080774186702 1
force Zn  -0.052116688153617   0.073596697272258   0.047455689777532 1
force Zn   0.156914995522905  -0.038558691680165   0.037179412027955 1
force Zn  -0.249234440764656   0.349722666988722   0.001695854143365 1
force Zn  -0.244423018871002   0.251117343606879   0.012339085366863 1
force Zn  -0.040741359549770   0.068583045451454  -0.144980155986907 1
force Zn   0.031174322404621   0.052739181711833   0.097632294313231 1
force Zn  -0.046978720458657  -0.003751753036316  -0.004999245879755 1
force Zn   0.128805193898960  -0.065006372478278   0.043136408343997 1
force Zn   0.021765732660539  -0.105642302000007   0.003827799624531 1
force Zn  -0.081088403104431  -0.021141622079778  -0.083270682583825 1
force Zn   0.393785345186629  -0.444524389718649  -0.043481165402680 1
force Zn  -0.017892039905326  -0.003692966939125   0.158052325929344 1
force Zn  -0.040022390029828   0.080249835280712  -0.138141735172105 1
force O  -0.225690631149278  -0.212415097135459  -0.768816995359197 1

# Energy components:
   Eewald =    -4566.6929453981001643
       EH =     3296.1445978144288347
     Eloc =    -7289.6487342487616843
      Enl =      262.6856866258066816
      Exc =     -755.3298219959441440
 Exc_core =        0.0628967859010219
       KE =      734.5529522213128075
-------------------------------------
     Etot =    -8318.2253681953570776
       TS =        0.0786251371567184
-------------------------------------
        F =    -8318.3039933325144375

IonicMinimize: Iter:   4  F: -8318.303993332514437  |grad|_K:  1.436e-02  alpha:  4.095e-01  linmin: -9.752e-01  t[s]:   8439.25

#--- Lowdin population analysis ---
# oxidation-state Zn -0.009 +0.060 +0.164 -0.015 +0.008 +0.156 -0.012 +0.002 +0.020 -0.002 -0.016 -0.005 -0.005 -0.006 +0.175 +0.005 -0.007 +0.109 +0.160 -0.019 +0.016 -0.007 +0.002 +0.015 +0.005 -0.020 +0.014 +0.018 +0.009 +0.009 -0.030 +0.011 -0.012 +0.008 -0.011 +0.015
# oxidation-state O -0.643


-------- Electronic minimization -----------
Will mix electronic density at each iteration.
	FillingsUpdate:  mu: +0.553185851  nElectrons: 726.000000
	FillingsUpdate:  mu: +0.555780251  nElectrons: 726.000000
SCF: Cycle:  0   F: -8314.872849505309205   dF: +1.661e+00   |Residual|: 8.545e-01   |deigs|: 4.052e-03  t[s]:   8679.05
	FillingsUpdate:  mu: +0.551179160  nElectrons: 726.000000
SCF: Cycle:  1   F: -8317.693212380101613   dF: -2.820e+00   |Residual|: 7.665e-01   |deigs|: 2.387e-02  t[s]:   8856.59
	FillingsUpdate:  mu: +0.552023209  nElectrons: 726.000000
SCF: Cycle:  2   F: -8318.261772263564126   dF: -5.686e-01   |Residual|: 2.332e-01   |deigs|: 9.425e-03  t[s]:   9034.30
	FillingsUpdate:  mu: +0.553534921  nElectrons: 726.000000
SCF: Cycle:  3   F: -8318.297724656431456   dF: -3.595e-02   |Residual|: 1.430e-01   |deigs|: 2.870e-03  t[s]:   9210.15
	FillingsUpdate:  mu: +0.552824990  nElectrons: 726.000000
SCF: Cycle:  4   F: -8318.333195339933809   dF: -3.547e-02   |Residual|: 2.607e-02   |deigs|: 2.049e-03  t[s]:   9375.03
	FillingsUpdate:  mu: +0.552890553  nElectrons: 726.000000
SCF: Cycle:  5   F: -8318.332922519444764   dF: +2.728e-04   |Residual|: 1.842e-02   |deigs|: 4.842e-04  t[s]:   9477.12
	FillingsUpdate:  mu: +0.552953463  nElectrons: 726.000000
SCF: Cycle:  6   F: -8318.333610694424351   dF: -6.882e-04   |Residual|: 4.420e-03   |deigs|: 2.443e-04  t[s]:   9579.44
	FillingsUpdate:  mu: +0.552963556  nElectrons: 726.000000
SCF: Cycle:  7   F: -8318.333648413905394   dF: -3.772e-05   |Residual|: 1.261e-03   |deigs|: 6.956e-05  t[s]:   9682.16
	FillingsUpdate:  mu: +0.552967514  nElectrons: 726.000000
SCF: Cycle:  8   F: -8318.333649170685021   dF: -7.568e-07   |Residual|: 6.277e-04   |deigs|: 2.195e-05  t[s]:   9785.36
	FillingsUpdate:  mu: +0.552968897  nElectrons: 726.000000
SCF: Cycle:  9   F: -8318.333649778338440   dF: -6.077e-07   |Residual|: 1.439e-04   |deigs|: 9.865e-06  t[s]:   9891.20
	FillingsUpdate:  mu: +0.552969198  nElectrons: 726.000000
SCF: Cycle: 10   F: -8318.333649801194042   dF: -2.286e-08   |Residual|: 5.373e-05   |deigs|: 2.828e-06  t[s]:   9993.90
	FillingsUpdate:  mu: +0.552969270  nElectrons: 726.000000
SCF: Cycle: 11   F: -8318.333649803194930   dF: -2.001e-09   |Residual|: 2.233e-05   |deigs|: 8.992e-07  t[s]:  10096.85
	FillingsUpdate:  mu: +0.552969255  nElectrons: 726.000000
SCF: Cycle: 12   F: -8318.333649803984372   dF: -7.894e-10   |Residual|: 5.639e-06   |deigs|: 4.227e-07  t[s]:  10200.49
SCF: Converged (|Delta E|<1.000000e-08 for 2 iters).

Setting wave functions to eigenvectors of Hamiltonian

# Ionic positions in lattice coordinates:
ion Zn   0.115002685598798   0.222374666596081   0.126487751274396 1
ion Zn   0.218735613057386   0.095946752870781   0.366829054396170 1
ion Zn   0.091311211347252   0.210913223998468   0.637138252039267 1
ion Zn   0.228784365779681   0.115520284559118   0.868912764791019 1
ion Zn   0.118253996443857   0.559997440502934   0.128945798131412 1
ion Zn   0.219437805326541   0.458769647577465   0.375821853823942 1
ion Zn   0.093196030431047   0.552560184226871   0.632819081450768 1
ion Zn   0.211608586366209   0.453175834258560   0.895959054750957 1
ion Zn   0.104427085136392   0.883941537234214   0.123442060545278 1
ion Zn   0.226733596591541   0.782473399731561   0.381779203371342 1
ion Zn   0.117030526492079   0.887856874316122   0.634886397771842 1
ion Zn   0.230069378040594   0.786675787188436   0.881583431159614 1
ion Zn   0.434878841547695   0.229929055553604   0.109373576104050 1
ion Zn   0.551781644474981   0.110032100518315   0.361411310324616 1
ion Zn   0.443066388979021   0.233733772288626   0.627461004016913 1
ion Zn   0.547674233977227   0.125739281389337   0.872564111847165 1
ion Zn   0.440055647090105   0.553486357947699   0.125906845459623 1
ion Zn   0.562186596760936   0.436574673880489   0.382666135449765 1
ion Zn   0.480081101780647   0.583413926111324   0.641093430447336 1
ion Zn   0.551849232532111   0.452150688497580   0.873376629456206 1
ion Zn   0.453021626088105   0.899973083868741   0.106599778885210 1
ion Zn   0.566066686825490   0.778806859386245   0.363421432414491 1
ion Zn   0.439301805113772   0.879987097263403   0.624572793890446 1
ion Zn   0.566331643073702   0.782080012702871   0.869709575931405 1
ion Zn   0.762602544312647   0.225825932134849   0.121970944408476 1
ion Zn   0.903144569874819   0.104503146470576   0.366817841280387 1
ion Zn   0.779403627436163   0.197689748206994   0.624067578781411 1
ion Zn   0.889746784918509   0.106881097472617   0.895117121999125 1
ion Zn   0.767975151233270   0.547693578447722   0.119536990209670 1
ion Zn   0.895282622293951   0.445407901510590   0.371347426104988 1
ion Zn   0.780432267722417   0.555875117239592   0.621564564174642 1
ion Zn   0.886929757314931   0.451378079908376   0.872167885291300 1
ion Zn   0.783242835782366   0.894245360598941   0.127544629596005 1
ion Zn   0.875479534855115   0.784684401385681   0.375920476904770 1
ion Zn   0.788828516670763   0.889297135912537   0.616014020278569 1
ion Zn   0.893353650893038   0.774555375038756   0.889401576500490 1
ion O   0.320951807836842   0.371900583203923   0.534697616736936 1

# Forces in Lattice coordinates:
force Zn  -0.060240885374870   0.036987732732446   0.069896780136391 1
force Zn   0.059146040506796  -0.062365216957448  -0.115475840951621 1
force Zn  -0.249104338647213  -0.106963289960895   0.365523923910768 1
force Zn  -0.158616144227365   0.072247272294776   0.005890233388179 1
force Zn  -0.112401711409049   0.080098063837378   0.022144888424013 1
force Zn  -0.137417645700572   0.118196335214391  -0.350953748531816 1
force Zn   0.038417011324655   0.016727163730213   0.029900757903910 1
force Zn   0.085882229192122  -0.096174180667759  -0.217497802482548 1
force Zn   0.082085359159828  -0.050367899487503   0.048395940916109 1
force Zn   0.000479133293970  -0.036039959548109  -0.033429426779992 1
force Zn  -0.052888925151568   0.037429348966604  -0.031895010256992 1
force Zn  -0.013837619994205  -0.039853073838872  -0.049031280694829 1
force Zn   0.061634014402820  -0.085690008127739   0.172748319598277 1
force Zn   0.054528546311780  -0.040228945939319   0.091718517659368 1
force Zn   0.426539056010405  -0.491822862038518   0.143013136337526 1
force Zn   0.223455077403598  -0.162389505598735  -0.094586354710041 1
force Zn   0.049843603984199   0.051455035577711   0.095954005563417 1
force Zn   0.117550077420227  -0.014359898470373  -0.300982025688470 1
force Zn   0.011892769315676   0.538123570827405   0.453216135969120 1
force Zn   0.026871177526404  -0.010321889311575   0.032350492944639 1
force Zn  -0.012572601238767  -0.054295409814208   0.130768676523260 1
force Zn  -0.210635864079472   0.137030594205747  -0.016106888459461 1
force Zn   0.007329942720503   0.050357566780722  -0.034503173916394 1
force Zn  -0.054099418204099   0.082454382312517   0.083688193281468 1
force Zn   0.137523330554117  -0.038605661793024   0.028125566679611 1
force Zn  -0.206283222692055   0.254297463880093   0.008413518270288 1
force Zn  -0.221167721667459   0.229288032652946  -0.000755118709513 1
force Zn  -0.042511018383516   0.064667518564134  -0.117003039477751 1
force Zn   0.030935924504241   0.046214031716597   0.074530434721080 1
force Zn  -0.046401161731606  -0.002619874200059   0.004885106683581 1
force Zn   0.088230093826883  -0.049532308834010   0.037359652556912 1
force Zn   0.018941771316129  -0.086741503227199   0.013728340146887 1
force Zn  -0.063207061810280  -0.020177848828867  -0.063857544380073 1
force Zn   0.286521231538679  -0.318754902503920  -0.034709240914901 1
force Zn  -0.010581907200515   0.004895204088958   0.103218127763519 1
force Zn  -0.030065048948949   0.062786251300050  -0.118066352842810 1
force O  -0.125957192967544  -0.115782606969196  -0.437310474061524 1

# Energy components:
   Eewald =    -4572.2332210561862667
       EH =     3290.8064673318754103
     Eloc =    -7278.6912912699181106
      Enl =      262.6576833163519495
      Exc =     -755.2832843158430478
 Exc_core =        0.0628953249594869
       KE =      734.4254527721445811
-------------------------------------
     Etot =    -8318.2552978966159571
       TS =        0.0783519073691271
-------------------------------------
        F =    -8318.3336498039843718

IonicMinimize: Iter:   5  F: -8318.333649803984372  |grad|_K:  9.307e-03  alpha:  4.361e-01  linmin: -9.772e-01  t[s]:  10222.45

#--- Lowdin population analysis ---
# oxidation-state Zn -0.009 +0.069 +0.155 -0.014 +0.008 +0.151 -0.003 +0.003 +0.017 -0.003 -0.018 -0.001 -0.004 -0.009 +0.168 +0.003 -0.008 +0.114 +0.148 -0.017 +0.017 -0.005 +0.001 +0.012 +0.008 -0.016 +0.012 +0.015 +0.006 +0.006 -0.030 +0.012 -0.009 +0.009 -0.012 +0.019
# oxidation-state O -0.633


-------- Electronic minimization -----------
Will mix electronic density at each iteration.
	FillingsUpdate:  mu: +0.552969255  nElectrons: 726.000000
	FillingsUpdate:  mu: +0.554188988  nElectrons: 726.000000
SCF: Cycle:  0   F: -8315.016480563434015   dF: +1.258e+00   |Residual|: 8.566e-01   |deigs|: 4.345e-03  t[s]:  10463.51
	FillingsUpdate:  mu: +0.551090885  nElectrons: 726.000000
SCF: Cycle:  1   F: -8317.743894719478703   dF: -2.727e+00   |Residual|: 7.337e-01   |deigs|: 2.448e-02  t[s]:  10640.07
	FillingsUpdate:  mu: +0.551983796  nElectrons: 726.000000
SCF: Cycle:  2   F: -8318.288091709944638   dF: -5.442e-01   |Residual|: 2.105e-01   |deigs|: 8.859e-03  t[s]:  10818.57
	FillingsUpdate:  mu: +0.553271910  nElectrons: 726.000000
SCF: Cycle:  3   F: -8318.324076352653719   dF: -3.598e-02   |Residual|: 1.317e-01   |deigs|: 2.124e-03  t[s]:  10993.31
	FillingsUpdate:  mu: +0.552599267  nElectrons: 726.000000
SCF: Cycle:  4   F: -8318.353166366910955   dF: -2.909e-02   |Residual|: 3.012e-02   |deigs|: 1.911e-03  t[s]:  11158.83
	FillingsUpdate:  mu: +0.552695665  nElectrons: 726.000000
SCF: Cycle:  5   F: -8318.353428667061962   dF: -2.623e-04   |Residual|: 1.912e-02   |deigs|: 4.385e-04  t[s]:  11261.27
	FillingsUpdate:  mu: +0.552763185  nElectrons: 726.000000
SCF: Cycle:  6   F: -8318.354162985753646   dF: -7.343e-04   |Residual|: 3.993e-03   |deigs|: 2.426e-04  t[s]:  11363.42
	FillingsUpdate:  mu: +0.552771330  nElectrons: 726.000000
SCF: Cycle:  7   F: -8318.354191394009831   dF: -2.841e-05   |Residual|: 1.273e-03   |deigs|: 6.212e-05  t[s]:  11465.77
	FillingsUpdate:  mu: +0.552775758  nElectrons: 726.000000
SCF: Cycle:  8   F: -8318.354192261336721   dF: -8.673e-07   |Residual|: 5.266e-04   |deigs|: 2.394e-05  t[s]:  11568.44
	FillingsUpdate:  mu: +0.552776730  nElectrons: 726.000000
SCF: Cycle:  9   F: -8318.354192621347465   dF: -3.600e-07   |Residual|: 1.230e-04   |deigs|: 8.815e-06  t[s]:  11671.22
	FillingsUpdate:  mu: +0.552776842  nElectrons: 726.000000
SCF: Cycle: 10   F: -8318.354192633945786   dF: -1.260e-08   |Residual|: 5.446e-05   |deigs|: 2.526e-06  t[s]:  11774.46
	FillingsUpdate:  mu: +0.552776940  nElectrons: 726.000000
SCF: Cycle: 11   F: -8318.354192636190419   dF: -2.245e-09   |Residual|: 2.094e-05   |deigs|: 1.040e-06  t[s]:  11877.41
	FillingsUpdate:  mu: +0.552776926  nElectrons: 726.000000
SCF: Cycle: 12   F: -8318.354192636883454   dF: -6.930e-10   |Residual|: 6.086e-06   |deigs|: 4.217e-07  t[s]:  11979.89
SCF: Converged (|Delta E|<1.000000e-08 for 2 iters).

Setting wave functions to eigenvectors of Hamiltonian

# Ionic positions in lattice coordinates:
ion Zn   0.114119124379665   0.222553623639791   0.127361405478957 1
ion Zn   0.219294257806687   0.095452771607454   0.365528931194390 1
ion Zn   0.088052322434230   0.208083319882887   0.640839784521398 1
ion Zn   0.226435871249358   0.115421787080014   0.869124166149345 1
ion Zn   0.116713258147730   0.560456802004270   0.128996068112411 1
ion Zn   0.218006334890683   0.459578729400918   0.371770494189087 1
ion Zn   0.094406593527664   0.553334123204855   0.633194445497108 1
ion Zn   0.212492704935864   0.452060111817340   0.893254976167957 1
ion Zn   0.105621688681273   0.883751709236288   0.123960868087543 1
ion Zn   0.226339826239083   0.781744507924828   0.381392507611219 1
ion Zn   0.116299010446747   0.888088091821292   0.634437596620854 1
ion Zn   0.229327694336320   0.785679766860544   0.880996845035241 1
ion Zn   0.435316451962223   0.228711802460966   0.111494547976822 1
ion Zn   0.552571231879076   0.109735893765176   0.362585802058313 1
ion Zn   0.446083433670651   0.229303821660258   0.628512627648089 1
ion Zn   0.550543788258999   0.124558497307403   0.871548489524195 1
ion Zn   0.441597805026249   0.555055275548797   0.127059008632025 1
ion Zn   0.564110864131509   0.437433661664381   0.379288337980388 1
ion Zn   0.481265764963219   0.588367770698494   0.644034422385961 1
ion Zn   0.552272834866682   0.452037440828450   0.873853593065316 1
ion Zn   0.452153399455494   0.898732255418662   0.108235850057373 1
ion Zn   0.563547376187222   0.779685704605696   0.363286371529573 1
ion Zn   0.439927090296992   0.881277321764824   0.624086345339578 1
ion Zn   0.566067351765708   0.783476413854802   0.871098326178437 1
ion Zn   0.765145004330666   0.226422542601832   0.122295756873027 1
ion Zn   0.901222000251931   0.107143314287566   0.366957659058182 1
ion Zn   0.776960006487402   0.200334719874058   0.623978585642857 1
ion Zn   0.889471091156283   0.107838063736992   0.893703408238333 1
ion Zn   0.769194199153248   0.549056789208834   0.120414924487397 1
ion Zn   0.894183876049723   0.444823121994255   0.371469780596390 1
ion Zn   0.781553554207381   0.555676959049512   0.622028871074542 1
ion Zn   0.886429225269133   0.449766468772208   0.872416044600311 1
ion Zn   0.781726705955720   0.893142998754465   0.126802244971625 1
ion Zn   0.877915940461503   0.781433705493769   0.375497623580575 1
ion Zn   0.788785170642755   0.889421748953614   0.617058814891756 1
ion Zn   0.893404988490722   0.775533585630845   0.887925798311351 1
ion O   0.319702158004206   0.370874777583658   0.532438676632074 1

# Forces in Lattice coordinates:
force Zn  -0.047731933744819   0.031029481298683   0.052794383068340 1
force Zn   0.031075494270998  -0.024585431416064  -0.074660162636605 1
force Zn  -0.127364325610571  -0.052518959455522   0.239104139495510 1
force Zn  -0.095189415836510   0.044608234750093   0.027238275557487 1
force Zn  -0.087098578069987   0.057931953631808  -0.020387013815757 1
force Zn  -0.063603604558814   0.045649527919132  -0.235009919996533 1
force Zn   0.050317592348306   0.005257788652532   0.022754318255373 1
force Zn   0.077914425170990  -0.077870039707543  -0.169758945788189 1
force Zn   0.059619502036509  -0.033223773294665   0.023465336573619 1
force Zn  -0.004855519002559  -0.024197458269002  -0.021227213857292 1
force Zn  -0.042195744705458   0.030110630080387  -0.033138973202504 1
force Zn  -0.013408311578597  -0.029700556507654  -0.036807796913172 1
force Zn   0.057190728167195  -0.074411509483469   0.131400895747451 1
force Zn   0.047531396556631  -0.034024980528002   0.075620567669065 1
force Zn   0.273334333632696  -0.310984890768456   0.065199658132241 1
force Zn   0.164268872109756  -0.132201756329101  -0.046009433380799 1
force Zn   0.035213479957914   0.034302766933251   0.066496604902734 1
force Zn   0.057323535744696   0.002430986647808  -0.211681480886618 1
force Zn  -0.038167693876393   0.272607994426316   0.233526654084322 1
force Zn   0.026614347994947  -0.022719467276905   0.034348083570995 1
force Zn  -0.017945369306056  -0.033442356605998   0.107632678696667 1
force Zn  -0.134886640773492   0.102238719908438   0.002251249484871 1
force Zn  -0.004764052412094   0.051165331943464  -0.034197666108842 1
force Zn  -0.051727315806105   0.079459899284750   0.104796369102763 1
force Zn   0.111998596597311  -0.036375903279322   0.019463973792666 1
force Zn  -0.159790456513996   0.167768252708781   0.016495414442538 1
force Zn  -0.169313750571687   0.189739991514728  -0.013869172312582 1
force Zn  -0.041906918666871   0.057508212532022  -0.085303316124175 1
force Zn   0.029525934479043   0.037198980662300   0.047313649524835 1
force Zn  -0.039125456822999  -0.002707289219281   0.015859160496714 1
force Zn   0.046605464039791  -0.029876561006052   0.032764357405537 1
force Zn   0.016102356901851  -0.064088990334588   0.022023067300694 1
force Zn  -0.041263747284600  -0.018082355335405  -0.044801385293190 1
force Zn   0.190294050375714  -0.204455181619574  -0.024236046680653 1
force Zn  -0.009613044749991   0.013956369770218   0.053148142108640 1
force Zn  -0.021579252381890   0.044281383302119  -0.096548237712391 1
force O  -0.063442961549111  -0.061556773279738  -0.246429849205402 1

# Energy components:
   Eewald =    -4576.4189110455254195
       EH =     3286.7561742849075017
     Eloc =    -7270.3903986671002713
      Enl =      262.6385057481776357
      Exc =     -755.2456396197676440
 Exc_core =        0.0628934507565578
       KE =      734.3213046624655362
-------------------------------------
     Etot =    -8318.2760711860846641
       TS =        0.0781214507986020
-------------------------------------
        F =    -8318.3541926368834538

IonicMinimize: Iter:   6  F: -8318.354192636883454  |grad|_K:  5.801e-03  alpha:  4.529e-01  linmin: -9.830e-01  t[s]:  12002.02

#--- Lowdin population analysis ---
# oxidation-state Zn -0.010 +0.078 +0.147 -0.012 +0.008 +0.145 +0.005 +0.004 +0.012 -0.004 -0.020 +0.003 -0.003 -0.012 +0.161 +0.002 -0.010 +0.117 +0.139 -0.015 +0.017 -0.003 -0.001 +0.009 +0.011 -0.012 +0.010 +0.011 +0.003 +0.003 -0.030 +0.013 -0.006 +0.011 -0.012 +0.023
# oxidation-state O -0.625


-------- Electronic minimization -----------
Will mix electronic density at each iteration.
	FillingsUpdate:  mu: +0.552776926  nElectrons: 726.000000
	FillingsUpdate:  mu: +0.552030754  nElectrons: 726.000000
SCF: Cycle:  0   F: -8315.657570498722635   dF: +3.868e-01   |Residual|: 8.214e-01   |deigs|: 4.419e-03  t[s]:  12241.19
	FillingsUpdate:  mu: +0.551212173  nElectrons: 726.000000
SCF: Cycle:  1   F: -8317.916347236945512   dF: -2.259e+00   |Residual|: 6.233e-01   |deigs|: 2.436e-02  t[s]:  12418.74
	FillingsUpdate:  mu: +0.552240488  nElectrons: 726.000000
SCF: Cycle:  2   F: -8318.304171553465494   dF: -3.878e-01   |Residual|: 1.849e-01   |deigs|: 7.681e-03  t[s]:  12597.66
	FillingsUpdate:  mu: +0.552794864  nElectrons: 726.000000
SCF: Cycle:  3   F: -8318.359400627261493   dF: -5.523e-02   |Residual|: 7.543e-02   |deigs|: 1.455e-03  t[s]:  12772.68
	FillingsUpdate:  mu: +0.552482614  nElectrons: 726.000000
SCF: Cycle:  4   F: -8318.366183772206568   dF: -6.783e-03   |Residual|: 2.925e-02   |deigs|: 1.230e-03  t[s]:  12933.38
	FillingsUpdate:  mu: +0.552603298  nElectrons: 726.000000
SCF: Cycle:  5   F: -8318.367573520417864   dF: -1.390e-03   |Residual|: 9.482e-03   |deigs|: 3.237e-04  t[s]:  13094.72
	FillingsUpdate:  mu: +0.552617533  nElectrons: 726.000000
SCF: Cycle:  6   F: -8318.367702165227456   dF: -1.286e-04   |Residual|: 1.946e-03   |deigs|: 1.501e-04  t[s]:  13197.32
	FillingsUpdate:  mu: +0.552622159  nElectrons: 726.000000
SCF: Cycle:  7   F: -8318.367704047368534   dF: -1.882e-06   |Residual|: 8.440e-04   |deigs|: 2.752e-05  t[s]:  13300.18
	FillingsUpdate:  mu: +0.552622113  nElectrons: 726.000000
SCF: Cycle:  8   F: -8318.367704485417562   dF: -4.380e-07   |Residual|: 3.411e-04   |deigs|: 1.788e-05  t[s]:  13403.14
	FillingsUpdate:  mu: +0.552623010  nElectrons: 726.000000
SCF: Cycle:  9   F: -8318.367704617190611   dF: -1.318e-07   |Residual|: 8.071e-05   |deigs|: 5.472e-06  t[s]:  13506.57
	FillingsUpdate:  mu: +0.552622879  nElectrons: 726.000000
SCF: Cycle: 10   F: -8318.367704624492035   dF: -7.301e-09   |Residual|: 3.870e-05   |deigs|: 1.266e-06  t[s]:  13609.44
	FillingsUpdate:  mu: +0.552622943  nElectrons: 726.000000
SCF: Cycle: 11   F: -8318.367704626165505   dF: -1.673e-09   |Residual|: 1.069e-05   |deigs|: 7.903e-07  t[s]:  13713.23
SCF: Converged (|Delta E|<1.000000e-08 for 2 iters).

Setting wave functions to eigenvectors of Hamiltonian

# Ionic positions in lattice coordinates:
ion Zn   0.113062436533318   0.222830611410518   0.128371955101707 1
ion Zn   0.219859102412571   0.095469853131157   0.364275086174659 1
ion Zn   0.085835528512802   0.206235267667446   0.644624391406102 1
ion Zn   0.224443256215411   0.115383796473596   0.869884314569722 1
ion Zn   0.114774937204741   0.560853703532753   0.128214747886091 1
ion Zn   0.217034180252448   0.459596360140857   0.367684360632785 1
ion Zn   0.096468178049839   0.554369808751187   0.633632319592281 1
ion Zn   0.213933682618024   0.450815406248535   0.889977701434159 1
ion Zn   0.107015735144025   0.883687275509079   0.124269693874532 1
ion Zn   0.225731434830694   0.780901385082692   0.381032816270328 1
ion Zn   0.115395686582370   0.888390485457849   0.633710587422572 1
ion Zn   0.228359779639013   0.784478602648805   0.880309470308804 1
ion Zn   0.436058531175169   0.227134809427733   0.113993225895675 1
ion Zn   0.553655291983535   0.109382673028336   0.364094854304035 1
ion Zn   0.449223003492971   0.224892315003874   0.629027102425649 1
ion Zn   0.553542657351602   0.122725389774065   0.870940910159921 1
ion Zn   0.443211724664089   0.556648159633941   0.128263157848716 1
ion Zn   0.565475702903334   0.438364359593144   0.375567601419989 1
ion Zn   0.480846602433050   0.591605786007803   0.646454789225511 1
ion Zn   0.552734987677237   0.451484839786970   0.874624833638091 1
ion Zn   0.450954313429990   0.897416087358385   0.110357501510512 1
ion Zn   0.561398718379758   0.781073743851739   0.363466528598774 1
ion Zn   0.440523017630918   0.883048158917880   0.623342578377668 1
ion Zn   0.565654957312805   0.785494357917572   0.873595937804450 1
ion Zn   0.768275376955153   0.226998778413739   0.122640036691339 1
ion Zn   0.898413457141750   0.109352727745715   0.367364792477105 1
ion Zn   0.774488878789129   0.204015021414472   0.623574371478951 1
ion Zn   0.888941758501103   0.109094737499652   0.892120097845125 1
ion Zn   0.770891502535943   0.550845975713686   0.121227678602869 1
ion Zn   0.892757757634755   0.444041937157574   0.371893034242263 1
ion Zn   0.782259348683000   0.555384257032673   0.622686092904303 1
ion Zn   0.885949156362609   0.447983740968784   0.872963899017583 1
ion Zn   0.780169328954367   0.891883353650355   0.126002036102727 1
ion Zn   0.880529807703297   0.778432646853832   0.375054193425168 1
ion Zn   0.788815937997037   0.889906735191292   0.617758119843970 1
ion Zn   0.893432629524177   0.776573457746677   0.886026967515472 1
ion O   0.318141612787965   0.369253394255633   0.529902213970394 1

# Forces in Lattice coordinates:
force Zn  -0.032995738166313   0.021903136397556   0.033328513538153 1
force Zn   0.007839701181800   0.003303158429464  -0.037511771569541 1
[...]
ion Zn   0.777306051798361   0.890188045683117   0.623429420636427 1
ion Zn   0.889112034506937   0.779984505411266   0.874613850110603 1
ion O   0.328093262016191   0.343828314468080   0.499527087092112 1

# Forces in Lattice coordinates:
force Zn   0.002542651866089   0.001459365643421   0.000052205205660 1
force Zn  -0.003222327972638   0.001951742957814   0.000422319199394 1
force Zn  -0.010205825282894  -0.000862375087638   0.006363738070252 1
force Zn  -0.002094785484969   0.000945803088330   0.000119273541848 1
force Zn  -0.000153894799769  -0.000005226134197   0.004781354770133 1
force Zn  -0.004189220047912   0.005318160244981  -0.002039147250816 1
force Zn   0.002207320339946  -0.001268447533420   0.000969976237887 1
force Zn   0.001423511503255  -0.001010305034613  -0.000630823330382 1
force Zn  -0.001143355251494   0.000957636639295  -0.000202415103100 1
force Zn   0.003744349872802  -0.007415110240408  -0.000245071719849 1
force Zn  -0.001375506651827  -0.000046922966999   0.003225699086540 1
force Zn  -0.001398599846226   0.002249519671227   0.000463101193180 1
force Zn   0.000871140388275  -0.000164075720176  -0.003527686254010 1
force Zn   0.001435860252957  -0.001973060140138  -0.006207721498811 1
force Zn  -0.006571082126118   0.004378084631004  -0.002736970432252 1
force Zn  -0.000075582239937  -0.002037704417214  -0.002187029425533 1
force Zn  -0.001834244845107   0.001382944146652  -0.003870961832883 1
force Zn  -0.003389536317008   0.002046064641733  -0.003218674043246 1
force Zn   0.003451278367113  -0.001290147863998   0.002311998593068 1
force Zn  -0.000656207631387  -0.001039605402105  -0.001519418512608 1
force Zn  -0.001991328227489   0.000776815694711   0.001623040206276 1
force Zn   0.002618377641427  -0.002581981395502   0.000046325712681 1
force Zn   0.001037384790282   0.000060128731416  -0.003682349187060 1
force Zn  -0.002739694438946   0.003008201534608   0.004232251072967 1
force Zn  -0.002843143807241   0.000507167061719   0.001027577143000 1
force Zn  -0.001215108456301  -0.002237333463089   0.003688978762446 1
force Zn   0.006205868288690  -0.001627135813615  -0.002362508005856 1
force Zn   0.001514953355362   0.002242719082381  -0.007177867471484 1
force Zn   0.000655383643414   0.002385273228744  -0.003331085201487 1
force Zn   0.007032490405021  -0.005294397957001   0.000633487677142 1
force Zn  -0.001225163559625   0.000102093658565   0.004203937214609 1
force Zn   0.001761486282187   0.000286954403847   0.002946267065896 1
force Zn  -0.000897380929485   0.000487408114875   0.005383114260619 1
force Zn   0.000074129664029  -0.000573433514629   0.001538808385872 1
force Zn   0.002219252043016   0.006912168537842  -0.003394808479366 1
force Zn  -0.002059710689928   0.003301932308995  -0.001438613729555 1
force O   0.010728598464999  -0.010856496577639   0.003315904774510 1

# Energy components:
   Eewald =    -4582.6734420393195251
       EH =     3280.8064775607135743
     Eloc =    -7258.0730647362024683
      Enl =      262.6333285666952406
      Exc =     -755.1823191623468574
 Exc_core =        0.0628969409224507
       KE =      734.1187749508292200
-------------------------------------
     Etot =    -8318.3073479187078192
       TS =        0.0777269179412847
-------------------------------------
        F =    -8318.3850748366494372

IonicMinimize: Iter:  16  F: -8318.385074836649437  |grad|_K:  2.074e-04  alpha:  1.000e+00  linmin:  1.453e-01  t[s]:  27707.94

#--- Lowdin population analysis ---
# oxidation-state Zn -0.015 +0.136 +0.138 -0.012 +0.002 +0.138 -0.007 -0.015 +0.001 -0.003 -0.016 +0.018 -0.011 -0.018 +0.133 -0.001 -0.015 +0.138 +0.137 -0.012 +0.022 -0.010 -0.002 +0.002 +0.022 -0.011 -0.001 +0.002 +0.001 -0.003 -0.016 +0.018 +0.018 -0.002 -0.004 +0.023
# oxidation-state O -0.615


-------- Electronic minimization -----------
Will mix electronic density at each iteration.
	FillingsUpdate:  mu: +0.552658139  nElectrons: 726.000000
	FillingsUpdate:  mu: +0.552661544  nElectrons: 726.000000
SCF: Cycle:  0   F: -8318.385035440936917   dF: +4.070e-05   |Residual|: 3.239e-03   |deigs|: 5.976e-07  t[s]:  27879.60
	FillingsUpdate:  mu: +0.552653924  nElectrons: 726.000000
SCF: Cycle:  1   F: -8318.385103338976478   dF: -6.790e-05   |Residual|: 2.179e-03   |deigs|: 6.043e-05  t[s]:  27982.19
	FillingsUpdate:  mu: +0.552658256  nElectrons: 726.000000
SCF: Cycle:  2   F: -8318.385108917282196   dF: -5.578e-06   |Residual|: 6.287e-04   |deigs|: 3.778e-05  t[s]:  28085.41
	FillingsUpdate:  mu: +0.552657205  nElectrons: 726.000000
SCF: Cycle:  3   F: -8318.385111196652360   dF: -2.279e-06   |Residual|: 2.469e-04   |deigs|: 2.008e-05  t[s]:  28188.75
	FillingsUpdate:  mu: +0.552657483  nElectrons: 726.000000
SCF: Cycle:  4   F: -8318.385111228191818   dF: -3.154e-08   |Residual|: 1.219e-04   |deigs|: 4.317e-06  t[s]:  28291.98
	FillingsUpdate:  mu: +0.552657687  nElectrons: 726.000000
SCF: Cycle:  5   F: -8318.385111234156284   dF: -5.964e-09   |Residual|: 3.568e-05   |deigs|: 1.630e-06  t[s]:  28394.42
	FillingsUpdate:  mu: +0.552657562  nElectrons: 726.000000
SCF: Cycle:  6   F: -8318.385111235209479   dF: -1.053e-09   |Residual|: 1.515e-05   |deigs|: 7.336e-07  t[s]:  28496.59
SCF: Converged (|Delta E|<1.000000e-08 for 2 iters).

Setting wave functions to eigenvectors of Hamiltonian

# Ionic positions in lattice coordinates:
ion Zn   0.111089441559075   0.223285414112564   0.125949302638215 1
ion Zn   0.214946120721509   0.096509271048635   0.360163062430153 1
ion Zn   0.093111590287832   0.213725424033457   0.644706640943559 1
ion Zn   0.223100451643772   0.113289538423077   0.876701598055831 1
ion Zn   0.109618183894136   0.559726786155039   0.114840316843171 1
ion Zn   0.211896305420050   0.457248820558162   0.354806118209590 1
ion Zn   0.108971274229316   0.559541019887794   0.630834881838792 1
ion Zn   0.221804169289112   0.446461637922371   0.876070580672983 1
ion Zn   0.110037550556343   0.887204406544191   0.117937995627771 1
ion Zn   0.222157002213936   0.780331279773771   0.379254181459454 1
ion Zn   0.110819890676715   0.890343636625541   0.629426345244493 1
ion Zn   0.224758707576867   0.781519056261883   0.874672970718678 1
ion Zn   0.444665069609175   0.224318406987065   0.126653955903850 1
ion Zn   0.556354492206904   0.113289304560329   0.374078923307480 1
ion Zn   0.453520951672132   0.216312513617204   0.642254834567823 1
ion Zn   0.557900212364925   0.111359126203989   0.885264914093412 1
ion Zn   0.445819872041099   0.558087116275746   0.126415376486494 1
ion Zn   0.573628250325693   0.454939950134140   0.360328070379907 1
ion Zn   0.454593722734171   0.576391187182091   0.645360433567332 1
ion Zn   0.555774548851641   0.446354713630912   0.876985805691912 1
ion Zn   0.443566781844188   0.890833578062188   0.128007177531498 1
ion Zn   0.557295028817107   0.783794888126051   0.372027192720142 1
ion Zn   0.444664355338402   0.890452478247770   0.624587222998731 1
ion Zn   0.558007982949528   0.783332800700527   0.885962765770467 1
ion Zn   0.778849881294869   0.226104547418699   0.128314612806717 1
ion Zn   0.886388421067362   0.112437713091568   0.372216744538939 1
ion Zn   0.778529208599778   0.223759574897475   0.624507496015019 1
ion Zn   0.885657670794004   0.110975779432230   0.886007754953862 1
ion Zn   0.781736524228857   0.559014456088610   0.118100307287281 1
ion Zn   0.889384795298970   0.447475142304637   0.379257377829910 1
ion Zn   0.779312649274394   0.558720591393260   0.629468750516036 1
ion Zn   0.886991087747421   0.444059398014079   0.874520007179642 1
ion Zn   0.779263305681736   0.889809691525804   0.127119430497918 1
ion Zn   0.888963463871816   0.780894621153132   0.378459413742702 1
ion Zn   0.777593207532419   0.890540251586387   0.623284337832343 1
ion Zn   0.889063578608026   0.780114292799576   0.874615366732425 1
ion O   0.328424249176719   0.343491585220044   0.499767732365471 1

# Forces in Lattice coordinates:
force Zn   0.000510651949440   0.000836353833656  -0.000078208265883 1
force Zn  -0.002359496503822   0.000700553715756   0.000561454401542 1
force Zn  -0.001574438682927   0.001094576422882  -0.000037129824420 1
force Zn  -0.000326373002223   0.000174217845691  -0.000029249968435 1
force Zn   0.000579176629351  -0.000642120119885   0.003478947422391 1
force Zn  -0.000381038458387   0.000650162556848   0.001562858971162 1
force Zn   0.002664184686549  -0.001485353339666   0.000848259982279 1
force Zn   0.000842402166344   0.000676908031161  -0.000580387595894 1
force Zn  -0.001487891703821   0.001518277944212  -0.000172313697526 1
force Zn   0.002178903994736  -0.003737028779301  -0.000134726968264 1
force Zn  -0.000647043307435  -0.000870674715742   0.001836450858407 1
force Zn  -0.001098619338520   0.001546555927901   0.000115833675599 1
force Zn   0.000840783012153   0.000257098775470  -0.002507822170020 1
force Zn  -0.000424558529392  -0.000001884410310  -0.004873388408253 1
force Zn  -0.005101263189327   0.003588512179087  -0.000841216223451 1
force Zn  -0.000837148291599  -0.000108295673120  -0.002033498700472 1
force Zn  -0.000969782155626   0.000530100371506  -0.003311577382254 1
force Zn  -0.000875577285721   0.000987792477801  -0.002322898424058 1
force Zn   0.001197857516734  -0.001339401339330   0.001001432032130 1
force Zn   0.000075014892204  -0.001010862236194  -0.001438657951038 1
force Zn  -0.001720700216366   0.000589388859925   0.001636092991136 1
force Zn   0.001792356480357  -0.002874152246935   0.000381736415502 1
force Zn   0.000802908085284  -0.000369159320188  -0.002604057718410 1
force Zn  -0.001252698178847   0.000402262432034   0.002140465123865 1
force Zn  -0.001619927977423   0.000002975738727  -0.000054104757086 1
force Zn   0.001158198568080  -0.002067271629278   0.000767140912503 1
force Zn   0.001616071793563   0.001109911004944  -0.001597001431243 1
force Zn   0.000116653481317   0.000882223426402  -0.001120988960432 1
force Zn  -0.000139368701510   0.001424732495765  -0.002400719925229 1
force Zn   0.002375233080538  -0.001914301069542   0.000885715978274 1
force Zn  -0.000170701935910   0.000158358153167   0.002370284141438 1
force Zn   0.000971263120210   0.000859679722450   0.001879521077090 1
force Zn  -0.000123703536337   0.001529089598489   0.003624426765402 1
force Zn   0.000076483455349  -0.000938050011080   0.001177879423793 1
force Zn   0.000222750222632   0.003176282015890  -0.002485758427838 1
force Zn  -0.002941549802285   0.003385383262686  -0.000938482043264 1
force O   0.006149244314529  -0.008119905631246   0.004956493577799 1

# Energy components:
   Eewald =    -4582.6317935091001345
       EH =     3280.8458912442270048
     Eloc =    -7258.1533809708344052
      Enl =      262.6330219874206477
      Exc =     -755.1820392216807249
 Exc_core =        0.0628969572172951
       KE =      734.1180211266685092
-------------------------------------
     Etot =    -8318.3073823860831908
       TS =        0.0777288491263428
-------------------------------------
        F =    -8318.3851112352094788

IonicMinimize: Iter:  17  F: -8318.385111235209479  |grad|_K:  1.163e-04  alpha:  1.000e+00  linmin: -7.624e-01  t[s]:  28518.61

#--- Lowdin population analysis ---
# oxidation-state Zn -0.014 +0.137 +0.137 -0.012 +0.002 +0.137 -0.007 -0.015 +0.001 -0.003 -0.017 +0.018 -0.011 -0.018 +0.134 -0.001 -0.015 +0.138 +0.137 -0.012 +0.021 -0.010 -0.002 +0.002 +0.022 -0.011 -0.002 +0.002 +0.001 -0.003 -0.016 +0.018 +0.018 -0.002 -0.004 +0.023
# oxidation-state O -0.615


-------- Electronic minimization -----------
Will mix electronic density at each iteration.
	FillingsUpdate:  mu: +0.552657562  nElectrons: 726.000000
	FillingsUpdate:  mu: +0.552604011  nElectrons: 726.000000
SCF: Cycle:  0   F: -8318.377784838261505   dF: -4.133e-02   |Residual|: 9.003e-02   |deigs|: 7.845e-05  t[s]:  28760.96
	FillingsUpdate:  mu: +0.552662840  nElectrons: 726.000000
SCF: Cycle:  1   F: -8318.383992384950034   dF: -6.208e-03   |Residual|: 4.270e-02   |deigs|: 5.910e-04  t[s]:  28930.26
	FillingsUpdate:  mu: +0.552647795  nElectrons: 726.000000
SCF: Cycle:  2   F: -8318.385081000917125   dF: -1.089e-03   |Residual|: 1.114e-02   |deigs|: 2.070e-04  t[s]:  29091.75
	FillingsUpdate:  mu: +0.552661780  nElectrons: 726.000000
SCF: Cycle:  3   F: -8318.385136291148228   dF: -5.529e-05   |Residual|: 3.650e-03   |deigs|: 1.964e-04  t[s]:  29194.05
	FillingsUpdate:  mu: +0.552665172  nElectrons: 726.000000
SCF: Cycle:  4   F: -8318.385144222967938   dF: -7.932e-06   |Residual|: 8.444e-04   |deigs|: 3.613e-05  t[s]:  29296.71
	FillingsUpdate:  mu: +0.552662228  nElectrons: 726.000000
SCF: Cycle:  5   F: -8318.385144766154554   dF: -5.432e-07   |Residual|: 3.922e-04   |deigs|: 9.786e-06  t[s]:  29399.50
	FillingsUpdate:  mu: +0.552662576  nElectrons: 726.000000
SCF: Cycle:  6   F: -8318.385144868741918   dF: -1.026e-07   |Residual|: 1.499e-04   |deigs|: 4.414e-06  t[s]:  29501.99
	FillingsUpdate:  mu: +0.552662868  nElectrons: 726.000000
SCF: Cycle:  7   F: -8318.385144881352971   dF: -1.261e-08   |Residual|: 5.545e-05   |deigs|: 2.336e-06  t[s]:  29604.33
	FillingsUpdate:  mu: +0.552662758  nElectrons: 726.000000
SCF: Cycle:  8   F: -8318.385144884379770   dF: -3.027e-09   |Residual|: 1.595e-05   |deigs|: 6.771e-07  t[s]:  29707.23
	FillingsUpdate:  mu: +0.552662741  nElectrons: 726.000000
SCF: Cycle:  9   F: -8318.385144884803594   dF: -4.238e-10   |Residual|: 8.679e-06   |deigs|: 2.492e-07  t[s]:  29809.02
SCF: Converged (|Delta E|<1.000000e-08 for 2 iters).

Setting wave functions to eigenvectors of Hamiltonian

# Ionic positions in lattice coordinates:
ion Zn   0.111218038102932   0.223668027302522   0.125944502687024 1
ion Zn   0.214435782380341   0.096323740088175   0.359945233786716 1
ion Zn   0.092750251783426   0.213687474254551   0.644619618963682 1
ion Zn   0.222770648645476   0.113251047552934   0.876721775024288 1
ion Zn   0.109421435202490   0.559772598110318   0.115198107103507 1
ion Zn   0.212269356072907   0.457226104521424   0.355200546065396 1
ion Zn   0.109382206474444   0.559426117238573   0.630924812556506 1
ion Zn   0.222029009772559   0.446593357148862   0.875892334471393 1
ion Zn   0.109917020744097   0.887393516491713   0.117989741857457 1
ion Zn   0.222142446469474   0.780074286055705   0.379384322000731 1
ion Zn   0.110629967690203   0.890023083905252   0.629778026588232 1
ion Zn   0.224602313103869   0.781500502738042   0.874732711918178 1
ion Zn   0.444747463590632   0.224379368636816   0.126345445591022 1
ion Zn   0.556332291212259   0.113051451006178   0.373472460668317 1
ion Zn   0.453096677135533   0.216132630125481   0.642252655355304 1
ion Zn   0.557760849668094   0.111330398290458   0.885045951200230 1
ion Zn   0.445601767117257   0.558294087707303   0.126053160734494 1
ion Zn   0.573697238951847   0.455168686714342   0.359600644016528 1
ion Zn   0.454872646518890   0.576601768940250   0.645301085061597 1
ion Zn   0.555626019433754   0.446317166025825   0.876870822549686 1
ion Zn   0.443232096762777   0.890724463010870   0.128126333005408 1
ion Zn   0.557321113714339   0.783452870521687   0.372116232835079 1
ion Zn   0.444835414870640   0.890656123105295   0.624285215562821 1
ion Zn   0.557960027069667   0.783725662960769   0.886132471549882 1
ion Zn   0.778772169660918   0.226012922579317   0.128324169684018 1
ion Zn   0.886375017576290   0.112261198662715   0.372494296198386 1
ion Zn   0.778547116971170   0.224130738580514   0.624311911588868 1
ion Zn   0.885712775256733   0.111349416206286   0.885727731317813 1
ion Zn   0.781815279284871   0.559405583895211   0.117889027684533 1
ion Zn   0.889439550677496   0.447166577701105   0.379393046734401 1
ion Zn   0.779389628143526   0.558660711017352   0.629935338751218 1
ion Zn   0.887172330502259   0.444177618907814   0.874836292785215 1
ion Zn   0.779304124352853   0.890127389492985   0.127451612362156 1
ion Zn   0.889040939987419   0.780487520895295   0.378848041963977 1
ion Zn   0.777863371571318   0.890947546224717   0.623262439796991 1
ion Zn   0.888817058214355   0.780429501684658   0.874689668119570 1
ion O   0.329358555312882   0.342118741698688   0.499832211859376 1

# Forces in Lattice coordinates:
force Zn  -0.000295760473542   0.000421955035804  -0.000514774343894 1
force Zn  -0.000196298407580  -0.001850880277789  -0.000791225408058 1
force Zn   0.003315191867566   0.002978927762598  -0.003176424632688 1
force Zn   0.001247717682847  -0.000415471973236   0.000091603988729 1
force Zn   0.001014124493790  -0.000971245178390   0.002261630153795 1
force Zn   0.002312859432148  -0.002745268475193   0.003664186473671 1
force Zn   0.001553865351637  -0.000558146317914   0.000174468171803 1
force Zn  -0.000503382033365   0.001567616935136   0.001115560165029 1
force Zn  -0.001006197390268   0.000998571890136  -0.000984609280184 1
force Zn   0.000162562047947   0.000346093946470  -0.000104588638594 1
force Zn   0.000401659829227  -0.001723405748171   0.000329276238753 1
force Zn  -0.000821533947507   0.001174809103341   0.000359855402232 1
force Zn   0.000033924284452   0.000626833892595  -0.001276723359169 1
force Zn  -0.000792442146656   0.000872184367365  -0.002230786581926 1
force Zn  -0.001010589333535   0.000969742071604   0.001097673972648 1
force Zn  -0.000985464777839   0.000902775980857  -0.001315253725917 1
force Zn   0.000096781947732  -0.001030344829687  -0.001370129009414 1
force Zn  -0.000241573419960   0.000190031054728   0.000231472337969 1
force Zn  -0.000106922990374  -0.003000213437524  -0.002705190948028 1
force Zn   0.001409204816803  -0.000936649196837  -0.000971437289838 1
force Zn  -0.000957887119332   0.000466438963808   0.000017892158299 1
force Zn   0.001115821844465  -0.002218351267734   0.000906621388214 1
force Zn  -0.000319751500863   0.001169335256071  -0.001202631614850 1
force Zn  -0.000195419056640  -0.000804547126694   0.000557747865304 1
force Zn  -0.001098929843371   0.000675436814706  -0.001210372337912 1
force Zn   0.001524031563922  -0.001090382370838  -0.001469364406210 1
force Zn  -0.002504372491571   0.002139449175254  -0.000701775784972 1
force Zn  -0.001081790522288  -0.000066435781203   0.002998480906395 1
force Zn  -0.000251886758396   0.000111938028417  -0.002130231352931 1
force Zn  -0.001143257800311   0.000849449193084   0.000609612172234 1
force Zn   0.000256812381523   0.000412280089978   0.000097354662671 1
force Zn  -0.000088034608961   0.001759483666559   0.000515480835134 1
force Zn  -0.000051412139664   0.001094759177614   0.001503301407243 1
force Zn  -0.000324506122519  -0.000360446516560   0.000429941360441 1
force Zn  -0.001316855694524   0.000188036488587  -0.001592353647305 1
force Zn  -0.002546112924823   0.002102833324786  -0.000017405716918 1
force O   0.003546154095927  -0.003670398106713   0.006562391155732 1

# Energy components:
   Eewald =    -4582.6003458434342974
       EH =     3280.8767454177245781
     Eloc =    -7258.2150939548955648
      Enl =      262.6328012906459435
      Exc =     -755.1818297175288990
 Exc_core =        0.0628970497326404
       KE =      734.1174140545633691
-------------------------------------
     Etot =    -8318.3074117031937931
       TS =        0.0777331816093227
-------------------------------------
        F =    -8318.3851448848035943

IonicMinimize: Iter:  18  F: -8318.385144884803594  |grad|_K:  9.656e-05  alpha:  1.000e+00  linmin: -3.609e-01  t[s]:  29831.26
IonicMinimize: Converged (|grad|_K<1.000000e-04).

#--- Lowdin population analysis ---
# oxidation-state Zn -0.014 +0.138 +0.137 -0.012 +0.001 +0.137 -0.008 -0.014 +0.001 -0.003 -0.016 +0.019 -0.012 -0.018 +0.136 -0.000 -0.015 +0.138 +0.137 -0.013 +0.021 -0.011 -0.002 +0.002 +0.022 -0.012 -0.002 +0.001 +0.001 -0.003 -0.015 +0.018 +0.019 -0.003 -0.004 +0.023
# oxidation-state O -0.615


Dumping '/data/rc652/Zn/oct/Zn_oct.Ecomponents' ... done
End date and time: Mon Jul 15 21:04:01 2024  (Duration: 0-8:17:28.61)
Done!
