--------------------------------------------------------------------------
Initialization of PSM library failed.

  Error: PSM is in the finalized state
--------------------------------------------------------------------------

*************** JDFTx 1.7.0 (git hash 3664913) ***************

Start date and time: Mon Jul 15 12:47:29 2024
Executable jdftx with command-line: -i Zn_tet.in
Running on hosts (process indices):  node3001.physics.cornell.edu (0-15)
Divided in process groups (process indices):  0 (0)  1 (1)  2 (2)  3 (3)  4 (4)  5 (5)  6 (6)  7 (7)  8 (8)  9 (9)  10 (10)  11 (11)  12 (12)  13 (13)  14 (14)  15 (15)
Resource initialization completed at t[s]:      0.00
Run totals: 16 processes, 32 threads, 0 GPUs


Input parsed successfully to the following command list (including defaults):

basis kpoint-dependent
coords-type Lattice
core-overlap-check vector
coulomb-interaction Periodic
davidson-band-ratio 1.1
dump End Ecomponents
dump-name /data/rc652/Zn/tet/Zn_tet.$VAR
elec-cutoff 20 100
elec-eigen-algo Davidson
elec-ex-corr gga-PBEsol
elec-smearing Fermi 0.01
electronic-minimize  \
	dirUpdateScheme      FletcherReeves \
	linminMethod         DirUpdateRecommended \
	nIterations          100 \
	history              15 \
	knormThreshold       0 \
	maxThreshold         no \
	energyDiffThreshold  1e-08 \
	nEnergyDiff          2 \
	alphaTstart          1 \
	alphaTmin            1e-10 \
	updateTestStepSize   yes \
	alphaTreduceFactor   0.1 \
	alphaTincreaseFactor 3 \
	nAlphaAdjustMax      3 \
	wolfeEnergy          0.0001 \
	wolfeGradient        0.9 \
	fdTest               no
electronic-scf  \
	nIterations	50 \
	energyDiffThreshold	1e-08 \
	residualThreshold	1e-07 \
	mixFraction	0.5 \
	qMetric	0.8 \
	history	10 \
	nEigSteps	2 \
	eigDiffThreshold	1e-08 \
	mixedVariable	Density \
	qKerker	0.8 \
	qKappa	-1 \
	verbose	no \
	mixFractionMag	1.5
exchange-regularization WignerSeitzTruncated
fluid None
fluid-ex-corr lda-TF lda-PZ
fluid-gummel-loop 10 1.000000e-05
fluid-minimize  \
	dirUpdateScheme      PolakRibiere \
	linminMethod         DirUpdateRecommended \
	nIterations          100 \
	history              15 \
	knormThreshold       0 \
	maxThreshold         no \
	energyDiffThreshold  0 \
	nEnergyDiff          2 \
	alphaTstart          1 \
	alphaTmin            1e-10 \
	updateTestStepSize   yes \
	alphaTreduceFactor   0.1 \
	alphaTincreaseFactor 3 \
	nAlphaAdjustMax      3 \
	wolfeEnergy          0.0001 \
	wolfeGradient        0.9 \
	fdTest               no
fluid-solvent H2O 55.338 ScalarEOS \
	epsBulk 78.4 \
	pMol 0.92466 \
	epsInf 1.77 \
	Pvap 1.06736e-10 \
	sigmaBulk 4.62e-05 \
	Rvdw 2.61727 \
	Res 1.42 \
	tauNuc 343133 \
	poleEl 15 7 1
forces-output-coords Positions
ion Zn   0.120490000000000   0.223620000000000   0.131460000000000 1
ion Zn   0.214920000000000   0.111520000000000   0.393240000000000 1
ion Zn   0.111030000000000   0.223310000000000   0.649090000000000 1
ion Zn   0.214510000000000   0.103210000000000   0.868000000000000 1
ion Zn   0.125500000000000   0.551460000000000   0.109550000000000 1
ion Zn   0.220460000000000   0.450020000000000   0.377570000000000 1
ion Zn   0.105280000000000   0.563030000000000   0.641660000000000 1
ion Zn   0.210380000000000   0.437080000000000   0.873780000000000 1
ion Zn   0.132940000000000   0.888410000000000   0.141910000000000 1
ion Zn   0.215010000000000   0.779070000000000   0.374810000000000 1
ion Zn   0.118260000000000   0.883720000000000   0.642280000000000 1
ion Zn   0.227340000000000   0.773750000000000   0.872630000000000 1
ion Zn   0.430250000000000   0.244210000000000   0.131680000000000 1
ion Zn   0.558820000000000   0.098890000000000   0.384870000000000 1
ion Zn   0.448580000000000   0.205450000000000   0.639810000000000 1
ion Zn   0.548210000000000   0.117550000000000   0.889760000000000 1
ion Zn   0.443570000000000   0.562130000000000   0.114980000000000 1
ion Zn   0.552820000000000   0.460990000000000   0.370080000000000 1
ion Zn   0.441780000000000   0.576590000000000   0.618980000000000 1
ion Zn   0.558020000000000   0.458900000000000   0.878400000000000 1
ion Zn   0.445480000000000   0.875140000000000   0.129390000000000 1
ion Zn   0.553430000000000   0.780440000000000   0.353300000000000 1
ion Zn   0.462270000000000   0.895100000000000   0.636920000000000 1
ion Zn   0.529570000000000   0.772100000000000   0.890010000000000 1
ion Zn   0.786390000000000   0.221130000000000   0.119440000000000 1
ion Zn   0.896820000000000   0.118930000000000   0.378060000000000 1
ion Zn   0.767320000000000   0.227840000000000   0.632610000000000 1
ion Zn   0.901710000000000   0.122210000000000   0.874370000000000 1
ion Zn   0.777070000000000   0.539620000000000   0.129590000000000 1
ion Zn   0.892920000000000   0.440080000000000   0.379280000000000 1
ion Zn   0.783450000000000   0.546360000000000   0.613120000000000 1
ion Zn   0.884750000000000   0.435630000000000   0.882630000000000 1
ion Zn   0.793080000000000   0.877380000000000   0.108290000000000 1
ion Zn   0.901130000000000   0.779700000000000   0.371120000000000 1
ion Zn   0.780250000000000   0.867310000000000   0.639320000000000 1
ion Zn   0.887620000000000   0.789460000000000   0.876480000000000 1
ion O   0.150000000000000   0.900000000000000   0.450000000000000 1
ion-species GBRV/$ID_pbesol.uspp
ion-width 0
ionic-minimize  \
	dirUpdateScheme      L-BFGS \
	linminMethod         DirUpdateRecommended \
	nIterations          50 \
	history              15 \
	knormThreshold       0.0001 \
	maxThreshold         no \
	energyDiffThreshold  1e-06 \
	nEnergyDiff          2 \
	alphaTstart          1 \
	alphaTmin            1e-10 \
	updateTestStepSize   yes \
	alphaTreduceFactor   0.1 \
	alphaTincreaseFactor 3 \
	nAlphaAdjustMax      3 \
	wolfeEnergy          0.0001 \
	wolfeGradient        0.9 \
	fdTest               no
kpoint   0.500000000000   0.500000000000   0.500000000000  1.00000000000000
kpoint-folding 4 4 4 
latt-move-scale 1 1 1
latt-scale 1 1 1 
lattice  \
	   7.580356660815777    7.580356660815777   -0.000000000000000  \
	 -13.129568758365000   13.129568758365000   -0.000000000000000  \
	   0.000000000000000   -0.000000000000000   17.147384969974024 
lattice-minimize  \
	dirUpdateScheme      L-BFGS \
	linminMethod         DirUpdateRecommended \
	nIterations          0 \
	history              15 \
	knormThreshold       0 \
	maxThreshold         no \
	energyDiffThreshold  1e-06 \
	nEnergyDiff          2 \
	alphaTstart          1 \
	alphaTmin            1e-10 \
	updateTestStepSize   yes \
	alphaTreduceFactor   0.1 \
	alphaTincreaseFactor 3 \
	nAlphaAdjustMax      3 \
	wolfeEnergy          0.0001 \
	wolfeGradient        0.9 \
	fdTest               no
lcao-params -1 1e-06 0.01
pcm-variant GLSSA13
perturb-minimize  \
	nIterations            0 \
	algorithm              MINRES \
	residualTol            0.0001 \
	residualDiffThreshold  0.0001 \
	CGBypass               no \
	recomputeResidual      no
spintype no-spin
subspace-rotation-factor 1 yes
symmetries automatic
symmetry-threshold 0.0001



---------- Setting up symmetries ----------

Found 24 point-group symmetries of the bravais lattice
Found 1 space-group symmetries with basis
Applied RMS atom displacement 0 bohrs to make symmetries exact.

---------- Initializing the Grid ----------
R = 
[      7.58036      7.58036            0  ]
[     -13.1296      13.1296            0  ]
[            0            0      17.1474  ]
unit cell volume = 3413.25
G =
[   0.414439  -0.239276          0  ]
[   0.414439   0.239276          0  ]
[          0          0   0.366422  ]
Minimum fftbox size, Smin = [  72  72  80  ]
Chosen fftbox size, S = [  72  72  80  ]

---------- Initializing tighter grid for wavefunction operations ----------
R = 
[      7.58036      7.58036            0  ]
[     -13.1296      13.1296            0  ]
[            0            0      17.1474  ]
unit cell volume = 3413.25
G =
[   0.414439  -0.239276          0  ]
[   0.414439   0.239276          0  ]
[          0          0   0.366422  ]
Minimum fftbox size, Smin = [  64  64  72  ]
Chosen fftbox size, S = [  64  64  72  ]

---------- Exchange Correlation functional ----------
Initalized PBEsol GGA exchange.
Initalized PBEsol GGA correlation.

---------- Setting up pseudopotentials ----------
Width of ionic core gaussian charges (only for fluid interactions / plotting) set to 0

Reading pseudopotential file '/home/rc652/build/pseudopotentials/GBRV/zn_pbesol.uspp':
  Title: Zn.  Created by USPP 7.3.6 on 23-7-2013
  Reference state energy: -230.565303.  20 valence electrons in orbitals:
    |300>  occupation: 2  eigenvalue: -4.737806
    |310>  occupation: 6  eigenvalue: -3.059602
    |320>  occupation: 10  eigenvalue: -0.373701
    |400>  occupation: 2  eigenvalue: -0.220431
    |410>  occupation: 0  eigenvalue: -0.039521
  lMax: 2  lLocal: 3  QijEcut: 5
  6 projectors sampled on a log grid with 687 points:
    l: 0  eig: -4.737806  rCut: 1.35
    l: 0  eig: -0.220431  rCut: 1.35
    l: 1  eig: -3.059602  rCut: 1.4
    l: 1  eig: -0.039521  rCut: 1.4
    l: 2  eig: -0.373701  rCut: 1.6
    l: 2  eig: 1.000000  rCut: 1.6
  Transforming local potential to a uniform radial grid of dG=0.02 with 1668 points.
  Transforming nonlocal projectors to a uniform radial grid of dG=0.02 with 432 points.
  Transforming density augmentations to a uniform radial grid of dG=0.02 with 1668 points.
  Transforming atomic orbitals to a uniform radial grid of dG=0.02 with 432 points.
  Core radius for overlap checks: 1.80 bohrs.

Reading pseudopotential file '/home/rc652/build/pseudopotentials/GBRV/o_pbesol.uspp':
  Title: O.  Created by USPP 7.3.6 on 3-2-2014
  Reference state energy: -15.849885.  6 valence electrons in orbitals:
    |200>  occupation: 2  eigenvalue: -0.873214
    |210>  occupation: 4  eigenvalue: -0.330058
  lMax: 2  lLocal: 2  QijEcut: 6
  5 projectors sampled on a log grid with 511 points:
    l: 0  eig: -0.873214  rCut: 1.25
    l: 0  eig: 0.000000  rCut: 1.25
    l: 1  eig: -0.330058  rCut: 1.25
    l: 1  eig: 0.000000  rCut: 1.25
    l: 2  eig: 1.000000  rCut: 1.25
  Partial core density with radius 0.7
  Transforming core density to a uniform radial grid of dG=0.02 with 1668 points.
  Transforming local potential to a uniform radial grid of dG=0.02 with 1668 points.
  Transforming nonlocal projectors to a uniform radial grid of dG=0.02 with 432 points.
  Transforming density augmentations to a uniform radial grid of dG=0.02 with 1668 points.
  Transforming atomic orbitals to a uniform radial grid of dG=0.02 with 432 points.
  Core radius for overlap checks: 1.25 bohrs.

Initialized 2 species with 37 total atoms.

Folded 1 k-points by 4x4x4 to 64 k-points.

---------- Setting up k-points, bands, fillings ----------
Adding inversion symmetry to k-mesh for non-inversion-symmetric unit cell.
Reduced to 32 k-points under symmetry. 
Computing the number of bands and number of electrons
Calculating initial fillings.
nElectrons: 726.000000   nBands: 472   nStates: 32

----- Setting up reduced wavefunction bases (one per k-point) -----
average nbasis = 14581.312 , ideal nbasis = 14581.661

---------- Setting up ewald sum ----------
Optimum gaussian width for ewald sums = 3.290529 bohr.
Real space sum over 567 unit cells with max indices [  4  4  3  ]
Reciprocal space sum over 5491 terms with max indices [  8  8  9  ]

---------- Allocating electronic variables ----------
Initializing wave functions:  linear combination of atomic orbitals
Zn pseudo-atom occupations:   s ( 2 2 )  p ( 6 0 )  d ( 10 )
O pseudo-atom occupations:   s ( 2 )  p ( 4 )
	FillingsUpdate:  mu: +0.561619632  nElectrons: 726.000000
LCAOMinimize: Iter:   0  F: -8317.6651627543415088  |grad|_K:  4.247e-04  alpha:  1.000e+00
	FillingsUpdate:  mu: +0.556506896  nElectrons: 726.000000
LCAOMinimize: Iter:   1  F: -8317.8007667627571209  |grad|_K:  2.766e-04  alpha:  1.251e-01  linmin: -3.121e-01  cgtest:  8.970e-01  t[s]:    109.59
LCAOMinimize: Encountered beta<0, resetting CG.
LCAOMinimize: 	Predicted alpha/alphaT>3.000000, increasing alphaT to 3.753602e-01.
	FillingsUpdate:  mu: +0.555370089  nElectrons: 726.000000
LCAOMinimize: Iter:   2  F: -8317.8973676218447508  |grad|_K:  1.157e-04  alpha:  3.454e-01  linmin:  5.261e-02  cgtest: -6.712e-02  t[s]:    160.22
	FillingsUpdate:  mu: +0.556645807  nElectrons: 726.000000
LCAOMinimize: Iter:   3  F: -8317.9090672182974231  |grad|_K:  5.345e-05  alpha:  2.773e-01  linmin: -1.967e-03  cgtest:  2.015e-01  t[s]:    200.39
	FillingsUpdate:  mu: +0.557128477  nElectrons: 726.000000
LCAOMinimize: Iter:   4  F: -8317.9114456359184260  |grad|_K:  2.148e-05  alpha:  2.321e-01  linmin: -8.013e-04  cgtest: -2.524e-02  t[s]:    240.35
	FillingsUpdate:  mu: +0.557292255  nElectrons: 726.000000
LCAOMinimize: Iter:   5  F: -8317.9118254036602593  |grad|_K:  7.158e-06  alpha:  2.296e-01  linmin: -8.178e-04  cgtest: -1.494e-02  t[s]:    280.58
	FillingsUpdate:  mu: +0.557315029  nElectrons: 726.000000
LCAOMinimize: Iter:   6  F: -8317.9118856954464718  |grad|_K:  2.840e-06  alpha:  3.282e-01  linmin: -4.595e-05  cgtest: -3.459e-03  t[s]:    320.79
	FillingsUpdate:  mu: +0.557328539  nElectrons: 726.000000
LCAOMinimize: Iter:   7  F: -8317.9118948210943927  |grad|_K:  1.751e-06  alpha:  3.161e-01  linmin:  6.976e-06  cgtest: -7.798e-04  t[s]:    361.02
	FillingsUpdate:  mu: +0.557330550  nElectrons: 726.000000
LCAOMinimize: Iter:   8  F: -8317.9118983517073502  |grad|_K:  8.268e-07  alpha:  3.218e-01  linmin: -1.152e-05  cgtest:  1.546e-04  t[s]:    401.08
	FillingsUpdate:  mu: +0.557327696  nElectrons: 726.000000
LCAOMinimize: Iter:   9  F: -8317.9118989091057301  |grad|_K:  3.560e-07  alpha:  2.278e-01  linmin:  3.563e-05  cgtest: -3.314e-04  t[s]:    441.11
	FillingsUpdate:  mu: +0.557324277  nElectrons: 726.000000
LCAOMinimize: Iter:  10  F: -8317.9118990991155442  |grad|_K:  1.239e-07  alpha:  4.190e-01  linmin:  1.852e-04  cgtest: -6.931e-04  t[s]:    481.38
LCAOMinimize: Converged (|Delta F|<1.000000e-06 for 2 iters).


---- Citations for features of the code used in this run ----

   Software package:
      R. Sundararaman, K. Letchworth-Weaver, K.A. Schwarz, D. Gunceler, Y. Ozhabes and T.A. Arias, 'JDFTx: software for joint density-functional theory', SoftwareX 6, 278 (2017)

   gga-PBEsol exchange-correlation functional:
      J.P. Perdew et al., Phys. Rev. Lett. 100, 136406 (2008)

   Pseudopotentials:
      KF Garrity, JW Bennett, KM Rabe and D Vanderbilt, Comput. Mater. Sci. 81, 446 (2014)

This list may not be complete. Please suggest additional citations or
report any other bugs at https://github.com/shankar1729/jdftx/issues

Initialization completed successfully at t[s]:    495.61


-------- Electronic minimization -----------
Will mix electronic density at each iteration.
	FillingsUpdate:  mu: +0.557324277  nElectrons: 726.000000
	FillingsUpdate:  mu: +0.553584669  nElectrons: 726.000000
SCF: Cycle:  0   F: -8318.140225083714540   dF: -2.283e-01   |Residual|: 1.346e-01   |deigs|: 2.938e-02  t[s]:    657.36
	FillingsUpdate:  mu: +0.554127689  nElectrons: 726.000000
SCF: Cycle:  1   F: -8318.145522125998468   dF: -5.297e-03   |Residual|: 5.282e-02   |deigs|: 3.465e-03  t[s]:    790.41
	FillingsUpdate:  mu: +0.553871127  nElectrons: 726.000000
SCF: Cycle:  2   F: -8318.147869256494232   dF: -2.347e-03   |Residual|: 3.238e-02   |deigs|: 1.935e-03  t[s]:    913.09
	FillingsUpdate:  mu: +0.553925662  nElectrons: 726.000000
SCF: Cycle:  3   F: -8318.148201244053780   dF: -3.320e-04   |Residual|: 5.349e-03   |deigs|: 4.854e-04  t[s]:   1035.12
	FillingsUpdate:  mu: +0.553942067  nElectrons: 726.000000
SCF: Cycle:  4   F: -8318.148207691037896   dF: -6.447e-06   |Residual|: 2.443e-03   |deigs|: 1.043e-04  t[s]:   1115.61
	FillingsUpdate:  mu: +0.553937854  nElectrons: 726.000000
SCF: Cycle:  5   F: -8318.148210138415379   dF: -2.447e-06   |Residual|: 6.056e-04   |deigs|: 5.700e-05  t[s]:   1195.82
	FillingsUpdate:  mu: +0.553942579  nElectrons: 726.000000
SCF: Cycle:  6   F: -8318.148210362147438   dF: -2.237e-07   |Residual|: 3.381e-04   |deigs|: 2.042e-05  t[s]:   1275.95
	FillingsUpdate:  mu: +0.553942982  nElectrons: 726.000000
SCF: Cycle:  7   F: -8318.148210408649902   dF: -4.650e-08   |Residual|: 1.186e-04   |deigs|: 5.410e-06  t[s]:   1355.88
	FillingsUpdate:  mu: +0.553942690  nElectrons: 726.000000
SCF: Cycle:  8   F: -8318.148210415234644   dF: -6.585e-09   |Residual|: 2.844e-05   |deigs|: 2.571e-06  t[s]:   1436.07
	FillingsUpdate:  mu: +0.553942760  nElectrons: 726.000000
SCF: Cycle:  9   F: -8318.148210416096845   dF: -8.622e-10   |Residual|: 1.417e-05   |deigs|: 5.766e-07  t[s]:   1516.02
SCF: Converged (|Delta E|<1.000000e-08 for 2 iters).

Setting wave functions to eigenvectors of Hamiltonian

# Ionic positions in lattice coordinates:
ion Zn   0.120490000000000   0.223620000000000   0.131460000000000 1
ion Zn   0.214920000000000   0.111520000000000   0.393240000000000 1
ion Zn   0.111030000000000   0.223310000000000   0.649090000000000 1
ion Zn   0.214510000000000   0.103210000000000   0.868000000000000 1
ion Zn   0.125500000000000   0.551460000000000   0.109550000000000 1
ion Zn   0.220460000000000   0.450020000000000   0.377570000000000 1
ion Zn   0.105280000000000   0.563030000000000   0.641660000000000 1
ion Zn   0.210380000000000   0.437080000000000   0.873780000000000 1
ion Zn   0.132940000000000   0.888410000000000   0.141910000000000 1
ion Zn   0.215010000000000   0.779070000000000   0.374810000000000 1
ion Zn   0.118260000000000   0.883720000000000   0.642280000000000 1
ion Zn   0.227340000000000   0.773750000000000   0.872630000000000 1
ion Zn   0.430250000000000   0.244210000000000   0.131680000000000 1
ion Zn   0.558820000000000   0.098890000000000   0.384870000000000 1
ion Zn   0.448580000000000   0.205450000000000   0.639810000000000 1
ion Zn   0.548210000000000   0.117550000000000   0.889760000000000 1
ion Zn   0.443570000000000   0.562130000000000   0.114980000000000 1
ion Zn   0.552820000000000   0.460990000000000   0.370080000000000 1
ion Zn   0.441780000000000   0.576590000000000   0.618980000000000 1
ion Zn   0.558020000000000   0.458900000000000   0.878400000000000 1
ion Zn   0.445480000000000   0.875140000000000   0.129390000000000 1
ion Zn   0.553430000000000   0.780440000000000   0.353300000000000 1
ion Zn   0.462270000000000   0.895100000000000   0.636920000000000 1
ion Zn   0.529570000000000   0.772100000000000   0.890010000000000 1
ion Zn   0.786390000000000   0.221130000000000   0.119440000000000 1
ion Zn   0.896820000000000   0.118930000000000   0.378060000000000 1
ion Zn   0.767320000000000   0.227840000000000   0.632610000000000 1
ion Zn   0.901710000000000   0.122210000000000   0.874370000000000 1
ion Zn   0.777070000000000   0.539620000000000   0.129590000000000 1
ion Zn   0.892920000000000   0.440080000000000   0.379280000000000 1
ion Zn   0.783450000000000   0.546360000000000   0.613120000000000 1
ion Zn   0.884750000000000   0.435630000000000   0.882630000000000 1
ion Zn   0.793080000000000   0.877380000000000   0.108290000000000 1
ion Zn   0.901130000000000   0.779700000000000   0.371120000000000 1
ion Zn   0.780250000000000   0.867310000000000   0.639320000000000 1
ion Zn   0.887620000000000   0.789460000000000   0.876480000000000 1
ion O   0.150000000000000   0.900000000000000   0.450000000000000 1

# Forces in Lattice coordinates:
force Zn  -0.165467992255850  -0.001443067873355   0.023147215261435 1
force Zn  -0.578102714179471   3.097507702580724  -1.145389565564649 1
force Zn  -0.009484290935613   0.058997223857352  -0.302403530446430 1
force Zn   0.122860816061630  -0.010616243629173   0.200507521151774 1
force Zn  -0.207285299756068   0.108888839580144   0.185742140198887 1
force Zn   0.009262269443606  -0.006018312965651   0.068949263411982 1
force Zn   0.161171642959536  -0.231211175301669  -0.090375564675441 1
force Zn   0.160075801849398  -0.034511820322839  -0.024696288339280 1
force Zn  -0.137052468250292   0.098905883328843  -0.518690716103482 1
force Zn   4.192454656336195  -5.025091965460602  -2.876095985547970 1
force Zn  -0.210027029866588   0.039844886920594   1.471856847391386 1
force Zn  -0.211243174275010   0.171210306933469   0.077098789837123 1
force Zn   0.293915438775936  -0.320003872998914   0.026071017733994 1
force Zn   0.051001686452435   0.145389999279107  -0.094426956579629 1
force Zn  -0.133555926629688   0.296599161153132  -0.034601090953943 1
force Zn   0.060969354023818  -0.047086858391570   0.106822424735974 1
force Zn   0.126546109624903  -0.129345208513765   0.101885693959767 1
force Zn   0.083271783518889  -0.160232531987770   0.108896772963611 1
force Zn   0.085391018465838  -0.209892838661883   0.002396267340409 1
force Zn   0.050192163273640  -0.073992124072184  -0.122323312383441 1
force Zn  -0.103430594219128   0.300096283072216   0.011426363355906 1
force Zn   0.108764557797505  -0.040888708335537   0.224407672832434 1
force Zn   0.062742741682336  -0.046959381072384   0.014349201837636 1
force Zn   0.271771892050186  -0.051009661680739  -0.201647340018049 1
force Zn  -0.033419677460718  -0.056535323459965   0.098517163106454 1
force Zn  -0.054466761315021  -0.044415872658643   0.047674437921224 1
force Zn   0.250553200914023  -0.194430039431531   0.000876691360945 1
force Zn  -0.184648735490430  -0.057869593718017   0.087139437597287 1
force Zn   0.038160682377752   0.058173727691511  -0.005894952584324 1
force Zn  -0.043781267356991  -0.035149676035726  -0.068032820027675 1
force Zn  -0.214717068650015   0.148075971668511   0.118910778410678 1
force Zn  -0.121949241526977   0.157478401948470  -0.012219531491724 1
force Zn  -0.064203133014188   0.136667457897707   0.208418418380795 1
force Zn  -1.008598626092587   0.099347879578922  -0.344865605682572 1
force Zn  -0.126187681857571   0.184062817828348  -0.126568531274271 1
force Zn   0.128512087372150  -0.230209662423155   0.015652994545004 1
force O  -2.649847091638867   1.905857121033874   2.767223056216282 1

# Energy components:
   Eewald =    -4551.9870887281722389
       EH =     3309.7999723302023085
     Eloc =    -7318.2976536182113705
      Enl =      262.8441245570002707
      Exc =     -755.4929844863191875
 Exc_core =        0.0628963171707618
       KE =      734.9986001640106679
-------------------------------------
     Etot =    -8318.0721334643185401
       TS =        0.0760769517778476
-------------------------------------
        F =    -8318.1482104160968447

IonicMinimize: Iter:   0  F: -8318.148210416096845  |grad|_K:  5.071e-02  t[s]:   1531.45

#--- Lowdin population analysis ---
# oxidation-state Zn +0.002 +0.210 -0.004 -0.003 +0.022 +0.009 -0.008 -0.003 +0.007 +0.244 +0.148 -0.001 -0.010 +0.027 -0.006 +0.014 -0.037 +0.011 +0.022 +0.041 -0.024 -0.007 -0.009 +0.005 +0.008 -0.022 +0.008 +0.004 +0.015 -0.016 -0.032 +0.004 +0.024 +0.163 +0.007 -0.007
# oxidation-state O -0.641


-------- Electronic minimization -----------
Will mix electronic density at each iteration.
	FillingsUpdate:  mu: +0.553942760  nElectrons: 726.000000
	FillingsUpdate:  mu: +0.553883829  nElectrons: 726.000000
SCF: Cycle:  0   F: -8317.705807403306608   dF: +2.383e-02   |Residual|: 3.986e-01   |deigs|: 1.126e-03  t[s]:   1714.28
	FillingsUpdate:  mu: +0.553007873  nElectrons: 726.000000
SCF: Cycle:  1   F: -8318.154272786619913   dF: -4.485e-01   |Residual|: 2.671e-01   |deigs|: 9.469e-03  t[s]:   1847.39
	FillingsUpdate:  mu: +0.553475034  nElectrons: 726.000000
SCF: Cycle:  2   F: -8318.198291835627970   dF: -4.402e-02   |Residual|: 8.501e-02   |deigs|: 2.466e-03  t[s]:   1980.20
	FillingsUpdate:  mu: +0.553757670  nElectrons: 726.000000
SCF: Cycle:  3   F: -8318.208170174428233   dF: -9.878e-03   |Residual|: 2.274e-02   |deigs|: 1.074e-03  t[s]:   2111.02
	FillingsUpdate:  mu: +0.553709859  nElectrons: 726.000000
SCF: Cycle:  4   F: -8318.208680009349337   dF: -5.098e-04   |Residual|: 9.207e-03   |deigs|: 4.209e-04  t[s]:   2207.12
	FillingsUpdate:  mu: +0.553720657  nElectrons: 726.000000
SCF: Cycle:  5   F: -8318.208723028137683   dF: -4.302e-05   |Residual|: 4.815e-03   |deigs|: 2.467e-04  t[s]:   2286.91
	FillingsUpdate:  mu: +0.553739314  nElectrons: 726.000000
SCF: Cycle:  6   F: -8318.208747691805911   dF: -2.466e-05   |Residual|: 1.172e-03   |deigs|: 8.682e-05  t[s]:   2367.08
	FillingsUpdate:  mu: +0.553734518  nElectrons: 726.000000
SCF: Cycle:  7   F: -8318.208748553166515   dF: -8.614e-07   |Residual|: 4.975e-04   |deigs|: 3.088e-05  t[s]:   2447.20
	FillingsUpdate:  mu: +0.553735353  nElectrons: 726.000000
SCF: Cycle:  8   F: -8318.208748759136142   dF: -2.060e-07   |Residual|: 1.467e-04   |deigs|: 8.896e-06  t[s]:   2527.49
	FillingsUpdate:  mu: +0.553735142  nElectrons: 726.000000
SCF: Cycle:  9   F: -8318.208748775261483   dF: -1.613e-08   |Residual|: 5.711e-05   |deigs|: 2.925e-06  t[s]:   2607.66
	FillingsUpdate:  mu: +0.553735053  nElectrons: 726.000000
SCF: Cycle: 10   F: -8318.208748777913570   dF: -2.652e-09   |Residual|: 2.052e-05   |deigs|: 1.009e-06  t[s]:   2687.88
	FillingsUpdate:  mu: +0.553735069  nElectrons: 726.000000
SCF: Cycle: 11   F: -8318.208748778237350   dF: -3.238e-10   |Residual|: 7.473e-06   |deigs|: 3.814e-07  t[s]:   2767.82
SCF: Converged (|Delta E|<1.000000e-08 for 2 iters).

Setting wave functions to eigenvectors of Hamiltonian

# Ionic positions in lattice coordinates:
ion Zn   0.120244616762945   0.223495704639021   0.131480042885222 1
ion Zn   0.216353127042067   0.115666584796901   0.392248530440171 1
ion Zn   0.111059540795320   0.223390095330354   0.648828238635513 1
ion Zn   0.214683553037473   0.103285014996979   0.868173570065205 1
ion Zn   0.125274325665284   0.551467735181480   0.109710788810190 1
ion Zn   0.220469222781202   0.450017941334102   0.377629690196692 1
ion Zn   0.105347266966734   0.562807596034441   0.641581774943137 1
ion Zn   0.210590859231449   0.437147207329483   0.873758628442732 1
ion Zn   0.132810652424057   0.888454843962381   0.141461015448714 1
ion Zn   0.217490318994584   0.774745616926344   0.372320390962435 1
ion Zn   0.117979306964804   0.883623769962396   0.643554079425800 1
ion Zn   0.227154489844415   0.773846828987934   0.872696744615120 1
ion Zn   0.430447709091781   0.243954492509218   0.131702573796219 1
ion Zn   0.559002624521580   0.099142304321548   0.384788267964668 1
ion Zn   0.448601758942517   0.205789313007706   0.639780054616667 1
ion Zn   0.548265248416762   0.117525476896095   0.889852474080470 1
ion Zn   0.443661344443742   0.562032436102704   0.115068200732211 1
ion Zn   0.552824649204479   0.460814885363149   0.370174269684239 1
ion Zn   0.441751117237961   0.576343128006896   0.618982080385100 1
ion Zn   0.558039473846768   0.458827796041677   0.878294120234335 1
ion Zn   0.445548819724518   0.875506715953964   0.129399897044917 1
ion Zn   0.553560392188552   0.780459912331342   0.353494258588887 1
ion Zn   0.462327960874854   0.895076974288116   0.636932427121461 1
ion Zn   0.529933595647945   0.772225306697405   0.889835455522654 1
ion Zn   0.786298910859731   0.221021845306594   0.119525284854050 1
ion Zn   0.896706782512149   0.118824201604369   0.378101274216037 1
ion Zn   0.767546389068889   0.227737886745443   0.632610765005011 1
ion Zn   0.901394641006420   0.121988232799842   0.874445436031884 1
ion Zn   0.777169279135566   0.539734052625081   0.129584903313504 1
ion Zn   0.892829399926436   0.439995771245886   0.379221115339296 1
ion Zn   0.783242282187770   0.546420107336149   0.613222938038800 1
ion Zn   0.884686192104142   0.435772474127863   0.882619428611826 1
ion Zn   0.793086089023744   0.877534377603401   0.108470417920685 1
ion Zn   0.899714168799403   0.779102091162510   0.370821482481792 1
ion Zn   0.780199559714539   0.867488596201790   0.639210445474746 1
ion Zn   0.887639785532731   0.789214964327197   0.876493555714562 1
ion O   0.147494545476686   0.900857717912241   0.452395378355046 1

# Forces in Lattice coordinates:
force Zn  -0.162338752523315  -0.000618941805275   0.017494098944038 1
force Zn  -0.422759516953126   2.595863310301343  -1.018645130726412 1
force Zn  -0.012256543480050   0.061348192366184  -0.291047080959387 1
force Zn   0.118506240986959  -0.004496556217276   0.199575370394069 1
force Zn  -0.203234921779996   0.103296300925760   0.175911469825866 1
force Zn   0.014876208835521  -0.018308755479360   0.069489958228218 1
force Zn   0.156306306001655  -0.223848869911181  -0.092402610769312 1
force Zn   0.156499891400238  -0.033936705700418  -0.020819981146714 1
force Zn  -0.135106542621624   0.097555664936227  -0.478819649842343 1
force Zn   2.768266690514205  -3.263863150732814  -1.839318038310083 1
force Zn  -0.190017364661983   0.020070626741425   1.489463872331882 1
force Zn  -0.201520860162916   0.162619354190234   0.078860418394502 1
force Zn   0.288843473075675  -0.314558206604264   0.022801594836178 1
force Zn   0.033409122404023   0.144899114857893  -0.089400659153685 1
force Zn  -0.129554741767562   0.291432786999685  -0.033962947955370 1
force Zn   0.060803859882048  -0.046601569569445   0.104251098748556 1
force Zn   0.122900707443851  -0.125136580282636   0.096846900737785 1
force Zn   0.085519599691826  -0.157786075941114   0.107593129309221 1
force Zn   0.085749296253312  -0.208280616634930   0.006680515123126 1
force Zn   0.049087709712185  -0.073408488051182  -0.119253708353908 1
force Zn  -0.096369572824424   0.294461260211714   0.002759373550212 1
force Zn   0.120900819244376  -0.045535441713078   0.221606799731653 1
force Zn   0.055205191266183  -0.042535801434589   0.009638082565290 1
force Zn   0.266177736236176  -0.049354678906627  -0.196315765583606 1
force Zn  -0.034611957178185  -0.054344480304625   0.097996367356359 1
force Zn  -0.060950521434376  -0.040649901839032   0.047328518289234 1
force Zn   0.244878503726449  -0.190313939843350   0.000872997338131 1
force Zn  -0.181151047188498  -0.055693979609000   0.085211378833607 1
force Zn   0.036181467455000   0.058430258508952  -0.007170712928396 1
force Zn  -0.047492374492293  -0.029717030695782  -0.064645578224352 1
force Zn  -0.211462196191526   0.142324386425759   0.120585943209608 1
force Zn  -0.119351865000833   0.153691740255644  -0.011927089820438 1
force Zn  -0.064259073255874   0.135130560541984   0.204764692372116 1
force Zn  -0.911056623238051   0.081729953461114  -0.330761938209068 1
force Zn  -0.130424636922593   0.185106886477961  -0.121211428076033 1
force Zn   0.123976114010944  -0.225769122285813   0.015679103771697 1
force O  -1.473825934714988   0.676684469484555   1.540565504559822 1

# Energy components:
   Eewald =    -4555.2400172704647048
       EH =     3306.8078221514811048
     Eloc =    -7311.9803600966988597
      Enl =      262.7915414898664039
      Exc =     -755.4492310550355114
 Exc_core =        0.0628958012708306
       KE =      734.8744802561939196
-------------------------------------
     Etot =    -8318.1328687233853998
       TS =        0.0758800548516278
-------------------------------------
        F =    -8318.2087487782373501

IonicMinimize: Iter:   1  F: -8318.208748778237350  |grad|_K:  3.548e-02  alpha:  2.545e-01  linmin: -9.802e-01  t[s]:   2783.08

#--- Lowdin population analysis ---
# oxidation-state Zn +0.002 +0.203 -0.004 -0.004 +0.022 +0.007 -0.006 -0.003 +0.009 +0.224 +0.151 -0.002 -0.010 +0.030 -0.003 +0.014 -0.034 +0.009 +0.024 +0.040 -0.023 -0.008 -0.007 +0.005 +0.008 -0.021 +0.008 +0.004 +0.015 -0.014 -0.030 +0.005 +0.023 +0.165 +0.007 -0.007
# oxidation-state O -0.641


-------- Electronic minimization -----------
Will mix electronic density at each iteration.
	FillingsUpdate:  mu: +0.553735069  nElectrons: 726.000000
	FillingsUpdate:  mu: +0.554586730  nElectrons: 726.000000
SCF: Cycle:  0   F: -8317.011889624920514   dF: +4.648e-01   |Residual|: 5.656e-01   |deigs|: 1.674e-03  t[s]:   2965.93
	FillingsUpdate:  mu: +0.552356581  nElectrons: 726.000000
SCF: Cycle:  1   F: -8318.082147399261885   dF: -1.070e+00   |Residual|: 4.558e-01   |deigs|: 1.458e-02  t[s]:   3099.71
	FillingsUpdate:  mu: +0.552945098  nElectrons: 726.000000
SCF: Cycle:  2   F: -8318.242160328218233   dF: -1.600e-01   |Residual|: 1.382e-01   |deigs|: 4.844e-03  t[s]:   3232.59
	FillingsUpdate:  mu: +0.553580752  nElectrons: 726.000000
SCF: Cycle:  3   F: -8318.255846040745382   dF: -1.369e-02   |Residual|: 5.417e-02   |deigs|: 6.779e-04  t[s]:   3363.47
	FillingsUpdate:  mu: +0.553444433  nElectrons: 726.000000
SCF: Cycle:  4   F: -8318.260453246744873   dF: -4.607e-03   |Residual|: 1.454e-02   |deigs|: 8.667e-04  t[s]:   3485.57
	FillingsUpdate:  mu: +0.553463146  nElectrons: 726.000000
SCF: Cycle:  5   F: -8318.260563375433776   dF: -1.101e-04   |Residual|: 7.687e-03   |deigs|: 3.652e-04  t[s]:   3565.66
	FillingsUpdate:  mu: +0.553486578  nElectrons: 726.000000
SCF: Cycle:  6   F: -8318.260642087245287   dF: -7.871e-05   |Residual|: 1.306e-03   |deigs|: 1.134e-04  t[s]:   3645.89
	FillingsUpdate:  mu: +0.553484399  nElectrons: 726.000000
SCF: Cycle:  7   F: -8318.260642633911630   dF: -5.467e-07   |Residual|: 7.091e-04   |deigs|: 3.016e-05  t[s]:   3726.06
	FillingsUpdate:  mu: +0.553485448  nElectrons: 726.000000
SCF: Cycle:  8   F: -8318.260643096435160   dF: -4.625e-07   |Residual|: 2.012e-04   |deigs|: 1.395e-05  t[s]:   3806.41
	FillingsUpdate:  mu: +0.553485740  nElectrons: 726.000000
SCF: Cycle:  9   F: -8318.260643111805621   dF: -1.537e-08   |Residual|: 6.782e-05   |deigs|: 2.672e-06  t[s]:   3886.84
	FillingsUpdate:  mu: +0.553485783  nElectrons: 726.000000
SCF: Cycle: 10   F: -8318.260643114579580   dF: -2.774e-09   |Residual|: 3.337e-05   |deigs|: 1.308e-06  t[s]:   3967.12
	FillingsUpdate:  mu: +0.553485778  nElectrons: 726.000000
SCF: Cycle: 11   F: -8318.260643115585481   dF: -1.006e-09   |Residual|: 9.480e-06   |deigs|: 5.945e-07  t[s]:   4047.28
SCF: Converged (|Delta E|<1.000000e-08 for 2 iters).

Setting wave functions to eigenvectors of Hamiltonian

# Ionic positions in lattice coordinates:
ion Zn   0.119715391367648   0.223230763188011   0.131507473370614 1
ion Zn   0.219054477865711   0.122713501544970   0.390422601360403 1
ion Zn   0.111117150904808   0.223573909454408   0.648278650768323 1
ion Zn   0.215064150095755   0.103472995089489   0.868558063019197 1
ion Zn   0.124777177919991   0.551466452368176   0.110039590170243 1
ion Zn   0.220487034164818   0.449963994070110   0.377764516345128 1
ion Zn   0.105491224743540   0.562336921307273   0.641400955590896 1
ion Zn   0.211044337183930   0.437290917847114   0.873722719721395 1
ion Zn   0.132528578879408   0.888552993735127   0.140580623302275 1
ion Zn   0.220195565916367   0.770557236439504   0.369929016080079 1
ion Zn   0.117405544577300   0.883358157034059   0.646451344854045 1
ion Zn   0.226768710592506   0.774043544612170   0.872851042499216 1
ion Zn   0.430876728514316   0.243399417409989   0.131742929925205 1
ion Zn   0.559317324805378   0.099657080080520   0.384621154241573 1
ion Zn   0.448657699364226   0.206530154273669   0.639715124793968 1
ion Zn   0.548388950474224   0.117472870056082   0.890050968563282 1
ion Zn   0.443857181166806   0.561827140667219   0.115249624959492 1
ion Zn   0.552853093694108   0.460442675582159   0.370380641715620 1
ion Zn   0.441692712241558   0.575801502829693   0.618999758333642 1
ion Zn   0.558078699082089   0.458666839992884   0.878067138858669 1
ion Zn   0.445724505716119   0.876314242749747   0.129395482646202 1
ion Zn   0.553902499399578   0.780511784198896   0.353919220392475 1
ion Zn   0.462429583087944   0.895029022959100   0.636945736100531 1
ion Zn   0.530720261116986   0.772499054857894   0.889462130005556 1
ion Zn   0.786095102877435   0.220788792766752   0.119713993967707 1
ion Zn   0.896430134827699   0.118590833147452   0.378192291910239 1
ion Zn   0.768032817875470   0.227516672598198   0.632612416841405 1
ion Zn   0.900714677237631   0.121513745158252   0.874607867878265 1
ion Zn   0.777381211430903   0.539984813166021   0.129569589306436 1
ion Zn   0.892622007855753   0.439826440442691   0.379099989838880 1
ion Zn   0.782780654377149   0.546532812160593   0.613457750375119 1
ion Zn   0.884547442256903   0.436077529325472   0.882596683335047 1
ion Zn   0.793095380092713   0.877870806340217   0.108861885764593 1
ion Zn   0.897016279689834   0.777929893685474   0.370198247073847 1
ion Zn   0.780067634287976   0.867881631171525   0.638982245931226 1
ion Zn   0.887671879742867   0.788679422458066   0.876523845522555 1
ion O   0.144826194572555   0.899433435231026   0.453996684636651 1

# Forces in Lattice coordinates:
force Zn  -0.154844221996753   0.000698926117854   0.006915818712403 1
force Zn  -0.223391200850490   1.764566550464583  -0.704716531415809 1
force Zn  -0.012596984254679   0.056839568426453  -0.274032212866391 1
force Zn   0.109040172024375   0.009327744658574   0.201027625130966 1
force Zn  -0.193978064716697   0.096177021036824   0.163823914845292 1
force Zn   0.015059269594517  -0.021463722391293   0.068141164276821 1
force Zn   0.147850492738682  -0.213069502671720  -0.091895485770479 1
force Zn   0.148961266393192  -0.033052718023468  -0.013659478075891 1
force Zn  -0.132066250939108   0.095126004503378  -0.429868591677096 1
force Zn   1.941659838085798  -2.238758317242034  -1.252550534505611 1
force Zn  -0.163137780109636   0.021083366659123   1.295062852257322 1
force Zn  -0.179251006775502   0.142953844089578   0.084492110713853 1
force Zn   0.279097402039860  -0.304236793617683   0.017454682165692 1
force Zn   0.014307944975499   0.143052027843062  -0.082233587918543 1
force Zn  -0.124957035499322   0.276753927495140  -0.038395091761995 1
force Zn   0.060642302365316  -0.046135471410023   0.097797876053299 1
force Zn   0.115524208821609  -0.116886321586602   0.088210028999187 1
force Zn   0.089983506866783  -0.152983159631813   0.103850465524649 1
force Zn   0.085273336591295  -0.202860143698430   0.012217440048190 1
force Zn   0.046919325150438  -0.072299980624997  -0.113310027297636 1
force Zn  -0.085567644401543   0.280047801791781  -0.006813471859740 1
force Zn   0.130132861214808  -0.048095970904531   0.214105054964694 1
force Zn   0.044830125167644  -0.035387503878823   0.005741414789068 1
force Zn   0.254343215498993  -0.045969700378982  -0.184572596284347 1
force Zn  -0.035736265328321  -0.050755116913834   0.096125083256823 1
force Zn  -0.064112953008243  -0.039709922168170   0.047180637567578 1
force Zn   0.233318023642682  -0.181951431076541   0.000871008411798 1
force Zn  -0.172286153101648  -0.052433400669441   0.079999856714631 1
force Zn   0.033885462648361   0.057862133736122  -0.008518862929805 1
force Zn  -0.050627703566692  -0.025996424979990  -0.059918229608067 1
force Zn  -0.202378724031251   0.132227031432269   0.120750690697555 1
force Zn  -0.113038281155162   0.145745586275071  -0.011278456428098 1
force Zn  -0.064162114689400   0.131390645864153   0.196399084029544 1
force Zn  -0.783234605180569   0.077372131377864  -0.291938225327137 1
force Zn  -0.129949720056463   0.183119649561117  -0.114476887831329 1
force Zn   0.112141954585406  -0.215615431741284   0.020347015348470 1
force O  -0.977551250631024   0.483410976704823   0.758247406297326 1

# Energy components:
   Eewald =    -4559.1812475681190335
       EH =     3303.1038219440147259
     Eloc =    -7304.2501958007451321
      Enl =      262.7413814886165255
      Exc =     -755.4003220651017045
 Exc_core =        0.0628946323919419
       KE =      734.7386546911432106
-------------------------------------
     Etot =    -8318.1850126777972037
       TS =        0.0756304377887819
-------------------------------------
        F =    -8318.2606431155854807

IonicMinimize: Iter:   2  F: -8318.260643115585481  |grad|_K:  2.523e-02  alpha:  4.159e-01  linmin: -9.854e-01  t[s]:   4062.54

#--- Lowdin population analysis ---
# oxidation-state Zn +0.002 +0.189 -0.002 -0.005 +0.021 +0.004 -0.002 -0.002 +0.013 +0.208 +0.149 -0.003 -0.009 +0.035 +0.000 +0.015 -0.030 +0.007 +0.027 +0.038 -0.022 -0.010 -0.004 +0.005 +0.007 -0.019 +0.008 +0.005 +0.014 -0.012 -0.028 +0.006 +0.022 +0.166 +0.008 -0.007
# oxidation-state O -0.635


-------- Electronic minimization -----------
Will mix electronic density at each iteration.
	FillingsUpdate:  mu: +0.553485778  nElectrons: 726.000000
	FillingsUpdate:  mu: +0.554996212  nElectrons: 726.000000
SCF: Cycle:  0   F: -8316.476392618109458   dF: +8.524e-01   |Residual|: 6.488e-01   |deigs|: 2.220e-03  t[s]:   4245.91
	FillingsUpdate:  mu: +0.551986900  nElectrons: 726.000000
SCF: Cycle:  1   F: -8318.001263150166778   dF: -1.525e+00   |Residual|: 5.658e-01   |deigs|: 1.736e-02  t[s]:   4379.67
	FillingsUpdate:  mu: +0.552545540  nElectrons: 726.000000
SCF: Cycle:  2   F: -8318.271326960975784   dF: -2.701e-01   |Residual|: 1.750e-01   |deigs|: 6.310e-03  t[s]:   4510.92
	FillingsUpdate:  mu: +0.553387336  nElectrons: 726.000000
SCF: Cycle:  3   F: -8318.289888859335406   dF: -1.856e-02   |Residual|: 8.020e-02   |deigs|: 1.577e-03  t[s]:   4643.76
	FillingsUpdate:  mu: +0.553170458  nElectrons: 726.000000
SCF: Cycle:  4   F: -8318.300688570894636   dF: -1.080e-02   |Residual|: 1.698e-02   |deigs|: 1.225e-03  t[s]:   4765.76
	FillingsUpdate:  mu: +0.553206755  nElectrons: 726.000000
SCF: Cycle:  5   F: -8318.300746931941831   dF: -5.836e-05   |Residual|: 9.326e-03   |deigs|: 3.817e-04  t[s]:   4846.01
	FillingsUpdate:  mu: +0.553235251  nElectrons: 726.000000
SCF: Cycle:  6   F: -8318.300881041635876   dF: -1.341e-04   |Residual|: 1.770e-03   |deigs|: 1.295e-04  t[s]:   4926.18
	FillingsUpdate:  mu: +0.553234198  nElectrons: 726.000000
SCF: Cycle:  7   F: -8318.300882973342596   dF: -1.932e-06   |Residual|: 8.041e-04   |deigs|: 3.655e-05  t[s]:   5006.40
	FillingsUpdate:  mu: +0.553236175  nElectrons: 726.000000
SCF: Cycle:  8   F: -8318.300883429063106   dF: -4.557e-07   |Residual|: 2.702e-04   |deigs|: 1.615e-05  t[s]:   5086.54
	FillingsUpdate:  mu: +0.553236415  nElectrons: 726.000000
SCF: Cycle:  9   F: -8318.300883461430203   dF: -3.237e-08   |Residual|: 7.665e-05   |deigs|: 3.564e-06  t[s]:   5166.41
	FillingsUpdate:  mu: +0.553236503  nElectrons: 726.000000
SCF: Cycle: 10   F: -8318.300883465399238   dF: -3.969e-09   |Residual|: 4.008e-05   |deigs|: 1.547e-06  t[s]:   5246.44
	FillingsUpdate:  mu: +0.553236511  nElectrons: 726.000000
SCF: Cycle: 11   F: -8318.300883467109088   dF: -1.710e-09   |Residual|: 1.151e-05   |deigs|: 6.900e-07  t[s]:   5326.71
SCF: Converged (|Delta E|<1.000000e-08 for 2 iters).

Setting wave functions to eigenvectors of Hamiltonian

# Ionic positions in lattice coordinates:
ion Zn   0.118821751137921   0.222791556341266   0.131504407389786 1
ion Zn   0.222088066097548   0.129375270400303   0.388718140142777 1
ion Zn   0.111200498258992   0.223861743512753   0.647358865004201 1
ion Zn   0.215736295490856   0.103895506538335   0.869268647460531 1
ion Zn   0.123923083704337   0.551447494812877   0.110582751278638 1
ion Zn   0.220507172812409   0.449855953514323   0.378002044023602 1
ion Zn   0.105726608959823   0.561531536434773   0.641076553052822 1
ion Zn   0.211809612755852   0.437527589894822   0.873693059324787 1
ion Zn   0.132029185385014   0.888723946011499   0.139203546645540 1
ion Zn   0.223236664321275   0.766626308793991   0.367614605166125 1
ion Zn   0.116603049142766   0.883034357373025   0.650609390032276 1
ion Zn   0.226174181388543   0.774327526287287   0.873162207465773 1
ion Zn   0.431619736295886   0.242433695597359   0.131790188977801 1
ion Zn   0.559735050697691   0.100505097512811   0.384350823077633 1
ion Zn   0.448730203815486   0.207767996797716   0.639570721472279 1
ion Zn   0.548615117360413   0.117379775742631   0.890379481639649 1
ion Zn   0.444186138997110   0.561491844793200   0.115537665045472 1
ion Zn   0.552964165133107   0.459824420469083   0.370737342143114 1
ion Zn   0.441605414632093   0.574860099281324   0.619058100194424 1
ion Zn   0.558136357641780   0.458373434006268   0.877683103589217 1
ion Zn   0.446070798236304   0.877704075080193   0.129343785675404 1
ion Zn   0.554582720960910   0.780623253734385   0.354655079164364 1
ion Zn   0.462560340748602   0.894959145189153   0.636953690972844 1
ion Zn   0.532066809199102   0.772976150426640   0.888841331670862 1
ion Zn   0.785730148397513   0.220389682500153   0.120048138441544 1
ion Zn   0.895909291459735   0.118157878318240   0.378357843368574 1
ion Zn   0.768856143897258   0.227135510736235   0.632615393319462 1
ion Zn   0.899566604657799   0.120714588957117   0.874876866189420 1
ion Zn   0.777746680514855   0.540427025899327   0.129535557173036 1
ion Zn   0.892233572617955   0.439530881923357   0.378901706295090 1
ion Zn   0.781977087053530   0.546693229660622   0.613884814436786 1
ion Zn   0.884315619526883   0.436592704427457   0.882558493608878 1
ion Zn   0.793096932869910   0.878451880895194   0.109532812228002 1
ion Zn   0.893125445149400   0.776303042836881   0.369264586859101 1
ion Zn   0.779829906822246   0.868583709855116   0.638597644457600 1
ion Zn   0.887669895102322   0.787739145527091   0.876605531607412 1
ion O   0.142643648756776   0.898722939917192   0.453995081405173 1

# Forces in Lattice coordinates:
force Zn  -0.139354709668798   0.001024458540378  -0.003023980128853 1
force Zn  -0.105249297708704   1.229683806577320  -0.490377527747125 1
force Zn  -0.012131615630746   0.048327551196619  -0.248159806946553 1
force Zn   0.093921804847402   0.029909245800011   0.201399560384946 1
force Zn  -0.177760799563680   0.086225613231342   0.148668590364860 1
force Zn   0.015378893961902  -0.026828340763450   0.064584456958091 1
force Zn   0.132731394013138  -0.191450537932628  -0.091884533588072 1
force Zn   0.136214678985207  -0.031191015429741  -0.003842239755089 1
force Zn  -0.126809523966529   0.089122690427327  -0.378489296665833 1
force Zn   1.345229154389468  -1.521506314715126  -0.824608144044887 1
force Zn  -0.126639508235137   0.020479857424892   0.905729306824437 1
force Zn  -0.143953961244065   0.111796785204082   0.093784844870139 1
force Zn   0.261277631359283  -0.286397132124378   0.012600600352862 1
force Zn  -0.001471971798995   0.138227110808000  -0.073297583452012 1
force Zn  -0.115653349687380   0.253012155374947  -0.041732212783048 1
force Zn   0.060027895304293  -0.045148561074166   0.086225374001522 1
force Zn   0.103158670756597  -0.103740818949552   0.077149988011095 1
force Zn   0.092601035082547  -0.147612537823994   0.097145181258954 1
force Zn   0.084433371261550  -0.193892743902992   0.018379696891452 1
force Zn   0.043550601697900  -0.070523511373956  -0.103647016396970 1
force Zn  -0.071108393299699   0.255892091132014  -0.015786589656425 1
force Zn   0.134441665843051  -0.047728416347782   0.201039135777961 1
force Zn   0.028448746060783  -0.024492872220655   0.000181916631604 1
force Zn   0.235200326776575  -0.040790761749477  -0.166351268031292 1
force Zn  -0.036722025434294  -0.044510776430750   0.092379520170166 1
force Zn  -0.062717713414563  -0.038433170233735   0.046271574791701 1
force Zn   0.214461149241171  -0.167954384557257   0.001082497474636 1
force Zn  -0.156880157332349  -0.047887302337836   0.071566289022702 1
force Zn   0.030306314578039   0.056649561581208  -0.010414148523253 1
force Zn  -0.052004313276883  -0.019623276876517  -0.053028654056594 1
force Zn  -0.184210808482549   0.119123405770484   0.117396233352717 1
force Zn  -0.102026754588435   0.133024714557687  -0.011263641365201 1
force Zn  -0.063876342007647   0.125480837749108   0.183028908044442 1
force Zn  -0.638088970071614   0.069594333217042  -0.232740454498152 1
force Zn  -0.123104731809392   0.176901723732072  -0.106560350191006 1
force Zn   0.092372795348123  -0.198371351037851   0.030067581562884 1
force O  -0.663906205010272   0.303699509731336   0.407519077377183 1

# Energy components:
   Eewald =    -4563.1727538164805082
       EH =     3299.3038094254920907
     Eloc =    -7296.3767880892546600
      Enl =      262.7007670783231674
      Exc =     -755.3541670053446069
 Exc_core =        0.0628945988744975
       KE =      734.6106889414714942
-------------------------------------
     Etot =    -8318.2255488669215993
       TS =        0.0753346001869505
-------------------------------------
        F =    -8318.3008834671090881

IonicMinimize: Iter:   3  F: -8318.300883467109088  |grad|_K:  1.810e-02  alpha:  3.661e-01  linmin: -9.763e-01  t[s]:   5342.05

#--- Lowdin population analysis ---
# oxidation-state Zn +0.001 +0.177 -0.001 -0.005 +0.019 -0.000 +0.001 -0.002 +0.019 +0.194 +0.141 -0.005 -0.009 +0.039 +0.004 +0.015 -0.024 +0.003 +0.029 +0.036 -0.022 -0.012 +0.000 +0.004 +0.006 -0.016 +0.008 +0.007 +0.014 -0.009 -0.024 +0.007 +0.019 +0.165 +0.010 -0.007
# oxidation-state O -0.628


-------- Electronic minimization -----------
Will mix electronic density at each iteration.
	FillingsUpdate:  mu: +0.553236511  nElectrons: 726.000000
	FillingsUpdate:  mu: +0.555037170  nElectrons: 726.000000
SCF: Cycle:  0   F: -8315.802711027803525   dF: +1.206e+00   |Residual|: 7.490e-01   |deigs|: 2.894e-03  t[s]:   5524.22
	FillingsUpdate:  mu: +0.551736832  nElectrons: 726.000000
SCF: Cycle:  1   F: -8317.885307661796105   dF: -2.083e+00   |Residual|: 6.681e-01   |deigs|: 2.072e-02  t[s]:   5657.47
	FillingsUpdate:  mu: +0.552197828  nElectrons: 726.000000
SCF: Cycle:  2   F: -8318.285650776726470   dF: -4.003e-01   |Residual|: 2.090e-01   |deigs|: 7.812e-03  t[s]:   5790.48
	FillingsUpdate:  mu: +0.553200898  nElectrons: 726.000000
SCF: Cycle:  3   F: -8318.313760387009097   dF: -2.811e-02   |Residual|: 1.091e-01   |deigs|: 2.442e-03  t[s]:   5921.96
	FillingsUpdate:  mu: +0.552887336  nElectrons: 726.000000
SCF: Cycle:  4   F: -8318.333543294282208   dF: -1.978e-02   |Residual|: 2.132e-02   |deigs|: 1.574e-03  t[s]:   6043.31
	FillingsUpdate:  mu: +0.552942017  nElectrons: 726.000000
SCF: Cycle:  5   F: -8318.333481497933462   dF: +6.180e-05   |Residual|: 1.261e-02   |deigs|: 4.324e-04  t[s]:   6123.43
	FillingsUpdate:  mu: +0.552979055  nElectrons: 726.000000
SCF: Cycle:  6   F: -8318.333755348739942   dF: -2.739e-04   |Residual|: 2.605e-03   |deigs|: 1.705e-04  t[s]:   6203.54
	FillingsUpdate:  mu: +0.552980431  nElectrons: 726.000000
SCF: Cycle:  7   F: -8318.333762867427140   dF: -7.519e-06   |Residual|: 1.013e-03   |deigs|: 4.918e-05  t[s]:   6283.50
	FillingsUpdate:  mu: +0.552982954  nElectrons: 726.000000
SCF: Cycle:  8   F: -8318.333763369641019   dF: -5.022e-07   |Residual|: 3.997e-04   |deigs|: 2.202e-05  t[s]:   6363.56
	FillingsUpdate:  mu: +0.552983534  nElectrons: 726.000000
SCF: Cycle:  9   F: -8318.333763479680783   dF: -1.100e-07   |Residual|: 9.832e-05   |deigs|: 5.383e-06  t[s]:   6444.04
	FillingsUpdate:  mu: +0.552983674  nElectrons: 726.000000
SCF: Cycle: 10   F: -8318.333763485656164   dF: -5.975e-09   |Residual|: 4.973e-05   |deigs|: 2.208e-06  t[s]:   6524.16
	FillingsUpdate:  mu: +0.552983743  nElectrons: 726.000000
SCF: Cycle: 11   F: -8318.333763488208206   dF: -2.552e-09   |Residual|: 1.884e-05   |deigs|: 9.002e-07  t[s]:   6604.83
SCF: Converged (|Delta E|<1.000000e-08 for 2 iters).

Setting wave functions to eigenvectors of Hamiltonian

# Ionic positions in lattice coordinates:
ion Zn   0.117466544406179   0.222127198562934   0.131430085043028 1
ion Zn   0.225872916017831   0.136455399205508   0.387031772927612 1
ion Zn   0.111297196111436   0.224249521449949   0.645939114192261 1
ion Zn   0.216853802310931   0.104814821171418   0.870522985459930 1
ion Zn   0.122577980893376   0.551397840833915   0.111428821397378 1
ion Zn   0.220509936957083   0.449605981829851   0.378389241720274 1
ion Zn   0.106083889405892   0.560309326733043   0.640505494811530 1
ion Zn   0.212996464427346   0.437883360120596   0.873716387140486 1
ion Zn   0.131177221977388   0.888974530541120   0.137132708443118 1
ion Zn   0.226606284744987   0.762879686958940   0.365542822979589 1
ion Zn   0.115667435592338   0.882715959982847   0.654616860922968 1
ion Zn   0.225395150977610   0.774643863812826   0.873786244724593 1
ion Zn   0.432804765992058   0.240852868539917   0.131840609762612 1
ion Zn   0.560270150099018   0.101846291422877   0.383940480969939 1
ion Zn   0.448823354199858   0.209687719498284   0.639292333800841 1
ion Zn   0.549011568320882   0.117224738039329   0.890863842806988 1
ion Zn   0.444685665532107   0.560994483253615   0.115961812843236 1
ion Zn   0.553218020310287   0.458813891112854   0.371311090815951 1
ion Zn   0.441501198767076   0.573318549201730   0.619204787227283 1
ion Zn   0.558204508950589   0.457857501752260   0.877083199896493 1
ion Zn   0.446701662007985   0.879914170147038   0.129193643633131 1
ion Zn   0.555813844495014   0.780851612611582   0.355845702340997 1
ion Zn   0.462644840172239   0.894872177060656   0.636926720855592 1
ion Zn   0.534214258024673   0.773756478276924   0.887891819859496 1
ion Zn   0.785119086361657   0.219766447302581   0.120605825526545 1
ion Zn   0.895039375346072   0.117427586944786   0.378641655019264 1
ion Zn   0.770146062437817   0.226526793046177   0.632622567423871 1
ion Zn   0.897786333297594   0.119472098340539   0.875283004458971 1
ion Zn   0.778334762967971   0.541164986834862   0.129461273111717 1
ion Zn   0.891583465493952   0.439088928585417   0.378605131846560 1
ion Zn   0.780733757060005   0.546935470802439   0.614604225978474 1
ion Zn   0.883973167577364   0.437404035105514   0.882489746028428 1
ion Zn   0.793063657991555   0.879397774065962   0.110608470812736 1
ion Zn   0.888000739839564   0.774239075322886   0.368091322757399 1
ion Zn   0.779478216458238   0.869783784334574   0.637976736749448 1
ion Zn   0.887512210918765   0.786182918837824   0.876832381229623 1
ion O   0.140260503555264   0.897902128356427   0.453249074481638 1

# Forces in Lattice coordinates:
force Zn  -0.115091902497352   0.001076602016642  -0.011970033533592 1
force Zn  -0.020740152545804   0.792132034526064  -0.316541395510544 1
force Zn  -0.010540582062104   0.035138091158141  -0.210194954666584 1
force Zn   0.073093570671965   0.049080519757061   0.190252468493910 1
force Zn  -0.152863288942975   0.072701221844783   0.130374519723130 1
force Zn   0.013550309654118  -0.030132443324329   0.057669493160808 1
force Zn   0.111292083158251  -0.160152869112096  -0.087471094362314 1
force Zn   0.116699358936446  -0.027551831432806   0.007937522513954 1
force Zn  -0.117911399268554   0.078767388900051  -0.318090185150602 1
force Zn   0.892182238799119  -0.984866051426817  -0.515552364192308 1
force Zn  -0.095236782480196   0.021745358957347   0.544937116682469 1
force Zn  -0.100468493450850   0.074137842847750   0.098080635422953 1
force Zn   0.233481508340295  -0.258101119016082   0.008464692017395 1
force Zn  -0.016303743860297   0.128751504809081  -0.061428558813281 1
force Zn  -0.100210716271508   0.218526883369414  -0.042107576603760 1
force Zn   0.057914197897359  -0.043171876803457   0.067203917801873 1
force Zn   0.085205223503096  -0.085527612465206   0.063961134306379 1
force Zn   0.093791782115723  -0.139142232875018   0.086385171461118 1
force Zn   0.082232353909069  -0.178548763493581   0.025485008720269 1
force Zn   0.038360972300114  -0.067393529855394  -0.089268760938234 1
force Zn  -0.053731718906700   0.219139864259928  -0.021219364743082 1
force Zn   0.129111082177449  -0.042726038610041   0.181264117580376 1
force Zn   0.007852083135008  -0.011539366486391  -0.005447899220879 1
force Zn   0.207869424137049  -0.034428219273878  -0.141091655715773 1
force Zn  -0.036983275506495  -0.034758014115688   0.086211655126739 1
force Zn  -0.055139112162073  -0.037097123586579   0.044313764728480 1
force Zn   0.185992278162992  -0.146512319797084   0.001658776372922 1
force Zn  -0.133296682012256  -0.041862801037658   0.059142941502238 1
force Zn   0.024414794469287   0.054506187689155  -0.012621593374021 1
force Zn  -0.050647490362128  -0.010999961180060  -0.043401012735356 1
force Zn  -0.156453448903246   0.101184646024883   0.111523178352377 1
force Zn  -0.084712157349485   0.113805202518201  -0.012350085871269 1
force Zn  -0.063736911307740   0.116410963177306   0.163148272436345 1
force Zn  -0.480913679246159   0.060423184974244  -0.165257816311721 1
force Zn  -0.109433611394275   0.164821499958727  -0.094502916537802 1
force Zn   0.068335046066026  -0.172108407741469   0.038474848365720 1
force O  -0.466896873979279   0.204238001621933   0.182913110444451 1

# Energy components:
   Eewald =    -4567.3779600795032820
       EH =     3295.2659740175813567
     Eloc =    -7288.0549440756267359
      Enl =      262.6682146523846768
      Exc =     -755.3099460894728736
 Exc_core =        0.0628951942083929
       KE =      734.4870010206960842
-------------------------------------
     Etot =    -8318.2587653597311146
       TS =        0.0749981284773113
-------------------------------------
        F =    -8318.3337634882082057

IonicMinimize: Iter:   4  F: -8318.333763488208206  |grad|_K:  1.256e-02  alpha:  3.726e-01  linmin: -9.668e-01  t[s]:   6620.13

#--- Lowdin population analysis ---
# oxidation-state Zn +0.000 +0.165 +0.001 -0.006 +0.016 -0.005 +0.004 -0.001 +0.026 +0.182 +0.134 -0.007 -0.008 +0.042 +0.007 +0.014 -0.016 -0.002 +0.031 +0.032 -0.021 -0.014 +0.004 +0.004 +0.005 -0.011 +0.008 +0.010 +0.013 -0.004 -0.020 +0.008 +0.016 +0.163 +0.011 -0.007
# oxidation-state O -0.619


-------- Electronic minimization -----------
Will mix electronic density at each iteration.
	FillingsUpdate:  mu: +0.552983743  nElectrons: 726.000000
	FillingsUpdate:  mu: +0.553935136  nElectrons: 726.000000
SCF: Cycle:  0   F: -8315.309047961311080   dF: +1.236e+00   |Residual|: 8.241e-01   |deigs|: 3.594e-03  t[s]:   6803.52
	FillingsUpdate:  mu: +0.551598970  nElectrons: 726.000000
SCF: Cycle:  1   F: -8317.823336178809768   dF: -2.514e+00   |Residual|: 7.109e-01   |deigs|: 2.398e-02  t[s]:   6937.11
	FillingsUpdate:  mu: +0.551957000  nElectrons: 726.000000
SCF: Cycle:  2   F: -8318.300583807587827   dF: -4.772e-01   |Residual|: 2.138e-01   |deigs|: 8.436e-03  t[s]:   7070.13
	FillingsUpdate:  mu: +0.552980965  nElectrons: 726.000000
SCF: Cycle:  3   F: -8318.334635128385344   dF: -3.405e-02   |Residual|: 1.239e-01   |deigs|: 2.406e-03  t[s]:   7200.94
	FillingsUpdate:  mu: +0.552621471  nElectrons: 726.000000
SCF: Cycle:  4   F: -8318.359610247365708   dF: -2.498e-02   |Residual|: 2.586e-02   |deigs|: 1.712e-03  t[s]:   7322.36
	FillingsUpdate:  mu: +0.552688894  nElectrons: 726.000000
SCF: Cycle:  5   F: -8318.359469277451353   dF: +1.410e-04   |Residual|: 1.614e-02   |deigs|: 4.431e-04  t[s]:   7402.69
	FillingsUpdate:  mu: +0.552734376  nElectrons: 726.000000
SCF: Cycle:  6   F: -8318.359931759445317   dF: -4.625e-04   |Residual|: 3.143e-03   |deigs|: 2.154e-04  t[s]:   7483.23
	FillingsUpdate:  mu: +0.552735810  nElectrons: 726.000000
SCF: Cycle:  7   F: -8318.359944050385820   dF: -1.229e-05   |Residual|: 1.173e-03   |deigs|: 5.665e-05  t[s]:   7563.76
	FillingsUpdate:  mu: +0.552739169  nElectrons: 726.000000
SCF: Cycle:  8   F: -8318.359944538087802   dF: -4.877e-07   |Residual|: 5.068e-04   |deigs|: 2.612e-05  t[s]:   7644.20
	FillingsUpdate:  mu: +0.552739903  nElectrons: 726.000000
SCF: Cycle:  9   F: -8318.359944771689698   dF: -2.336e-07   |Residual|: 1.199e-04   |deigs|: 7.801e-06  t[s]:   7724.24
	FillingsUpdate:  mu: +0.552739975  nElectrons: 726.000000
SCF: Cycle: 10   F: -8318.359944780653677   dF: -8.964e-09   |Residual|: 5.609e-05   |deigs|: 2.610e-06  t[s]:   7804.63
	FillingsUpdate:  mu: +0.552740126  nElectrons: 726.000000
SCF: Cycle: 11   F: -8318.359944783347601   dF: -2.694e-09   |Residual|: 2.525e-05   |deigs|: 1.138e-06  t[s]:   7884.98
SCF: Converged (|Delta E|<1.000000e-08 for 2 iters).

Setting wave functions to eigenvectors of Hamiltonian

# Ionic positions in lattice coordinates:
ion Zn   0.115681840422421   0.221253461787203   0.131230798507147 1
ion Zn   0.230396060340894   0.143566520717440   0.385460344992316 1
ion Zn   0.111367300813476   0.224655593232079   0.643994376440679 1
ion Zn   0.218480750766717   0.106460553679998   0.872454336754777 1
ion Zn   0.120695663785174   0.551308600343156   0.112650783130695 1
ion Zn   0.220448626148658   0.449132353708817   0.378950206331427 1
ion Zn   0.106572228381730   0.558670056908541   0.639616251351945 1
ion Zn   0.214634144379458   0.438362034476130   0.873876384175113 1
ion Zn   0.129830916284628   0.889272025612489   0.134277823501977 1
ion Zn   0.230324092691840   0.759370798417686   0.363703605682446 1
ion Zn   0.114610720678815   0.882470943979544   0.657684235921581 1
ion Zn   0.224545544708375   0.774887260932255   0.874848318292098 1
ion Zn   0.434512595513741   0.238501438173048   0.131891227105347 1
ion Zn   0.560857631368544   0.103780494417480   0.383382321516834 1
ion Zn   0.448954178681281   0.212380245730334   0.638839944407994 1
ion Zn   0.549644937592222   0.116983970595284   0.891452426832853 1
ion Zn   0.445347010991959   0.560336380702073   0.116533019794675 1
ion Zn   0.553720391925593   0.457291907114120   0.372142923465726 1
ion Zn   0.441431522114955   0.571032234580797   0.619518192918529 1
ion Zn   0.558249950672653   0.457011706474009   0.876245111919428 1
ion Zn   0.447703253137897   0.883039585894044   0.128913432108479 1
ion Zn   0.557744748114404   0.781267499555297   0.357603914563614 1
ion Zn   0.462529706072945   0.894771325156600   0.636828547784623 1
ion Zn   0.537329994929393   0.774912017487045   0.886587689484041 1
ion Zn   0.784198970327656   0.218918262509761   0.121462270391507 1
ion Zn   0.893786820486781   0.116324937558978   0.379089762530221 1
ion Zn   0.771955158955212   0.225653505506907   0.632641872908609 1
ion Zn   0.895332048138953   0.117740713594386   0.875820733261017 1
ion Zn   0.779178359211232   0.542292655114761   0.129315597333564 1
ion Zn   0.890630487440443   0.438535715107093   0.378215763993183 1
ion Zn   0.779039562349739   0.547280970154441   0.615728073270905 1
ion Zn   0.883554858656423   0.438555432449168   0.882359534365777 1
ion Zn   0.792923898787143   0.880798874675440   0.112176748150703 1
ion Zn   0.881969390321145   0.771938954977411   0.366834921374489 1
ion Zn   0.779058724600754   0.871675646055448   0.637074190701176 1
ion Zn   0.887066985935505   0.783879693804510   0.877291302652347 1
ion O   0.137120924271238   0.897025628816226   0.451773012082159 1

# Forces in Lattice coordinates:
force Zn  -0.083656743113125   0.001499263502211  -0.017401259345520 1
force Zn   0.032298855992981   0.450369338016380  -0.189472418450341 1
force Zn  -0.007601938157636   0.018396837311947  -0.161402798401273 1
force Zn   0.049001527275144   0.058678509091850   0.160830214903051 1
force Zn  -0.120043888381788   0.055487212961995   0.109229710251746 1
force Zn   0.010106518729224  -0.031814761762130   0.047166116895388 1
force Zn   0.084711888356631  -0.119889302916449  -0.077230548281520 1
force Zn   0.090392438376488  -0.021146844495693   0.019734745955942 1
force Zn  -0.104622926009089   0.064247930571451  -0.251153124798876 1
force Zn   0.529714374160440  -0.559558214712833  -0.284362166602767 1
force Zn  -0.067868199186435   0.023679308610394   0.274724147485024 1
force Zn  -0.056058806241294   0.037281056921663   0.089791240272326 1
force Zn   0.195867101487112  -0.217836818200102   0.005910576637039 1
force Zn  -0.029377265060208   0.112879211735724  -0.045819817910322 1
force Zn  -0.079168496378807   0.173057573363405  -0.038092273414274 1
force Zn   0.053358231151780  -0.039568507569219   0.039910777569384 1
force Zn   0.063396085799245  -0.064397155548038   0.050118204956987 1
force Zn   0.092938304775746  -0.124775641181014   0.071033634891143 1
force Zn   0.077510727855145  -0.154710046442105   0.032737506595925 1
force Zn   0.031115450233865  -0.062338456648131  -0.069281026587193 1
force Zn  -0.035702356250309   0.170390607723842  -0.021270389983954 1
force Zn   0.110152250162173  -0.032630358968355   0.155826024379355 1
force Zn  -0.015859808740071   0.001712775892617  -0.011066998609117 1
force Zn   0.173023358360895  -0.028076042969733  -0.110235120674098 1
force Zn  -0.035344735051345  -0.021097464858855   0.076998674433113 1
force Zn  -0.041811873864912  -0.033497925879767   0.040403653959356 1
force Zn   0.147686209398522  -0.117279199588955   0.002675435708433 1
force Zn  -0.102093813119336  -0.034313322530321   0.044337238894365 1
force Zn   0.015411477986163   0.051334140934406  -0.014486987607448 1
force Zn  -0.045312213525645  -0.000774140623519  -0.030905092652961 1
force Zn  -0.119599985256753   0.079214959884187   0.102863971839287 1
force Zn  -0.060756096766568   0.087320543885646  -0.014507867854029 1
force Zn  -0.063552997130761   0.103530212882365   0.136683323742638 1
force Zn  -0.329072758250950   0.047141321472345  -0.102133590140907 1
force Zn  -0.089629325730728   0.145557973395931  -0.077499772602534 1
force Zn   0.044218946587676  -0.136475137105922   0.040411003697981 1
force O  -0.313656693470399   0.118444913870601   0.015415730858904 1

# Energy components:
   Eewald =    -4571.4782641914362102
       EH =     3291.3065998053657495
     Eloc =    -7279.9238351851854532
      Enl =      262.6441041741387608
      Exc =     -755.2698637380599394
 Exc_core =        0.0628963715632134
       KE =      734.3730485214064174
-------------------------------------
     Etot =    -8318.2853142422100063
       TS =        0.0746305411379539
-------------------------------------
        F =    -8318.3599447833476006

IonicMinimize: Iter:   5  F: -8318.359944783347601  |grad|_K:  8.203e-03  alpha:  4.000e-01  linmin: -9.736e-01  t[s]:   7900.11

#--- Lowdin population analysis ---
# oxidation-state Zn -0.001 +0.155 +0.002 -0.006 +0.013 -0.010 +0.006 -0.000 +0.032 +0.170 +0.129 -0.009 -0.008 +0.043 +0.010 +0.014 -0.006 -0.008 +0.034 +0.027 -0.020 -0.016 +0.007 +0.004 +0.004 -0.005 +0.008 +0.012 +0.011 +0.001 -0.016 +0.010 +0.011 +0.159 +0.012 -0.007
# oxidation-state O -0.611


-------- Electronic minimization -----------
Will mix electronic density at each iteration.
	FillingsUpdate:  mu: +0.552740126  nElectrons: 726.000000
	FillingsUpdate:  mu: +0.551798211  nElectrons: 726.000000
SCF: Cycle:  0   F: -8314.841103260181626   dF: +9.717e-01   |Residual|: 9.124e-01   |deigs|: 4.804e-03  t[s]:   8082.50
	FillingsUpdate:  mu: +0.551536149  nElectrons: 726.000000
SCF: Cycle:  1   F: -8317.797246892216208   dF: -2.956e+00   |Residual|: 7.256e-01   |deigs|: 2.884e-02  t[s]:   8216.03
	FillingsUpdate:  mu: +0.551780081  nElectrons: 726.000000
SCF: Cycle:  2   F: -8318.312807791773594   dF: -5.156e-01   |Residual|: 2.087e-01   |deigs|: 8.861e-03  t[s]:   8349.13
	FillingsUpdate:  mu: +0.552685663  nElectrons: 726.000000
SCF: Cycle:  3   F: -8318.358087844435431   dF: -4.528e-02   |Residual|: 1.174e-01   |deigs|: 1.850e-03  t[s]:   8480.21
	FillingsUpdate:  mu: +0.552358855  nElectrons: 726.000000
SCF: Cycle:  4   F: -8318.378902144240783   dF: -2.081e-02   |Residual|: 3.306e-02   |deigs|: 1.717e-03  t[s]:   8602.55
	FillingsUpdate:  mu: +0.552454881  nElectrons: 726.000000
SCF: Cycle:  5   F: -8318.379287619212846   dF: -3.855e-04   |Residual|: 1.874e-02   |deigs|: 3.859e-04  t[s]:   8682.59
	FillingsUpdate:  mu: +0.552503535  nElectrons: 726.000000
SCF: Cycle:  6   F: -8318.379906686928734   dF: -6.191e-04   |Residual|: 2.850e-03   |deigs|: 2.450e-04  t[s]:   8799.57
	FillingsUpdate:  mu: +0.552503132  nElectrons: 726.000000
SCF: Cycle:  7   F: -8318.379913899269013   dF: -7.212e-06   |Residual|: 1.141e-03   |deigs|: 4.789e-05  t[s]:   8879.84
	FillingsUpdate:  mu: +0.552507974  nElectrons: 726.000000
SCF: Cycle:  8   F: -8318.379914415243547   dF: -5.160e-07   |Residual|: 4.077e-04   |deigs|: 2.562e-05  t[s]:   8960.00
	FillingsUpdate:  mu: +0.552508008  nElectrons: 726.000000
SCF: Cycle:  9   F: -8318.379914541026665   dF: -1.258e-07   |Residual|: 1.037e-04   |deigs|: 7.509e-06  t[s]:   9040.67
	FillingsUpdate:  mu: +0.552508043  nElectrons: 726.000000
SCF: Cycle: 10   F: -8318.379914549597743   dF: -8.571e-09   |Residual|: 5.526e-05   |deigs|: 2.270e-06  t[s]:   9120.97
	FillingsUpdate:  mu: +0.552508198  nElectrons: 726.000000
SCF: Cycle: 11   F: -8318.379914552682749   dF: -3.085e-09   |Residual|: 1.327e-05   |deigs|: 1.061e-06  t[s]:   9201.11
SCF: Converged (|Delta E|<1.000000e-08 for 2 iters).

Setting wave functions to eigenvectors of Hamiltonian

# Ionic positions in lattice coordinates:
ion Zn   0.113620710914340   0.220259885024177   0.130863371515532 1
ion Zn   0.235707894731753   0.150596461612055   0.383875440264315 1
ion Zn   0.111345551887715   0.224909010826788   0.641572573516816 1
ion Zn   0.220578608973371   0.108957611966224   0.875069089274650 1
ion Zn   0.118278101322946   0.551156678564249   0.114346908780434 1
ion Zn   0.220233072416021   0.448296418453681   0.379692274923568 1
ion Zn   0.107209207022664   0.556716490616189   0.638348136167856 1
ion Zn   0.216692985395315   0.438974923806365   0.874304454766685 1
ion Zn   0.127792727541487   0.889538103323244   0.130537726985774 1
ion Zn   0.234435708645034   0.756296774031794   0.362028155477473 1
ion Zn   0.113456464697897   0.882414902574379   0.659580997778438 1
ion Zn   0.223796616908859   0.774946209816226   0.876383863153056 1
ion Zn   0.436838456349072   0.235247121055444   0.131956536440540 1
ion Zn   0.561343301384760   0.106365163707094   0.382708631845370 1
ion Zn   0.449136570941172   0.215855841593950   0.638192806218962 1
ion Zn   0.550596716411798   0.116625110637115   0.891968787781016 1
ion Zn   0.446126991764436   0.559516447854080   0.117274556265668 1
ion Zn   0.554691135154879   0.455174347779016   0.373256061401404 1
ion Zn   0.441513119338330   0.567889348394641   0.620131864769477 1
ion Zn   0.558196907580953   0.455668961801278   0.875192887804892 1
ion Zn   0.449114788119247   0.887051451500533   0.128507762170963 1
ion Zn   0.560410063414376   0.781943090592902   0.360083884502216 1
ion Zn   0.461895901706994   0.894623819223474   0.636593253005418 1
ion Zn   0.541583726011112   0.776493784154100   0.884925773146483 1
ion Zn   0.782943002197885   0.217937836402872   0.122714533761670 1
ion Zn   0.892205943990018   0.114831160984865   0.379755907099342 1
ion Zn   0.774276961769684   0.224500751218764   0.632691870974509 1
ion Zn   0.892258642150987   0.115525061513981   0.876473202428441 1
ion Zn   0.780262696810474   0.543924994598442   0.129053044364810 1
ion Zn   0.889389622459017   0.437988257207283   0.377772924190407 1
ion Zn   0.776986985555574   0.547781092310064   0.617424348956305 1
ion Zn   0.883168632964800   0.440047990231694   0.882105158891176 1
ion Zn   0.792519708307819   0.882742469389806   0.114327400990571 1
ion Zn   0.875291734830641   0.769512724697991   0.365631256358031 1
ion Zn   0.778667195889753   0.874505356201351   0.635865425009253 1
ion Zn   0.886239336859664   0.780786970082767   0.878029527421435 1
ion O   0.132624207579153   0.895737376251121   0.449229601597046 1

# Forces in Lattice coordinates:
force Zn  -0.049002099977021   0.003263936965460  -0.017895246116870 1
force Zn   0.058170164889060   0.173470659204050  -0.097038600409972 1
force Zn  -0.002535102058887  -0.000266490950983  -0.106180116484870 1
force Zn   0.025291361508076   0.054472309195582   0.113180721302490 1
force Zn  -0.081722259509375   0.035455710028803   0.085519901255012 1
force Zn   0.004588416545207  -0.029116429193285   0.033788660169478 1
force Zn   0.055633312953660  -0.073594134088801  -0.061322400855680 1
force Zn   0.058422332448529  -0.011042847529110   0.028963785157423 1
force Zn  -0.086423486498933   0.046779676431683  -0.180499419224285 1
force Zn   0.243963698810315  -0.226497329747058  -0.116246044459883 1
force Zn  -0.041924285010460   0.026023696177187   0.084824665899752 1
force Zn  -0.016439156695231   0.007025708908670   0.065468647591647 1
force Zn   0.149567821124995  -0.164938147706057   0.004553336227080 1
force Zn  -0.037959300389646   0.088432088899069  -0.025717021075879 1
force Zn  -0.054836746441827   0.116809955704017  -0.030266217660803 1
force Zn   0.045580352061025  -0.033718646435287   0.005511807093253 1
force Zn   0.040522181367788  -0.043115360837479   0.037064799406541 1
force Zn   0.089094804006199  -0.100202815519392   0.051300320665724 1
force Zn   0.067909333534961  -0.119983352924155   0.038452454576360 1
force Zn   0.021826503914801  -0.054467747192595  -0.042454386307907 1
force Zn  -0.019744772101002   0.111434744168362  -0.016008627510420 1
force Zn   0.073310135756658  -0.017620885602305   0.127028482917273 1
force Zn  -0.039669424133050   0.012716692012720  -0.016547819796518 1
force Zn   0.131062265995777  -0.022930157963609  -0.075974940921419 1
force Zn  -0.029991824306147  -0.004020010838371   0.063823589778050 1
force Zn  -0.025070195088301  -0.024929745996053   0.033406094920978 1
force Zn   0.100413438962990  -0.080745665186694   0.003815416771651 1
force Zn  -0.064893918840546  -0.025029823525179   0.030245841420566 1
force Zn   0.003083746112376   0.046567828743487  -0.015494319685871 1
force Zn  -0.034440614458442   0.008722442981993  -0.015760743134141 1
force Zn  -0.075124367763309   0.055309536244238   0.090333502228429 1
force Zn  -0.030834841146149   0.053362594313462  -0.016672329199450 1
force Zn  -0.062658389638814   0.086074248615422   0.103756100195326 1
force Zn  -0.192418074655080   0.028334248054413  -0.050462942480969 1
force Zn  -0.064933293690383   0.117298610049854  -0.056233770093872 1
force Zn   0.022707466089162  -0.092134020766256   0.033240183252010 1
force O  -0.180599917407454   0.052819200741716  -0.093889365646282 1

# Energy components:
   Eewald =    -4574.8687158098891814
       EH =     3288.0160371054053030
     Eloc =    -7273.1809658323081749
      Enl =      262.6267660667598989
      Exc =     -755.2356285069977275
 Exc_core =        0.0628975110733334
       KE =      734.2739375493315492
-------------------------------------
     Etot =    -8318.3056719166252151
       TS =        0.0742426360579380
-------------------------------------
        F =    -8318.3799145526827488

IonicMinimize: Iter:   6  F: -8318.379914552682749  |grad|_K:  4.781e-03  alpha:  4.661e-01  linmin: -9.921e-01  t[s]:   9216.31

#--- Lowdin population analysis ---
# oxidation-state Zn -0.002 +0.145 +0.002 -0.005 +0.008 -0.016 +0.007 +0.001 +0.039 +0.159 +0.127 -0.010 -0.006 +0.043 +0.011 +0.013 +0.007 -0.014 +0.037 +0.021 -0.018 -0.018 +0.010 +0.003 +0.003 +0.002 +0.009 +0.016 +0.009 +0.007 -0.011 +0.012 +0.005 +0.155 +0.011 -0.006
# oxidation-state O -0.604


-------- Electronic minimization -----------
Will mix electronic density at each iteration.
	FillingsUpdate:  mu: +0.552508198  nElectrons: 726.000000
	FillingsUpdate:  mu: +0.548741091  nElectrons: 726.000000
SCF: Cycle:  0   F: -8315.333184023766080   dF: -5.578e-02   |Residual|: 9.139e-01   |deigs|: 5.598e-03  t[s]:   9399.06
	FillingsUpdate:  mu: +0.551595096  nElectrons: 726.000000
SCF: Cycle:  1   F: -8317.979772622778910   dF: -2.647e+00   |Residual|: 6.030e-01   |deigs|: 3.104e-02  t[s]:   9532.54
	FillingsUpdate:  mu: +0.551820346  nElectrons: 726.000000
SCF: Cycle:  2   F: -8318.309790327070004   dF: -3.300e-01   |Residual|: 2.090e-01   |deigs|: 7.861e-03  t[s]:   9665.71
	FillingsUpdate:  mu: +0.552210097  nElectrons: 726.000000
SCF: Cycle:  3   F: -8318.390044227702674   dF: -8.025e-02   |Residual|: 5.262e-02   |deigs|: 2.800e-03  t[s]:   9796.19
	FillingsUpdate:  mu: +0.552310464  nElectrons: 726.000000
SCF: Cycle:  4   F: -8318.392328777714283   dF: -2.285e-03   |Residual|: 1.550e-02   |deigs|: 8.594e-04  t[s]:   9917.72
	FillingsUpdate:  mu: +0.552294115  nElectrons: 726.000000
SCF: Cycle:  5   F: -8318.392565249398103   dF: -2.365e-04   |Residual|: 5.930e-03   |deigs|: 2.643e-04  t[s]:   9997.63
	FillingsUpdate:  mu: +0.552309935  nElectrons: 726.000000
SCF: Cycle:  6   F: -8318.392587887437912   dF: -2.264e-05   |Residual|: 1.921e-03   |deigs|: 9.670e-05  t[s]:  10077.67
	FillingsUpdate:  mu: +0.552314406  nElectrons: 726.000000
SCF: Cycle:  7   F: -8318.392590663299416   dF: -2.776e-06   |Residual|: 5.557e-04   |deigs|: 3.105e-05  t[s]:  10157.97
	FillingsUpdate:  mu: +0.552313392  nElectrons: 726.000000
SCF: Cycle:  8   F: -8318.392590997344087   dF: -3.340e-07   |Residual|: 2.135e-04   |deigs|: 1.090e-05  t[s]:  10238.11
	FillingsUpdate:  mu: +0.552313775  nElectrons: 726.000000
SCF: Cycle:  9   F: -8318.392591030782569   dF: -3.344e-08   |Residual|: 7.954e-05   |deigs|: 3.334e-06  t[s]:  10318.17
	FillingsUpdate:  mu: +0.552314126  nElectrons: 726.000000
SCF: Cycle: 10   F: -8318.392591035730220   dF: -4.948e-09   |Residual|: 4.059e-05   |deigs|: 1.579e-06  t[s]:  10398.54
	FillingsUpdate:  mu: +0.552314058  nElectrons: 726.000000
SCF: Cycle: 11   F: -8318.392591038173123   dF: -2.443e-09   |Residual|: 1.039e-05   |deigs|: 7.922e-07  t[s]:  10478.77
SCF: Converged (|Delta E|<1.000000e-08 for 2 iters).

Setting wave functions to eigenvectors of Hamiltonian

# Ionic positions in lattice coordinates:
ion Zn   0.111735161085129   0.219436022147547   0.130345401217547 1
ion Zn   0.241032318593038   0.156191524813751   0.382163139699431 1
ion Zn   0.111173237812266   0.224693696498243   0.638975773751104 1
ion Zn   0.222822327313896   0.112037918497197   0.877970754818311 1
ion Zn   0.115557193758089   0.550896348951899   0.116534442682055 1
ion Zn   0.219734077361831   0.447031229416803   0.380548234237746 1
ion Zn   0.108017033877458   0.554865284665877   0.636745889767213 1
ion Zn   0.218910427996093   0.439750093038809   0.875153774723261 1
ion Zn   0.124948339802631   0.889631369001959   0.126053241276179 1
ion Zn   0.238783957478552   0.754276913913376   0.360464792641352 1
ion Zn   0.112443072074468   0.882823652851942   0.660098697609430 1
ion Zn   0.223454931151576   0.774749585828495   0.878108874364330 1
ion Zn   0.439766145785241   0.231302886633673   0.132061533637092 1
ion Zn   0.561419278430293   0.109342086222671   0.382106341413687 1
ion Zn   0.449273714442408   0.219628016633424   0.637392154091542 1
ion Zn   0.551894168498732   0.116134996099440   0.891964468110691 1
ion Zn   0.446895779074046   0.558560681319108   0.118196765670917 1
ion Zn   0.556559976782419   0.452758975117691   0.374555895480804 1
ion Zn   0.441945354427636   0.564135158049149   0.621212364606019 1
ion Zn   0.557902557443813   0.453676788333520   0.874162977721485 1
ion Zn   0.450712241859830   0.891349328898459   0.128067933378595 1
ion Zn   0.563247860248215   0.782821846907596   0.363376326554355 1
ion Zn   0.460194671595705   0.894308326858417   0.636112114531848 1
ion Zn   0.546785953100412   0.778347455248013   0.883047793692418 1
ion Zn   0.781553376275709   0.217202947812027   0.124386117597824 1
ion Zn   0.890612958208874   0.113205259181177   0.380635429445378 1
ion Zn   0.776814813476894   0.223190819805175   0.632800381054497 1
ion Zn   0.889028140998608   0.113101117292907   0.877211330988874 1
ion Zn   0.781374259702017   0.546066902529670   0.128624142455861 1
ion Zn   0.888101740056721   0.437716137692964   0.377419285966841 1
ion Zn   0.775048687977920   0.548565719939851   0.619815870691675 1
ion Zn   0.883078989537250   0.441653116051935   0.881645333364338 1
ion Zn   0.791554867852073   0.885140414922226   0.116980352463278 1
ion Zn   0.868556974330964   0.767024511919115   0.364637884135249 1
ion Zn   0.778468072259794   0.878319339608236   0.634441914885121 1
ion Zn   0.885098595203233   0.777290755464336   0.878940521661244 1
ion O   0.126928744126167   0.894112771833320   0.445511749612407 1

# Forces in Lattice coordinates:
force Zn  -0.017930506715679   0.005806839901094  -0.012975103371820 1
force Zn   0.056579967488123  -0.016282855907789  -0.042866574625395 1
force Zn   0.004042477950622  -0.014716018827470  -0.053868805772249 1
force Zn   0.007258191478283   0.037896952740084   0.058099832836257 1
[...]
ion Zn   0.558918723376946   0.781412691719365   0.386988366472316 1
ion Zn   0.448573692624669   0.890446448946078   0.632089208700896 1
ion Zn   0.557769663873346   0.778385257352380   0.881849780995592 1
ion Zn   0.779808049783967   0.222429192612294   0.130079573810093 1
ion Zn   0.889338909545932   0.113699406983477   0.382256845666249 1
ion Zn   0.779948061960519   0.222466220513451   0.636155762377106 1
ion Zn   0.891013029760614   0.111919715954721   0.882068586340674 1
ion Zn   0.779960568317734   0.553310832266040   0.125902980702838 1
ion Zn   0.889317182143961   0.441413267330947   0.382315829216927 1
ion Zn   0.779117304035787   0.553880029354563   0.631921688696843 1
ion Zn   0.890689812253378   0.444146342477724   0.881876503107937 1
ion Zn   0.780372798840318   0.891600165623290   0.125258117225868 1
ion Zn   0.850984185646355   0.758704593601552   0.361006482446754 1
ion Zn   0.779614912935147   0.890349071222944   0.632653105783062 1
ion Zn   0.885643724717980   0.775268277292252   0.874697935348196 1
ion O   0.112708928064790   0.889312340781661   0.426105405694051 1

# Forces in Lattice coordinates:
force Zn   0.000772998239505   0.000900945660379  -0.000796710902284 1
force Zn   0.000752137808705   0.028783470667854  -0.013883472543966 1
force Zn   0.001822655611604  -0.003077430738674  -0.001461684107266 1
force Zn  -0.001809009043354   0.003356689573814   0.002349787358357 1
force Zn   0.000401143068991  -0.000925250340615  -0.000035283280669 1
force Zn   0.007189336503513  -0.012732689163807   0.001813806096213 1
force Zn  -0.001083020383493   0.001673281561650  -0.000158472098913 1
force Zn  -0.001940445211785   0.002785758165360   0.002591234566711 1
force Zn  -0.001267714981696   0.000422995874609  -0.004060062130421 1
force Zn  -0.019303696205153   0.018185828148880   0.009336618118539 1
force Zn   0.000801699138388  -0.001715574885176  -0.015472747489927 1
force Zn   0.003927760229498  -0.002757731826591   0.004330769655739 1
force Zn   0.000886411460494   0.000598075844144   0.001820261424061 1
force Zn  -0.003412600629749   0.002859038932608   0.000112766873268 1
force Zn  -0.000129287058384  -0.000602189766551  -0.001689561937873 1
force Zn  -0.000392814513510  -0.000421532299852  -0.001639672614635 1
force Zn   0.000926368129374   0.000240652984554   0.003458869750753 1
force Zn  -0.002672080553329   0.000518883953683   0.000566220244530 1
force Zn   0.000166195230493   0.000062208009269  -0.000208227806096 1
force Zn  -0.001657114130841   0.001006572295927  -0.000164279519411 1
force Zn   0.000934809729885  -0.000036445731315   0.001543096034613 1
force Zn   0.009501638903784  -0.005217457506792   0.000637150141382 1
force Zn  -0.004736554165656   0.001954622068217   0.000775961026626 1
force Zn   0.000931874931195   0.000534497821031   0.000644674943088 1
force Zn   0.000444994025800  -0.000114393669623  -0.000188163129168 1
force Zn  -0.001789450191008  -0.000093896052292  -0.001038873416354 1
force Zn   0.000108556889562   0.000719318771905  -0.001409367059286 1
force Zn  -0.001115664210421   0.000114449841260  -0.003189035228007 1
force Zn  -0.001171626428194   0.001758966926662  -0.000324817016976 1
force Zn  -0.001836403256160   0.001337639845926  -0.000550999650528 1
force Zn   0.001427117808037   0.001533868523024   0.001241861476002 1
force Zn   0.001064161644962  -0.001116402050727  -0.002589120105324 1
force Zn  -0.001830263462240  -0.000461115599267   0.002001697965810 1
force Zn  -0.012256942935642  -0.001911024948689  -0.003161517613142 1
force Zn  -0.000232540500524   0.000504996063108  -0.002283906163132 1
force Zn  -0.001264134021341  -0.000589399561612   0.002211513001014 1
force O   0.027983477040800  -0.038111252214594   0.019660424018836 1

# Energy components:
   Eewald =    -4578.8309826011636687
       EH =     3284.1576899767123905
     Eloc =    -7265.2981424622448685
      Enl =      262.6259131701199863
      Exc =     -755.2024714498936646
 Exc_core =        0.0628956900641907
       KE =      734.1520648898463151
-------------------------------------
     Etot =    -8318.3330327865587606
       TS =        0.0729925433949592
-------------------------------------
        F =    -8318.4060253299539909

IonicMinimize: Iter:  16  F: -8318.406025329953991  |grad|_K:  4.248e-04  alpha:  1.000e+00  linmin:  1.712e-01  t[s]:  20103.13

#--- Lowdin population analysis ---
# oxidation-state Zn -0.007 +0.147 +0.001 -0.002 -0.007 -0.021 +0.003 +0.001 +0.054 +0.144 +0.138 -0.003 -0.007 +0.024 +0.002 +0.013 +0.049 -0.022 +0.034 +0.002 -0.008 -0.022 +0.003 +0.001 +0.003 +0.025 +0.018 +0.014 -0.007 +0.025 +0.003 +0.013 -0.008 +0.145 +0.003 -0.003
# oxidation-state O -0.599


-------- Electronic minimization -----------
Will mix electronic density at each iteration.
	FillingsUpdate:  mu: +0.552310999  nElectrons: 726.000000
	FillingsUpdate:  mu: +0.552303356  nElectrons: 726.000000
SCF: Cycle:  0   F: -8318.406010314214654   dF: +1.799e-05   |Residual|: 4.031e-03   |deigs|: 6.332e-07  t[s]:  20236.65
	FillingsUpdate:  mu: +0.552301765  nElectrons: 726.000000
SCF: Cycle:  1   F: -8318.406059289773111   dF: -4.898e-05   |Residual|: 2.720e-03   |deigs|: 1.404e-04  t[s]:  20316.43
	FillingsUpdate:  mu: +0.552303152  nElectrons: 726.000000
SCF: Cycle:  2   F: -8318.406064496793988   dF: -5.207e-06   |Residual|: 5.358e-04   |deigs|: 4.572e-05  t[s]:  20396.73
	FillingsUpdate:  mu: +0.552303979  nElectrons: 726.000000
SCF: Cycle:  3   F: -8318.406065981087522   dF: -1.484e-06   |Residual|: 1.663e-04   |deigs|: 1.256e-05  t[s]:  20476.24
	FillingsUpdate:  mu: +0.552303844  nElectrons: 726.000000
SCF: Cycle:  4   F: -8318.406065988156115   dF: -7.069e-09   |Residual|: 9.683e-05   |deigs|: 3.256e-06  t[s]:  20556.38
	FillingsUpdate:  mu: +0.552304095  nElectrons: 726.000000
SCF: Cycle:  5   F: -8318.406065994018718   dF: -5.863e-09   |Residual|: 1.852e-05   |deigs|: 1.836e-06  t[s]:  20636.70
SCF: Converged (|Delta E|<1.000000e-08 for 2 iters).

Setting wave functions to eigenvectors of Hamiltonian

# Ionic positions in lattice coordinates:
ion Zn   0.110975534950187   0.221964055425260   0.126287539611096 1
ion Zn   0.244507397560834   0.151982028126635   0.362932732961811 1
ion Zn   0.112109154418265   0.223435260109515   0.632627411088038 1
ion Zn   0.227414164915282   0.116548452848988   0.874860776744378 1
ion Zn   0.110827545505123   0.553396157893737   0.125027284492465 1
ion Zn   0.221367266410684   0.443912012257893   0.386648224542805 1
ion Zn   0.112241438152179   0.554518641037033   0.632060378490638 1
ion Zn   0.223875523168007   0.443991447904516   0.881870118587439 1
ion Zn   0.113290238225040   0.888839968553904   0.108867704105291 1
ion Zn   0.244628863529239   0.758815653646923   0.359826047680238 1
ion Zn   0.113348454782204   0.889399539102472   0.645936707473973 1
ion Zn   0.226772537817400   0.775205448254408   0.873972012585840 1
ion Zn   0.448010329751491   0.221927344472962   0.126093435055221 1
ion Zn   0.561687249891762   0.113542436476700   0.381900552577127 1
ion Zn   0.448486354387071   0.223195970872800   0.632308110970352 1
ion Zn   0.558628390336854   0.111830214923253   0.881688106805940 1
ion Zn   0.446482981912259   0.555740214196483   0.130892387588898 1
ion Zn   0.559472271475462   0.443232439244464   0.386760177164516 1
ion Zn   0.446750318549838   0.555827737624742   0.637182306947123 1
ion Zn   0.558180514369844   0.444435355189412   0.882384329898742 1
ion Zn   0.448871138289915   0.891548251110165   0.124650736388941 1
ion Zn   0.559068489902065   0.781409234874026   0.387227046798033 1
ion Zn   0.448551819502700   0.890465822852285   0.632088607022922 1
ion Zn   0.557798012223759   0.778394156932151   0.882051152730350 1
ion Zn   0.779772313837402   0.222427644965963   0.130107230458771 1
ion Zn   0.889297401108243   0.113682798793089   0.382235623290320 1
ion Zn   0.779987945810842   0.222470507284479   0.636203229692893 1
ion Zn   0.891034137781170   0.111925455720534   0.882039221813138 1
ion Zn   0.779948151162187   0.553354193004752   0.125946150228626 1
ion Zn   0.889285338554234   0.441420485631075   0.382348853425128 1
ion Zn   0.779196431252779   0.553900439172071   0.631998823258538 1
ion Zn   0.890765602578216   0.444181741464506   0.881926837771770 1
ion Zn   0.780309421243839   0.891579062284608   0.125259102919005 1
ion Zn   0.850371023796056   0.758353105242615   0.360887335878561 1
ion Zn   0.779653093950313   0.890398014670710   0.632658496498970 1
ion Zn   0.885679087900314   0.775284468224713   0.874606481437825 1
ion O   0.112784060996938   0.888804239610161   0.426108725014277 1

# Forces in Lattice coordinates:
force Zn   0.000038459565336   0.000822386967401  -0.001393405773520 1
force Zn  -0.000106069015323   0.000665913013279  -0.004027219689064 1
force Zn   0.002120173088012  -0.003500243328533  -0.000659774836783 1
force Zn  -0.002000791912572   0.002712853307858   0.001928193595017 1
force Zn   0.000817462814474  -0.000862147520068   0.001208200524608 1
force Zn   0.001624264166552  -0.002088185695226   0.001616965679468 1
force Zn  -0.000076944607573  -0.000039338033092   0.000180325463213 1
force Zn  -0.001603405418775   0.002408021391393   0.001990401749833 1
force Zn  -0.001404639873102   0.000834927920813  -0.002269038240762 1
force Zn   0.001020437258518  -0.001962189433176   0.000935241941249 1
force Zn  -0.000334087180762  -0.000473590782170  -0.004717588489676 1
force Zn   0.002910263418413  -0.001578888662800   0.003466029827808 1
force Zn   0.001946361277734   0.000033164092597   0.000775812080390 1
force Zn  -0.002729389885492   0.001747468101757   0.000916187545990 1
force Zn  -0.000216001970946  -0.000404774507823  -0.000767086298477 1
force Zn  -0.000833697768330   0.000055427732616  -0.001361012403330 1
force Zn   0.000812243219934   0.000267292121004   0.002058745196470 1
force Zn  -0.000398253164325   0.000799067309535   0.000899288298132 1
force Zn  -0.000283230753144   0.000454844011790  -0.001402391680955 1
force Zn  -0.001895881073817   0.001066421192484  -0.000670014560490 1
force Zn   0.000785359037619  -0.000672812064856   0.002960472004576 1
force Zn   0.000511354750540  -0.000885010582998   0.000224657574148 1
force Zn  -0.003326665583036   0.001125988408971   0.000986344424327 1
force Zn   0.001065865613747   0.000266769745080  -0.000446696755640 1
force Zn   0.000753738886302  -0.000150568294720  -0.000437261523220 1
force Zn  -0.000484881176385  -0.001223006482494  -0.001176889612148 1
force Zn  -0.000201640844822   0.000954374254115  -0.002089084450768 1
force Zn  -0.000791671790108  -0.000170704890496  -0.003043949621381 1
force Zn  -0.000679141745252   0.000728794596037  -0.001456977500709 1
force Zn  -0.001248584792298   0.000571742838674  -0.000739988790439 1
force Zn   0.000836097492305   0.001376851391273   0.001312274735282 1
force Zn   0.000695996981237  -0.001180690739951  -0.002688759262551 1
force Zn  -0.001654804796200   0.000069375748788   0.001467684528443 1
force Zn   0.005060345458793  -0.001410350529991   0.001977432475433 1
force Zn   0.000042922229885   0.000095608476061  -0.001794445399147 1
force Zn  -0.000727206690729  -0.000347714036087   0.001279667853252 1
force O   0.000212594763169  -0.000286936677595   0.005914702244181 1

# Energy components:
   Eewald =    -4578.7720497882883137
       EH =     3284.2127682632039978
     Eloc =    -7265.4113286163219527
      Enl =      262.6252630897501490
      Exc =     -755.2021907275052399
 Exc_core =        0.0628957676416774
       KE =      734.1515666434804643
-------------------------------------
     Etot =    -8318.3330753680384078
       TS =        0.0729906259795253
-------------------------------------
        F =    -8318.4060659940187179

IonicMinimize: Iter:  17  F: -8318.406065994018718  |grad|_K:  1.007e-04  alpha:  1.000e+00  linmin: -1.409e-01  t[s]:  20651.97

#--- Lowdin population analysis ---
# oxidation-state Zn -0.007 +0.145 +0.001 -0.002 -0.007 -0.021 +0.003 +0.001 +0.054 +0.146 +0.139 -0.003 -0.007 +0.024 +0.002 +0.013 +0.050 -0.023 +0.034 +0.002 -0.008 -0.022 +0.003 +0.001 +0.003 +0.025 +0.018 +0.014 -0.007 +0.025 +0.003 +0.013 -0.008 +0.144 +0.002 -0.003
# oxidation-state O -0.599


-------- Electronic minimization -----------
Will mix electronic density at each iteration.
	FillingsUpdate:  mu: +0.552304095  nElectrons: 726.000000
	FillingsUpdate:  mu: +0.552306919  nElectrons: 726.000000
SCF: Cycle:  0   F: -8318.406064730515936   dF: +2.133e-06   |Residual|: 9.670e-04   |deigs|: 1.440e-07  t[s]:  20785.11
	FillingsUpdate:  mu: +0.552306673  nElectrons: 726.000000
SCF: Cycle:  1   F: -8318.406071917941517   dF: -7.187e-06   |Residual|: 5.656e-04   |deigs|: 3.429e-05  t[s]:  20865.12
	FillingsUpdate:  mu: +0.552305977  nElectrons: 726.000000
SCF: Cycle:  2   F: -8318.406072572082849   dF: -6.541e-07   |Residual|: 2.599e-04   |deigs|: 8.483e-06  t[s]:  20945.02
	FillingsUpdate:  mu: +0.552305678  nElectrons: 726.000000
SCF: Cycle:  3   F: -8318.406072780995601   dF: -2.089e-07   |Residual|: 7.009e-05   |deigs|: 9.020e-06  t[s]:  21025.29
	FillingsUpdate:  mu: +0.552305715  nElectrons: 726.000000
SCF: Cycle:  4   F: -8318.406072783063792   dF: -2.068e-09   |Residual|: 4.762e-05   |deigs|: 1.555e-06  t[s]:  21105.49
	FillingsUpdate:  mu: +0.552305617  nElectrons: 726.000000
SCF: Cycle:  5   F: -8318.406072784289790   dF: -1.226e-09   |Residual|: 9.036e-06   |deigs|: 7.197e-07  t[s]:  21185.84
SCF: Converged (|Delta E|<1.000000e-08 for 2 iters).

Setting wave functions to eigenvectors of Hamiltonian

# Ionic positions in lattice coordinates:
ion Zn   0.111010153701981   0.221982080000282   0.126327433590202 1
ion Zn   0.244527051487577   0.152026695592514   0.362921354622685 1
ion Zn   0.112137471480449   0.223306346195465   0.632615139678490 1
ion Zn   0.227389049896860   0.116678885945309   0.875039529021049 1
ion Zn   0.110777406946496   0.553323323589049   0.125094645622824 1
ion Zn   0.221360269343676   0.443827851043880   0.386654741565367 1
ion Zn   0.112265396715662   0.554489690253926   0.632004274959106 1
ion Zn   0.223857896674130   0.444083678948157   0.881893782570673 1
ion Zn   0.113173155178340   0.888832261739964   0.108778423995522 1
ion Zn   0.244611339538584   0.758784637186159   0.359764492162795 1
ion Zn   0.113287767994156   0.889392232130527   0.645946556415697 1
ion Zn   0.226900415514573   0.775179408229936   0.874110286167672 1
ion Zn   0.448170316287656   0.221903357109558   0.126187584817397 1
ion Zn   0.561621018197927   0.113589933995549   0.382020495777643 1
ion Zn   0.448449685948675   0.223213642382700   0.632303194221914 1
ion Zn   0.558602430517291   0.111812469712707   0.881612627592429 1
ion Zn   0.446536494112615   0.555734035921546   0.130841581812726 1
ion Zn   0.559576739818581   0.443269776273837   0.386697478718444 1
ion Zn   0.446746277961334   0.555787823528480   0.637017898235971 1
ion Zn   0.558062302655391   0.444358856698801   0.882312473233465 1
ion Zn   0.448930762596675   0.891564820533399   0.124703494419715 1
ion Zn   0.559050978925152   0.781398040074743   0.387263463755725 1
ion Zn   0.448308521034104   0.890395286249466   0.632077311042917 1
ion Zn   0.557945399737736   0.778438472206607   0.881899767062826 1
ion Zn   0.779834058296663   0.222489221629227   0.130141385305749 1
ion Zn   0.889226177583129   0.113616426035478   0.382227811553538 1
ion Zn   0.779999573765212   0.222502286040159   0.636126122556187 1
ion Zn   0.890982698242777   0.111894895889700   0.881991623522427 1
ion Zn   0.779932364736049   0.553403761645345   0.125859493058796 1
ion Zn   0.889272138900834   0.441443197845614   0.382335760186572 1
ion Zn   0.779264029121588   0.554036473886896   0.632088304251297 1
ion Zn   0.890781038829509   0.444126241567703   0.881797856221626 1
ion Zn   0.780185562007361   0.891610019583508   0.125375049240381 1
ion Zn   0.850565662218465   0.758410747029347   0.360943678800039 1
ion Zn   0.779612003566128   0.890467296769152   0.632563602278265 1
ion Zn   0.885598579575715   0.775197729224416   0.874676448921652 1
ion O   0.112877810890948   0.888768097310894   0.426254833040218 1

# Forces in Lattice coordinates:
force Zn  -0.000231963398195   0.000806202619684  -0.001547067780822 1
force Zn   0.000243627770931  -0.002447144543240  -0.003323190839787 1
force Zn   0.001162996317134  -0.002117015453469  -0.000201776201200 1
force Zn  -0.001435235886797   0.001144559235301   0.000089230456495 1
force Zn   0.000747129242139  -0.000339152816442   0.000563600079751 1
force Zn   0.000592332620944  -0.000503973136053   0.001476100403173 1
force Zn  -0.000182895798576  -0.000059015650261   0.000795493930839 1
force Zn  -0.001127823307056   0.001802074113489   0.001414512222247 1
force Zn  -0.000340464387275   0.000311012766721  -0.001013990969703 1
force Zn   0.001333295845625  -0.002344670280301   0.000890607532035 1
force Zn   0.000149386651955  -0.000708310177937  -0.000436076604139 1
force Zn   0.001381379313289  -0.000353586473448   0.002095760869028 1
force Zn   0.000960253607776   0.000315926533330   0.000175211252718 1
force Zn  -0.001787785722853   0.000637644238208   0.000468522462277 1
force Zn   0.000103827671372  -0.000608862381462  -0.000303682728393 1
force Zn  -0.000810661357878   0.000060915695068  -0.000601447417000 1
force Zn   0.000160667816154   0.000716371665206   0.002153411696826 1
force Zn  -0.000763554061673   0.001489114287009   0.001112598521888 1
force Zn  -0.000671054672729   0.000900884168234  -0.000560230718998 1
force Zn  -0.001350408839316   0.001050752897870  -0.000381220134593 1
force Zn   0.000373126625293  -0.000666445911524   0.002308667085803 1
force Zn   0.001321640170379  -0.001346993008212  -0.000372909964537 1
force Zn  -0.001727455711517   0.000648674929951   0.001146712270282 1
force Zn   0.000011286520567   0.000571307909446   0.000373282559395 1
force Zn   0.000634084264359  -0.000314690332957  -0.001094024110615 1
force Zn  -0.000342508226008  -0.000725590268882  -0.001130257314253 1
force Zn  -0.000291551641582   0.000840851280156  -0.002028750664362 1
force Zn  -0.000455300301405  -0.000179388749053  -0.002509288668342 1
force Zn  -0.000107550962994   0.000430088998619  -0.000843770909684 1
force Zn  -0.000624108398555   0.000023526141998  -0.000489521166553 1
force Zn   0.000787099352766   0.000476698818047   0.000385463209516 1
force Zn   0.000366618161205  -0.000722710035304  -0.001548538374988 1
force Zn  -0.000686524489332  -0.000456821168583   0.001020349166865 1
force Zn   0.002577466649672  -0.000847563435449   0.000802902406143 1
force Zn   0.000263252440676  -0.000357375827934  -0.000881880519200 1
force Zn  -0.000047174941446   0.000070101199610   0.000342003646377 1
force O  -0.000014170480268   0.002792672277713   0.002353331865597 1

# Energy components:
   Eewald =    -4578.8106069497616772
       EH =     3284.1755701337738174
     Eloc =    -7265.3356445745630481
      Enl =      262.6253195459012204
      Exc =     -755.2021525151382093
 Exc_core =        0.0628957404358531
       KE =      734.1515395007834286
-------------------------------------
     Etot =    -8318.3330791185690032
       TS =        0.0729936657203838
-------------------------------------
        F =    -8318.4060727842897904

IonicMinimize: Iter:  18  F: -8318.406072784289790  |grad|_K:  6.856e-05  alpha:  1.000e+00  linmin: -4.354e-01  t[s]:  21200.98
IonicMinimize: Converged (|grad|_K<1.000000e-04).

#--- Lowdin population analysis ---
# oxidation-state Zn -0.007 +0.145 +0.001 -0.002 -0.007 -0.021 +0.003 +0.001 +0.054 +0.145 +0.139 -0.003 -0.007 +0.024 +0.002 +0.014 +0.050 -0.022 +0.034 +0.002 -0.008 -0.021 +0.003 +0.001 +0.002 +0.025 +0.018 +0.014 -0.007 +0.025 +0.003 +0.013 -0.008 +0.144 +0.002 -0.003
# oxidation-state O -0.599


Dumping '/data/rc652/Zn/tet/Zn_tet.Ecomponents' ... done
End date and time: Mon Jul 15 18:41:01 2024  (Duration: 0-5:53:32.50)
Done!
