--------------------------------------------------------------------------
[[15471,1],7]: A high-performance Open MPI point-to-point messaging module
was unable to find any relevant network interfaces:

Module: OpenFabrics (openib)
  Host: node3222

Another transport will be used instead, although this may result in
lower performance.
--------------------------------------------------------------------------

*************** JDFTx 1.7.0 (git hash 3664913) ***************

Start date and time: Wed Jul  3 02:44:37 2024
Executable jdftx with command-line: -i Bi2O3_vac.in
Running on hosts (process indices):  node3222.physics.cornell.edu (0-15)
Divided in process groups (process indices):  0 (0)  1 (1)  2 (2)  3 (3)  4 (4)  5 (5)  6 (6)  7 (7)  8 (8)  9 (9)  10 (10)  11 (11)  12 (12)  13 (13)  14 (14)  15 (15)
Resource initialization completed at t[s]:      0.00
Run totals: 16 processes, 32 threads, 0 GPUs


Input parsed successfully to the following command list (including defaults):

basis kpoint-dependent
coords-type Lattice
core-overlap-check vector
coulomb-interaction Periodic
davidson-band-ratio 1.1
dump End Ecomponents
dump-name /data/rc652/Bi2O3/vac/Bi2O3_vac.$VAR
elec-cutoff 20 100
elec-eigen-algo Davidson
elec-ex-corr gga-PBEsol
elec-smearing Fermi 0.01
electronic-minimize  \
	dirUpdateScheme      FletcherReeves \
	linminMethod         DirUpdateRecommended \
	nIterations          100 \
	history              15 \
	knormThreshold       0 \
	maxThreshold         no \
	energyDiffThreshold  1e-08 \
	nEnergyDiff          2 \
	alphaTstart          1 \
	alphaTmin            1e-10 \
	updateTestStepSize   yes \
	alphaTreduceFactor   0.1 \
	alphaTincreaseFactor 3 \
	nAlphaAdjustMax      3 \
	wolfeEnergy          0.0001 \
	wolfeGradient        0.9 \
	fdTest               no
electronic-scf  \
	nIterations	50 \
	energyDiffThreshold	1e-08 \
	residualThreshold	1e-07 \
	mixFraction	0.5 \
	qMetric	0.8 \
	history	10 \
	nEigSteps	2 \
	eigDiffThreshold	1e-08 \
	mixedVariable	Density \
	qKerker	0.8 \
	qKappa	-1 \
	verbose	no \
	mixFractionMag	1.5
exchange-regularization WignerSeitzTruncated
fluid None
fluid-ex-corr lda-TF lda-PZ
fluid-gummel-loop 10 1.000000e-05
fluid-minimize  \
	dirUpdateScheme      PolakRibiere \
	linminMethod         DirUpdateRecommended \
	nIterations          100 \
	history              15 \
	knormThreshold       0 \
	maxThreshold         no \
	energyDiffThreshold  0 \
	nEnergyDiff          2 \
	alphaTstart          1 \
	alphaTmin            1e-10 \
	updateTestStepSize   yes \
	alphaTreduceFactor   0.1 \
	alphaTincreaseFactor 3 \
	nAlphaAdjustMax      3 \
	wolfeEnergy          0.0001 \
	wolfeGradient        0.9 \
	fdTest               no
fluid-solvent H2O 55.338 ScalarEOS \
	epsBulk 78.4 \
	pMol 0.92466 \
	epsInf 1.77 \
	Pvap 1.06736e-10 \
	sigmaBulk 4.62e-05 \
	Rvdw 2.61727 \
	Res 1.42 \
	tauNuc 343133 \
	poleEl 15 7 1
forces-output-coords Positions
ion Bi   0.230330000000000   0.059820000000000   0.340990000000000 1
ion Bi   0.023310000000000   0.141240000000000   0.529940000000000 1
ion Bi   0.270740000000000   0.159290000000000   0.805590000000000 1
ion Bi   0.463370000000000   0.122730000000000   0.043440000000000 1
ion Bi   0.206520000000000   0.327620000000000   0.182940000000000 1
ion Bi   0.274300000000000   0.425930000000000   0.679310000000000 1
ion Bi   0.490630000000000   0.359400000000000   0.466910000000000 1
ion Bi   0.011390000000000   0.383310000000000   0.998410000000000 1
ion Bi   0.228610000000000   0.561090000000000   0.308520000000000 1
ion Bi   0.015400000000000   0.642170000000000   0.552930000000000 1
ion Bi   0.248260000000000   0.672930000000000   0.801590000000000 1
ion Bi   0.490740000000000   0.602230000000000   0.048310000000000 1
ion Bi   0.246450000000000   0.832450000000000   0.173940000000000 1
ion Bi   0.268590000000000   0.930130000000000   0.713300000000000 1
ion Bi   0.476100000000000   0.853500000000000   0.448440000000000 1
ion Bi   0.024960000000000   0.893140000000000   0.972390000000000 1
ion Bi   0.739520000000000   0.056380000000000   0.302940000000000 1
ion Bi   0.539240000000000   0.129800000000000   0.532730000000000 1
ion Bi   0.765490000000000   0.210850000000000   0.827960000000000 1
ion Bi   0.990700000000000   0.100110000000000   0.040280000000000 1
ion Bi   0.740350000000000   0.323470000000000   0.179140000000000 1
ion Bi   0.754890000000000   0.422440000000000   0.691030000000000 1
ion Bi   0.982680000000000   0.368840000000000   0.463520000000000 1
ion Bi   0.536500000000000   0.391470000000000   0.965640000000000 1
ion Bi   0.751010000000000   0.557540000000000   0.309650000000000 1
ion Bi   0.496000000000000   0.646870000000000   0.544500000000000 1
ion Bi   0.763800000000000   0.685140000000000   0.818580000000000 1
ion Bi   0.973080000000000   0.608670000000000   0.052350000000000 1
ion Bi   0.746770000000000   0.816350000000000   0.167330000000000 1
ion Bi   0.733220000000000   0.928760000000000   0.689670000000000 1
ion Bi   0.987700000000000   0.869380000000000   0.443700000000000 1
ion Bi   0.529930000000000   0.872860000000000   0.955880000000000 1
ion O   0.390110000000000   0.099270000000000   0.756020000000000 1
ion O   0.349420000000000   0.224380000000000   0.081960000000000 1
ion O   0.337210000000000   0.447950000000000   0.980850000000000 1
ion O   0.383760000000000   0.479980000000000   0.426220000000000 1
ion O   0.108810000000000   0.166340000000000   0.250490000000000 1
ion O   0.148920000000000   0.265110000000000   0.915140000000000 1
ion O   0.337750000000000   0.189370000000000   0.525780000000000 1
ion O   0.111320000000000   0.406480000000000   0.214010000000000 1
ion O   0.142790000000000   0.303640000000000   0.466210000000000 1
ion O   0.396590000000000   0.355500000000000   0.721200000000000 1
ion O   0.169240000000000   0.060590000000000   0.026340000000000 1
ion O   0.142380000000000   0.015760000000000   0.576690000000000 1
ion O   0.378220000000000   0.594020000000000   0.786070000000000 1
ion O   0.370780000000000   0.727800000000000   0.077770000000000 1
ion O   0.339010000000000   0.945140000000000   0.968610000000000 1
ion O   0.356680000000000   0.957870000000000   0.421160000000000 1
ion O   0.111060000000000   0.655450000000000   0.279290000000000 1
ion O   0.131120000000000   0.773340000000000   0.906040000000000 1
ion O   0.344950000000000   0.705250000000000   0.515830000000000 1
ion O   0.163230000000000   0.819470000000000   0.469890000000000 1
ion O   0.384800000000000   0.843020000000000   0.718710000000000 1
ion O   0.161050000000000   0.558330000000000   0.029070000000000 1
ion O   0.128940000000000   0.522010000000000   0.590190000000000 1
ion O   0.891710000000000   0.082580000000000   0.782480000000000 1
ion O   0.885650000000000   0.226690000000000   0.105410000000000 1
ion O   0.837550000000000   0.443880000000000   0.962770000000000 1
ion O   0.873580000000000   0.480780000000000   0.426470000000000 1
ion O   0.611530000000000   0.153780000000000   0.278790000000000 1
ion O   0.619930000000000   0.284160000000000   0.902740000000000 1
ion O   0.834100000000000   0.179060000000000   0.528110000000000 1
ion O   0.605470000000000   0.399240000000000   0.222520000000000 1
ion O   0.660500000000000   0.299800000000000   0.474830000000000 1
ion O   0.891140000000000   0.331760000000000   0.716230000000000 1
ion O   0.642980000000000   0.043010000000000   0.028090000000000 1
ion O   0.648160000000000   0.014830000000000   0.581060000000000 1
ion O   0.877940000000000   0.594500000000000   0.789220000000000 1
ion O   0.881810000000000   0.752850000000000   0.091390000000000 1
ion O   0.839640000000000   0.936420000000000   0.998570000000000 1
ion O   0.889600000000000   0.969710000000000   0.418340000000000 1
ion O   0.608250000000000   0.663490000000000   0.278090000000000 1
ion O   0.627420000000000   0.776450000000000   0.910380000000000 1
ion O   0.838740000000000   0.695800000000000   0.540430000000000 1
ion O   0.609020000000000   0.899000000000000   0.225360000000000 1
ion O   0.654870000000000   0.800130000000000   0.460940000000000 1
ion O   0.885800000000000   0.859210000000000   0.726050000000000 1
ion O   0.655660000000000   0.551210000000000   0.017580000000000 1
ion O   0.638610000000000   0.528450000000000   0.598410000000000 1
ion-species GBRV/$ID_pbesol.uspp
ion-width 0
ionic-minimize  \
	dirUpdateScheme      L-BFGS \
	linminMethod         DirUpdateRecommended \
	nIterations          30 \
	history              15 \
	knormThreshold       0.0001 \
	maxThreshold         no \
	energyDiffThreshold  1e-06 \
	nEnergyDiff          2 \
	alphaTstart          1 \
	alphaTmin            1e-10 \
	updateTestStepSize   yes \
	alphaTreduceFactor   0.1 \
	alphaTincreaseFactor 3 \
	nAlphaAdjustMax      3 \
	wolfeEnergy          0.0001 \
	wolfeGradient        0.9 \
	fdTest               no
kpoint   0.500000000000   0.500000000000   0.500000000000  1.00000000000000
kpoint-folding 3 3 4 
latt-move-scale 1 1 1
latt-scale 1 1 1 
lattice  \
	  22.078756736136054  -10.797991864405642   -0.000000000000000  \
	   0.198108228965560   25.717610123310134   -0.000000000000000  \
	  -0.000000000000000   -0.000000000000000   15.143990300894858 
lattice-minimize  \
	dirUpdateScheme      L-BFGS \
	linminMethod         DirUpdateRecommended \
	nIterations          0 \
	history              15 \
	knormThreshold       0 \
	maxThreshold         no \
	energyDiffThreshold  1e-06 \
	nEnergyDiff          2 \
	alphaTstart          1 \
	alphaTmin            1e-10 \
	updateTestStepSize   yes \
	alphaTreduceFactor   0.1 \
	alphaTincreaseFactor 3 \
	nAlphaAdjustMax      3 \
	wolfeEnergy          0.0001 \
	wolfeGradient        0.9 \
	fdTest               no
lcao-params -1 1e-06 0.01
pcm-variant GLSSA13
perturb-minimize  \
	nIterations            0 \
	algorithm              MINRES \
	residualTol            0.0001 \
	residualDiffThreshold  0.0001 \
	CGBypass               no \
	recomputeResidual      no
spintype no-spin
subspace-rotation-factor 1 yes
symmetries automatic
symmetry-threshold 0.0001



---------- Setting up symmetries ----------

Found 4 point-group symmetries of the bravais lattice
Found 1 space-group symmetries with basis
Applied RMS atom displacement 0 bohrs to make symmetries exact.

---------- Initializing the Grid ----------
R = 
[      22.0788      -10.798            0  ]
[     0.198108      25.7176            0  ]
[            0            0       15.144  ]
unit cell volume = 8631.35
G =
[   0.283512   0.119038          0  ]
[ -0.00218396   0.243398          0  ]
[          0          0   0.414896  ]
Minimum fftbox size, Smin = [  100  128  72  ]
Chosen fftbox size, S = [  100  128  72  ]

---------- Initializing tighter grid for wavefunction operations ----------
R = 
[      22.0788      -10.798            0  ]
[     0.198108      25.7176            0  ]
[            0            0       15.144  ]
unit cell volume = 8631.35
G =
[   0.283512   0.119038          0  ]
[ -0.00218396   0.243398          0  ]
[          0          0   0.414896  ]
Minimum fftbox size, Smin = [  92  116  64  ]
Chosen fftbox size, S = [  96  120  64  ]

---------- Exchange Correlation functional ----------
Initalized PBEsol GGA exchange.
Initalized PBEsol GGA correlation.

---------- Setting up pseudopotentials ----------
Width of ionic core gaussian charges (only for fluid interactions / plotting) set to 0

Reading pseudopotential file '/home/rc652/build/pseudopotentials/GBRV/bi_pbesol.uspp':
  Title: Bi.  Created by USPP 7.3.6 on 16-12-2017
  Reference state energy: -92.043361.  15 valence electrons in orbitals:
    |520>  occupation: 10  eigenvalue: -1.293232
    |600>  occupation: 2  eigenvalue: -0.815623
    |610>  occupation: 2  eigenvalue: -0.421990
  lMax: 2  lLocal: 3  QijEcut: 5
  6 projectors sampled on a log grid with 747 points:
    l: 0  eig: -0.815622  rCut: 2.5
    l: 0  eig: 0.500000  rCut: 2.5
    l: 1  eig: -0.421989  rCut: 2.5
    l: 1  eig: 1.000000  rCut: 2.5
    l: 2  eig: -1.293232  rCut: 2.3
    l: 2  eig: -0.500000  rCut: 2.3
  Partial core density with radius 1
  Transforming core density to a uniform radial grid of dG=0.02 with 1492 points.
  Transforming local potential to a uniform radial grid of dG=0.02 with 1492 points.
  Transforming nonlocal projectors to a uniform radial grid of dG=0.02 with 432 points.
  Transforming density augmentations to a uniform radial grid of dG=0.02 with 1492 points.
  Transforming atomic orbitals to a uniform radial grid of dG=0.02 with 432 points.
  Core radius for overlap checks: 2.50 bohrs.

Reading pseudopotential file '/home/rc652/build/pseudopotentials/GBRV/o_pbesol.uspp':
  Title: O.  Created by USPP 7.3.6 on 3-2-2014
  Reference state energy: -15.849885.  6 valence electrons in orbitals:
    |200>  occupation: 2  eigenvalue: -0.873214
    |210>  occupation: 4  eigenvalue: -0.330058
  lMax: 2  lLocal: 2  QijEcut: 6
  5 projectors sampled on a log grid with 511 points:
    l: 0  eig: -0.873214  rCut: 1.25
    l: 0  eig: 0.000000  rCut: 1.25
    l: 1  eig: -0.330058  rCut: 1.25
    l: 1  eig: 0.000000  rCut: 1.25
    l: 2  eig: 1.000000  rCut: 1.25
  Partial core density with radius 0.7
  Transforming core density to a uniform radial grid of dG=0.02 with 1492 points.
  Transforming local potential to a uniform radial grid of dG=0.02 with 1492 points.
  Transforming nonlocal projectors to a uniform radial grid of dG=0.02 with 432 points.
  Transforming density augmentations to a uniform radial grid of dG=0.02 with 1492 points.
  Transforming atomic orbitals to a uniform radial grid of dG=0.02 with 432 points.
  Core radius for overlap checks: 1.25 bohrs.

Initialized 2 species with 79 total atoms.

Folded 1 k-points by 3x3x4 to 36 k-points.

---------- Setting up k-points, bands, fillings ----------
Adding inversion symmetry to k-mesh for non-inversion-symmetric unit cell.
Reduced to 18 k-points under symmetry. 
Computing the number of bands and number of electrons
Calculating initial fillings.
nElectrons: 762.000000   nBands: 476   nStates: 18

----- Setting up reduced wavefunction bases (one per k-point) -----
average nbasis = 36878.222 , ideal nbasis = 36873.776

---------- Setting up ewald sum ----------
Optimum gaussian width for ewald sums = 3.950618 bohr.
Real space sum over 441 unit cells with max indices [  3  3  4  ]
Reciprocal space sum over 7875 terms with max indices [  10  12  7  ]

---------- Allocating electronic variables ----------
Initializing wave functions:  linear combination of atomic orbitals
Bi pseudo-atom occupations:   s ( 2 )  p ( 3 )  d ( 10 )
O pseudo-atom occupations:   s ( 2 )  p ( 4 )
	FillingsUpdate:  mu: +0.737246641  nElectrons: 762.000000
LCAOMinimize: Iter:   0  F: -3037.4385708448653531  |grad|_K:  3.555e-03  alpha:  1.000e+00
	FillingsUpdate:  mu: +0.640705179  nElectrons: 762.000000
LCAOMinimize: Iter:   1  F: -3044.9047614990195143  |grad|_K:  2.835e-03  alpha:  1.405e-01  linmin: -4.130e-01  cgtest:  7.889e-01  t[s]:    289.81
LCAOMinimize: 	Predicted alpha/alphaT>3.000000, increasing alphaT to 4.214050e-01.
	FillingsUpdate:  mu: +0.521388177  nElectrons: 762.000000
LCAOMinimize: Iter:   2  F: -3049.6534154029886849  |grad|_K:  1.500e-03  alpha:  1.761e-01  linmin: -2.960e-01  cgtest:  6.562e-01  t[s]:    404.80
LCAOMinimize: Encountered beta<0, resetting CG.
	FillingsUpdate:  mu: +0.485410515  nElectrons: 762.000000
LCAOMinimize: Iter:   3  F: -3050.5534891531883659  |grad|_K:  1.134e-03  alpha:  1.999e-01  linmin:  5.159e-02  cgtest: -1.687e-01  t[s]:    495.92
	FillingsUpdate:  mu: +0.454627669  nElectrons: 762.000000
LCAOMinimize: Iter:   4  F: -3050.7920382270363007  |grad|_K:  5.774e-04  alpha:  9.102e-02  linmin: -4.623e-02  cgtest:  6.699e-01  t[s]:    588.27
LCAOMinimize: Encountered beta<0, resetting CG.
	FillingsUpdate:  mu: +0.440415657  nElectrons: 762.000000
LCAOMinimize: Iter:   5  F: -3050.8480941638913464  |grad|_K:  1.484e-04  alpha:  8.163e-02  linmin:  3.225e-02  cgtest: -4.855e-02  t[s]:    683.86
	FillingsUpdate:  mu: +0.442370560  nElectrons: 762.000000
LCAOMinimize: Iter:   6  F: -3050.8558854354073446  |grad|_K:  1.082e-04  alpha:  1.756e-01  linmin: -5.131e-03  cgtest:  3.526e-02  t[s]:    779.01
	FillingsUpdate:  mu: +0.442923085  nElectrons: 762.000000
LCAOMinimize: Iter:   7  F: -3050.8591622454159733  |grad|_K:  6.354e-05  alpha:  1.356e-01  linmin: -1.134e-03  cgtest: -4.118e-02  t[s]:    872.16
	FillingsUpdate:  mu: +0.443134497  nElectrons: 762.000000
LCAOMinimize: Iter:   8  F: -3050.8603282244221191  |grad|_K:  4.564e-05  alpha:  1.406e-01  linmin:  5.548e-04  cgtest:  2.564e-04  t[s]:    966.49
	FillingsUpdate:  mu: +0.442083642  nElectrons: 762.000000
LCAOMinimize: Iter:   9  F: -3050.8609824236123131  |grad|_K:  3.029e-05  alpha:  1.537e-01  linmin:  1.726e-03  cgtest:  5.820e-03  t[s]:   1062.71
	FillingsUpdate:  mu: +0.441996265  nElectrons: 762.000000
LCAOMinimize: Iter:  10  F: -3050.8611862087377631  |grad|_K:  1.417e-05  alpha:  1.088e-01  linmin:  1.984e-04  cgtest:  1.354e-02  t[s]:   1156.27
	FillingsUpdate:  mu: +0.442039570  nElectrons: 762.000000
LCAOMinimize: Iter:  11  F: -3050.8612557470869433  |grad|_K:  8.896e-06  alpha:  1.692e-01  linmin:  4.349e-04  cgtest: -2.242e-03  t[s]:   1249.48
	FillingsUpdate:  mu: +0.442094477  nElectrons: 762.000000
LCAOMinimize: Iter:  12  F: -3050.8612806943970099  |grad|_K:  5.683e-06  alpha:  1.541e-01  linmin: -5.585e-06  cgtest:  2.203e-03  t[s]:   1341.51
	FillingsUpdate:  mu: +0.442140689  nElectrons: 762.000000
LCAOMinimize: Iter:  13  F: -3050.8612882591005473  |grad|_K:  3.362e-06  alpha:  1.144e-01  linmin:  1.627e-05  cgtest: -4.623e-04  t[s]:   1434.13
	FillingsUpdate:  mu: +0.442154664  nElectrons: 762.000000
LCAOMinimize: Iter:  14  F: -3050.8612911943541803  |grad|_K:  1.939e-06  alpha:  1.268e-01  linmin: -1.152e-05  cgtest: -2.833e-05  t[s]:   1530.29
	FillingsUpdate:  mu: +0.442151858  nElectrons: 762.000000
LCAOMinimize: Iter:  15  F: -3050.8612921475505573  |grad|_K:  9.706e-07  alpha:  1.237e-01  linmin:  5.341e-05  cgtest: -5.212e-04  t[s]:   1627.64
	FillingsUpdate:  mu: +0.442146522  nElectrons: 762.000000
LCAOMinimize: Iter:  16  F: -3050.8612925973216079  |grad|_K:  7.614e-07  alpha:  2.333e-01  linmin:  8.547e-05  cgtest: -2.667e-04  t[s]:   1721.18
LCAOMinimize: Converged (|Delta F|<1.000000e-06 for 2 iters).


---- Citations for features of the code used in this run ----

   Software package:
      R. Sundararaman, K. Letchworth-Weaver, K.A. Schwarz, D. Gunceler, Y. Ozhabes and T.A. Arias, 'JDFTx: software for joint density-functional theory', SoftwareX 6, 278 (2017)

   gga-PBEsol exchange-correlation functional:
      J.P. Perdew et al., Phys. Rev. Lett. 100, 136406 (2008)

   Pseudopotentials:
      KF Garrity, JW Bennett, KM Rabe and D Vanderbilt, Comput. Mater. Sci. 81, 446 (2014)

This list may not be complete. Please suggest additional citations or
report any other bugs at https://github.com/shankar1729/jdftx/issues

Initialization completed successfully at t[s]:   1772.47


-------- Electronic minimization -----------
Will mix electronic density at each iteration.
	FillingsUpdate:  mu: +0.442146522  nElectrons: 762.000000
	FillingsUpdate:  mu: +0.425194840  nElectrons: 762.000000
SCF: Cycle:  0   F: -3052.301434335718568   dF: -1.440e+00   |Residual|: 1.441e+00   |deigs|: 1.261e-02  t[s]:   2208.84
	FillingsUpdate:  mu: +0.389346811  nElectrons: 762.000000
SCF: Cycle:  1   F: -3053.286181213510190   dF: -9.847e-01   |Residual|: 6.057e-01   |deigs|: 3.226e-02  t[s]:   2594.52
	FillingsUpdate:  mu: +0.400777097  nElectrons: 762.000000
SCF: Cycle:  2   F: -3054.072040489825213   dF: -7.859e-01   |Residual|: 2.701e-01   |deigs|: 1.513e-02  t[s]:   2979.13
	FillingsUpdate:  mu: +0.397194565  nElectrons: 762.000000
SCF: Cycle:  3   F: -3054.103605159351446   dF: -3.156e-02   |Residual|: 1.577e-01   |deigs|: 3.831e-03  t[s]:   3367.72
	FillingsUpdate:  mu: +0.396475973  nElectrons: 762.000000
SCF: Cycle:  4   F: -3054.139094937431764   dF: -3.549e-02   |Residual|: 5.401e-02   |deigs|: 2.719e-03  t[s]:   3754.52
	FillingsUpdate:  mu: +0.396222079  nElectrons: 762.000000
SCF: Cycle:  5   F: -3054.142073958590572   dF: -2.979e-03   |Residual|: 3.145e-02   |deigs|: 4.852e-04  t[s]:   4096.00
	FillingsUpdate:  mu: +0.396208036  nElectrons: 762.000000
SCF: Cycle:  6   F: -3054.143384402488664   dF: -1.310e-03   |Residual|: 1.730e-02   |deigs|: 2.815e-04  t[s]:   4439.19
	FillingsUpdate:  mu: +0.396179702  nElectrons: 762.000000
SCF: Cycle:  7   F: -3054.143920002515642   dF: -5.356e-04   |Residual|: 5.358e-03   |deigs|: 1.119e-04  t[s]:   4667.10
	FillingsUpdate:  mu: +0.396148607  nElectrons: 762.000000
SCF: Cycle:  8   F: -3054.143965822454902   dF: -4.582e-05   |Residual|: 2.513e-03   |deigs|: 7.825e-05  t[s]:   4892.08
	FillingsUpdate:  mu: +0.396130311  nElectrons: 762.000000
SCF: Cycle:  9   F: -3054.143972933116402   dF: -7.111e-06   |Residual|: 1.537e-03   |deigs|: 5.910e-05  t[s]:   5121.72
	FillingsUpdate:  mu: +0.396125042  nElectrons: 762.000000
SCF: Cycle: 10   F: -3054.143976415660745   dF: -3.483e-06   |Residual|: 7.350e-04   |deigs|: 1.359e-05  t[s]:   5351.14
	FillingsUpdate:  mu: +0.396128231  nElectrons: 762.000000
SCF: Cycle: 11   F: -3054.143977261146574   dF: -8.455e-07   |Residual|: 3.194e-04   |deigs|: 4.756e-06  t[s]:   5575.32
	FillingsUpdate:  mu: +0.396127466  nElectrons: 762.000000
SCF: Cycle: 12   F: -3054.143977528930463   dF: -2.678e-07   |Residual|: 1.755e-04   |deigs|: 1.647e-06  t[s]:   5803.49
	FillingsUpdate:  mu: +0.396126758  nElectrons: 762.000000
SCF: Cycle: 13   F: -3054.143977659926350   dF: -1.310e-07   |Residual|: 9.667e-05   |deigs|: 1.145e-06  t[s]:   6029.47
	FillingsUpdate:  mu: +0.396127059  nElectrons: 762.000000
SCF: Cycle: 14   F: -3054.143977724412707   dF: -6.449e-08   |Residual|: 7.619e-05   |deigs|: 7.285e-07  t[s]:   6258.45
	FillingsUpdate:  mu: +0.396126416  nElectrons: 762.000000
SCF: Cycle: 15   F: -3054.143977770611855   dF: -4.620e-08   |Residual|: 4.104e-05   |deigs|: 4.952e-07  t[s]:   6481.71
	FillingsUpdate:  mu: +0.396126559  nElectrons: 762.000000
SCF: Cycle: 16   F: -3054.143977799172717   dF: -2.856e-08   |Residual|: 2.820e-05   |deigs|: 2.775e-07  t[s]:   6694.48
	FillingsUpdate:  mu: +0.396126507  nElectrons: 762.000000
SCF: Cycle: 17   F: -3054.143977817661835   dF: -1.849e-08   |Residual|: 2.746e-05   |deigs|: 1.486e-07  t[s]:   6912.47
	FillingsUpdate:  mu: +0.396126500  nElectrons: 762.000000
SCF: Cycle: 18   F: -3054.143977827141953   dF: -9.480e-09   |Residual|: 2.622e-05   |deigs|: 6.238e-08  t[s]:   7122.89
	FillingsUpdate:  mu: +0.396126480  nElectrons: 762.000000
SCF: Cycle: 19   F: -3054.143977831929078   dF: -4.787e-09   |Residual|: 1.675e-05   |deigs|: 8.728e-08  t[s]:   7325.53
SCF: Converged (|Delta E|<1.000000e-08 for 2 iters).

Setting wave functions to eigenvectors of Hamiltonian

# Ionic positions in lattice coordinates:
ion Bi   0.230330000000000   0.059820000000000   0.340990000000000 1
ion Bi   0.023310000000000   0.141240000000000   0.529940000000000 1
ion Bi   0.270740000000000   0.159290000000000   0.805590000000000 1
ion Bi   0.463370000000000   0.122730000000000   0.043440000000000 1
ion Bi   0.206520000000000   0.327620000000000   0.182940000000000 1
ion Bi   0.274300000000000   0.425930000000000   0.679310000000000 1
ion Bi   0.490630000000000   0.359400000000000   0.466910000000000 1
ion Bi   0.011390000000000   0.383310000000000   0.998410000000000 1
ion Bi   0.228610000000000   0.561090000000000   0.308520000000000 1
ion Bi   0.015400000000000   0.642170000000000   0.552930000000000 1
ion Bi   0.248260000000000   0.672930000000000   0.801590000000000 1
ion Bi   0.490740000000000   0.602230000000000   0.048310000000000 1
ion Bi   0.246450000000000   0.832450000000000   0.173940000000000 1
ion Bi   0.268590000000000   0.930130000000000   0.713300000000000 1
ion Bi   0.476100000000000   0.853500000000000   0.448440000000000 1
ion Bi   0.024960000000000   0.893140000000000   0.972390000000000 1
ion Bi   0.739520000000000   0.056380000000000   0.302940000000000 1
ion Bi   0.539240000000000   0.129800000000000   0.532730000000000 1
ion Bi   0.765490000000000   0.210850000000000   0.827960000000000 1
ion Bi   0.990700000000000   0.100110000000000   0.040280000000000 1
ion Bi   0.740350000000000   0.323470000000000   0.179140000000000 1
ion Bi   0.754890000000000   0.422440000000000   0.691030000000000 1
ion Bi   0.982680000000000   0.368840000000000   0.463520000000000 1
ion Bi   0.536500000000000   0.391470000000000   0.965640000000000 1
ion Bi   0.751010000000000   0.557540000000000   0.309650000000000 1
ion Bi   0.496000000000000   0.646870000000000   0.544500000000000 1
ion Bi   0.763800000000000   0.685140000000000   0.818580000000000 1
ion Bi   0.973080000000000   0.608670000000000   0.052350000000000 1
ion Bi   0.746770000000000   0.816350000000000   0.167330000000000 1
ion Bi   0.733220000000000   0.928760000000000   0.689670000000000 1
ion Bi   0.987700000000000   0.869380000000000   0.443700000000000 1
ion Bi   0.529930000000000   0.872860000000000   0.955880000000000 1
ion O   0.390110000000000   0.099270000000000   0.756020000000000 1
ion O   0.349420000000000   0.224380000000000   0.081960000000000 1
ion O   0.337210000000000   0.447950000000000   0.980850000000000 1
ion O   0.383760000000000   0.479980000000000   0.426220000000000 1
ion O   0.108810000000000   0.166340000000000   0.250490000000000 1
ion O   0.148920000000000   0.265110000000000   0.915140000000000 1
ion O   0.337750000000000   0.189370000000000   0.525780000000000 1
ion O   0.111320000000000   0.406480000000000   0.214010000000000 1
ion O   0.142790000000000   0.303640000000000   0.466210000000000 1
ion O   0.396590000000000   0.355500000000000   0.721200000000000 1
ion O   0.169240000000000   0.060590000000000   0.026340000000000 1
ion O   0.142380000000000   0.015760000000000   0.576690000000000 1
ion O   0.378220000000000   0.594020000000000   0.786070000000000 1
ion O   0.370780000000000   0.727800000000000   0.077770000000000 1
ion O   0.339010000000000   0.945140000000000   0.968610000000000 1
ion O   0.356680000000000   0.957870000000000   0.421160000000000 1
ion O   0.111060000000000   0.655450000000000   0.279290000000000 1
ion O   0.131120000000000   0.773340000000000   0.906040000000000 1
ion O   0.344950000000000   0.705250000000000   0.515830000000000 1
ion O   0.163230000000000   0.819470000000000   0.469890000000000 1
ion O   0.384800000000000   0.843020000000000   0.718710000000000 1
ion O   0.161050000000000   0.558330000000000   0.029070000000000 1
ion O   0.128940000000000   0.522010000000000   0.590190000000000 1
ion O   0.891710000000000   0.082580000000000   0.782480000000000 1
ion O   0.885650000000000   0.226690000000000   0.105410000000000 1
ion O   0.837550000000000   0.443880000000000   0.962770000000000 1
ion O   0.873580000000000   0.480780000000000   0.426470000000000 1
ion O   0.611530000000000   0.153780000000000   0.278790000000000 1
ion O   0.619930000000000   0.284160000000000   0.902740000000000 1
ion O   0.834100000000000   0.179060000000000   0.528110000000000 1
ion O   0.605470000000000   0.399240000000000   0.222520000000000 1
ion O   0.660500000000000   0.299800000000000   0.474830000000000 1
ion O   0.891140000000000   0.331760000000000   0.716230000000000 1
ion O   0.642980000000000   0.043010000000000   0.028090000000000 1
ion O   0.648160000000000   0.014830000000000   0.581060000000000 1
ion O   0.877940000000000   0.594500000000000   0.789220000000000 1
ion O   0.881810000000000   0.752850000000000   0.091390000000000 1
ion O   0.839640000000000   0.936420000000000   0.998570000000000 1
ion O   0.889600000000000   0.969710000000000   0.418340000000000 1
ion O   0.608250000000000   0.663490000000000   0.278090000000000 1
ion O   0.627420000000000   0.776450000000000   0.910380000000000 1
ion O   0.838740000000000   0.695800000000000   0.540430000000000 1
ion O   0.609020000000000   0.899000000000000   0.225360000000000 1
ion O   0.654870000000000   0.800130000000000   0.460940000000000 1
ion O   0.885800000000000   0.859210000000000   0.726050000000000 1
ion O   0.655660000000000   0.551210000000000   0.017580000000000 1
ion O   0.638610000000000   0.528450000000000   0.598410000000000 1

# Forces in Lattice coordinates:
force Bi   0.444316961010424   0.656016401091467  -0.052099800507985 1
force Bi  -0.653489798581113   0.215187182495927   0.157523162576606 1
force Bi  -2.007559971319243   2.482213675236972   0.137772273106764 1
force Bi   0.494146337420842  -0.773951166654896   0.108162100520943 1
force Bi   3.523181010259728  -3.597546927681845  -0.308208590062281 1
force Bi  -0.238039892995257   0.025257812146158   0.300131866143033 1
force Bi  -0.513752532587384   0.135928465905365   0.258201567312918 1
force Bi  -0.434179233204844   0.364165125599541  -1.100192637436349 1
force Bi  -0.321420099070536   1.437451214333726  -0.095289513883178 1
force Bi  -0.118641390000391   0.490861993439539  -0.210053518650368 1
force Bi   0.440614616019419  -0.303412552626999   0.271883258917064 1
force Bi  -0.386388346967890   0.117414444316988  -0.082055123384696 1
force Bi  -0.025434212245846  -0.375102288043426  -0.006107513717841 1
force Bi   0.079707423324554  -0.904822596545980  -0.278198942211735 1
force Bi  -0.219980450942309   0.440539526156430   0.087932120967233 1
force Bi  -0.176100519301543  -0.253284473693324  -0.324231765746240 1
force Bi  -0.288615796566309   0.512243984835163  -0.293660328675152 1
force Bi   0.123747060939509   0.217681264530363  -0.181020886926090 1
force Bi   0.454610406728553  -2.324965328714505  -0.036843798844071 1
force Bi  -0.389605932680420   0.562564496139087  -0.446643032181255 1
force Bi  -0.067185319560150  -0.322046224523598   0.423229663488788 1
force Bi   0.033153351293088   0.690351498450630  -0.115691479253981 1
force Bi  -0.080748409846417  -0.501139534425906   0.384265646323874 1
force Bi  -1.145356296559890   0.600669304059984  -0.127283281223900 1
force Bi  -0.925902059714153   1.075751686174302   0.372377349263981 1
force Bi   0.815546601905397  -0.744293789076118  -0.184528330519335 1
force Bi   0.408269268778322  -0.372422175912259  -0.590398776137496 1
force Bi   0.337588953297273  -0.003983083371001  -0.262906776238585 1
force Bi  -0.655465737868264   0.384850444447193   0.553511305911302 1
force Bi   1.633757600256912  -0.902720213463279   0.146929792435436 1
force Bi  -0.223428418925705  -0.392341426650532   0.601248249936797 1
force Bi  -0.764068497764674   0.925679823080220   0.426172440573943 1
force O   1.524036566578729  -1.538953363882997   0.274773078774196 1
force O   0.870037117057279  -0.307331948769462  -0.327024832404617 1
force O   0.380847654950620  -0.106514057855152   0.364095823895188 1
force O  -0.208682789993943   0.296256101439925   0.218793480780513 1
force O  -0.009787731762256  -0.330633392705441   0.541139215989271 1
force O  -0.673370606027925   0.282551708055404   0.283032965277899 1
force O   0.334594676480665  -0.143158829308556  -0.637362085275399 1
force O  -1.653506363000808   2.209284210892868   0.754703055049242 1
force O  -0.528840543772993   0.523595466797777   0.431952980704072 1
force O   0.547339143188813  -0.591121190702530  -0.104051564550608 1
force O  -0.462461566874561  -0.395087983047928  -0.336031410381943 1
force O  -0.411147489866938  -0.036923336291653  -0.032187048227031 1
force O   0.105916636297838   0.145084742396058  -0.172048806563418 1
force O  -0.169343844852995   0.557351705730563  -0.183395150529072 1
force O   0.239766256624816   0.186029978830030   0.632604031346285 1
force O   0.212129883015500   0.778938119115500   0.025853537424257 1
force O  -0.065595529978755  -0.170658449258953   0.157348414856621 1
force O  -0.129903935377421  -0.130966648791561   0.270198470529485 1
force O   0.358605334143387  -0.903009953888814  -0.328207102282617 1
force O  -0.682105087612523  -0.033450759498166   0.248713968996378 1
force O   0.217200879958513  -0.065597786594944   0.023894792801131 1
force O  -0.682281762307128   0.203285501107397  -0.301967339656830 1
force O  -0.173203993686023  -0.220751185827749  -0.391329639804111 1
force O   0.068429857808572   0.098364934590998  -0.195129912323338 1
force O  -0.159540901882538   0.492899354335085  -0.252436328394528 1
force O   0.409261303539567  -0.430303998881003   0.530029617686862 1
force O  -0.130598964039057   0.328160073845993   0.156758889810879 1
force O  -0.051405260693937  -0.230129335507457  -0.125116099820651 1
force O   0.366206422876594  -0.739460525256128   0.101272874976034 1
force O   0.613159401718324  -0.116955412450992  -0.348835866448659 1
force O   0.337909885671565   0.003441263214904   0.021864988461010 1
force O  -0.405991185040544   0.331260532530438   0.389324237275973 1
force O   0.224818701911861   0.973259840863028  -0.083382716279716 1
force O  -0.228053244858199   0.381631901726427  -0.203511144684224 1
force O  -0.850703783739637   0.594555909346957  -0.616549818221566 1
force O   0.287227189351661   0.049440585041757   0.041876636365617 1
force O   0.395433444729627  -0.614521339587077  -0.288347219936280 1
force O   0.531282638388557  -0.031829265299098   0.189164789979943 1
force O  -0.373603826776344   0.779079649550531   0.048378928406561 1
force O  -0.053324315433539  -0.604405585140677  -0.137337484212964 1
force O   0.298054380941644  -0.695492830550662   0.238583594636602 1
force O   0.679666452758854  -0.264171810430317  -0.467269996983921 1
force O  -0.055444589059140   0.000092042049852  -0.182014069284572 1
force O  -0.612247788529437   0.741574942665158   0.708922460620331 1
force O   0.627855274535354  -0.465981250667121  -0.041332831666884 1
force O  -0.259290367401189   0.460030718866111  -0.144122002787625 1
force O   0.247379278098095  -0.813891992036247  -0.285042019473576 1

# Energy components:
   Eewald =    -2377.0394690995863130
       EH =      686.2649189515680064
     Eloc =    -2236.1122934157720010
      Enl =      865.9127524522224348
      Exc =    -1196.3880661253083417
 Exc_core =      661.9338022893211928
       KE =      541.4261621122850556
-------------------------------------
     Etot =    -3054.0021928352703071
       TS =        0.1417849966588092
-------------------------------------
        F =    -3054.1439778319290781

IonicMinimize: Iter:   0  F: -3054.143977831929078  |grad|_K:  2.588e-02  t[s]:   7388.48

#--- Lowdin population analysis ---
# oxidation-state Bi +1.136 +1.252 +1.352 +1.187 +1.385 +1.334 +1.271 +1.179 +1.272 +1.198 +1.313 +1.255 +1.114 +1.340 +1.278 +1.056 +1.300 +1.220 +1.226 +1.300 +1.146 +1.239 +1.234 +1.293 +1.171 +1.263 +1.311 +1.154 +1.359 +1.312 +1.128 +1.282
# oxidation-state O -0.762 -0.773 -0.773 -0.811 -0.765 -0.791 -0.777 -0.750 -0.798 -0.777 -0.776 -0.781 -0.767 -0.779 -0.797 -0.784 -0.771 -0.810 -0.760 -0.775 -0.773 -0.767 -0.806 -0.758 -0.795 -0.787 -0.801 -0.748 -0.798 -0.760 -0.759 -0.780 -0.763 -0.791 -0.778 -0.761 -0.808 -0.765 -0.818 -0.759 -0.809 -0.731 -0.758 -0.731 -0.724 -0.790 -0.779


-------- Electronic minimization -----------
Will mix electronic density at each iteration.
	FillingsUpdate:  mu: +0.396126480  nElectrons: 762.000000
	FillingsUpdate:  mu: +0.395832826  nElectrons: 762.000000
SCF: Cycle:  0   F: -3053.921886668661045   dF: -1.555e-01   |Residual|: 3.295e-01   |deigs|: 1.146e-03  t[s]:   7911.80
	FillingsUpdate:  mu: +0.397368354  nElectrons: 762.000000
SCF: Cycle:  1   F: -3054.115331257783509   dF: -1.934e-01   |Residual|: 2.742e-01   |deigs|: 3.601e-03  t[s]:   8293.02
	FillingsUpdate:  mu: +0.395922219  nElectrons: 762.000000
SCF: Cycle:  2   F: -3054.184768833434191   dF: -6.944e-02   |Residual|: 1.161e-01   |deigs|: 1.864e-03  t[s]:   8680.02
	FillingsUpdate:  mu: +0.396815908  nElectrons: 762.000000
SCF: Cycle:  3   F: -3054.212574430525819   dF: -2.781e-02   |Residual|: 7.809e-02   |deigs|: 1.300e-03  t[s]:   9062.22
	FillingsUpdate:  mu: +0.396456492  nElectrons: 762.000000
SCF: Cycle:  4   F: -3054.224006965089302   dF: -1.143e-02   |Residual|: 3.222e-02   |deigs|: 6.729e-04  t[s]:   9407.65
	FillingsUpdate:  mu: +0.396386957  nElectrons: 762.000000
SCF: Cycle:  5   F: -3054.225931867400050   dF: -1.925e-03   |Residual|: 1.669e-02   |deigs|: 2.824e-04  t[s]:   9754.18
	FillingsUpdate:  mu: +0.396382824  nElectrons: 762.000000
SCF: Cycle:  6   F: -3054.226255490734729   dF: -3.236e-04   |Residual|: 6.984e-03   |deigs|: 1.034e-04  t[s]:   9983.43
	FillingsUpdate:  mu: +0.396388840  nElectrons: 762.000000
SCF: Cycle:  7   F: -3054.226332484253817   dF: -7.699e-05   |Residual|: 3.269e-03   |deigs|: 4.326e-05  t[s]:  10207.59
	FillingsUpdate:  mu: +0.396380172  nElectrons: 762.000000
SCF: Cycle:  8   F: -3054.226343089673719   dF: -1.061e-05   |Residual|: 2.121e-03   |deigs|: 2.607e-05  t[s]:  10430.39
	FillingsUpdate:  mu: +0.396375639  nElectrons: 762.000000
SCF: Cycle:  9   F: -3054.226350489235301   dF: -7.400e-06   |Residual|: 1.093e-03   |deigs|: 1.425e-05  t[s]:  10651.40
	FillingsUpdate:  mu: +0.396370609  nElectrons: 762.000000
SCF: Cycle: 10   F: -3054.226352491511079   dF: -2.002e-06   |Residual|: 3.932e-04   |deigs|: 8.868e-06  t[s]:  10878.42
	FillingsUpdate:  mu: +0.396371075  nElectrons: 762.000000
SCF: Cycle: 11   F: -3054.226352759627389   dF: -2.681e-07   |Residual|: 1.802e-04   |deigs|: 2.183e-06  t[s]:  11098.71
	FillingsUpdate:  mu: +0.396370757  nElectrons: 762.000000
SCF: Cycle: 12   F: -3054.226352813565882   dF: -5.394e-08   |Residual|: 1.116e-04   |deigs|: 1.041e-06  t[s]:  11323.51
	FillingsUpdate:  mu: +0.396370064  nElectrons: 762.000000
SCF: Cycle: 13   F: -3054.226352827597111   dF: -1.403e-08   |Residual|: 7.520e-05   |deigs|: 8.880e-07  t[s]:  11548.65
	FillingsUpdate:  mu: +0.396369821  nElectrons: 762.000000
SCF: Cycle: 14   F: -3054.226352841229527   dF: -1.363e-08   |Residual|: 2.887e-05   |deigs|: 5.218e-07  t[s]:  11785.51
	FillingsUpdate:  mu: +0.396369837  nElectrons: 762.000000
SCF: Cycle: 15   F: -3054.226352844344092   dF: -3.115e-09   |Residual|: 1.682e-05   |deigs|: 1.920e-07  t[s]:  12003.10
	FillingsUpdate:  mu: +0.396369814  nElectrons: 762.000000
SCF: Cycle: 16   F: -3054.226352845668771   dF: -1.325e-09   |Residual|: 8.015e-06   |deigs|: 8.740e-08  t[s]:  12247.77
SCF: Converged (|Delta E|<1.000000e-08 for 2 iters).

Setting wave functions to eigenvectors of Hamiltonian

# Ionic positions in lattice coordinates:
ion Bi   0.231196993664736   0.060556190682327   0.340861616173367 1
ion Bi   0.022513481248585   0.141157347036120   0.530327768893216 1
ion Bi   0.269031646594036   0.160579411129320   0.805929136457297 1
ion Bi   0.463724415055780   0.122274536892399   0.043706227598027 1
ion Bi   0.209825806931057   0.326000129928466   0.182181001824823 1
ion Bi   0.273988321026688   0.425854885629823   0.680048913009951 1
ion Bi   0.489990321814664   0.359306852148458   0.467545668415625 1
ion Bi   0.010950508886012   0.383442550867675   0.995700906691573 1
ion Bi   0.228758315198800   0.562177868602334   0.308285270534034 1
ion Bi   0.015438641501301   0.642537900122532   0.552412688166484 1
ion Bi   0.248732858784429   0.672851595712979   0.802259356720712 1
ion Bi   0.490265065499867   0.602172818648233   0.048107857453668 1
ion Bi   0.246263478754758   0.832121819068558   0.173924862563789 1
ion Bi   0.268330831367352   0.929395537242983   0.712614894308412 1
ion Bi   0.475981176401837   0.853784151662664   0.448656415502942 1
ion Bi   0.024619118525426   0.892853949156997   0.971591548104733 1
ion Bi   0.739337433170299   0.056697082195872   0.302216823876823 1
ion Bi   0.539495660431065   0.130034694445503   0.532284174952132 1
ion Bi   0.765161880678505   0.209064053962492   0.827869180887829 1
ion Bi   0.990401259010669   0.100428767799548   0.039180135954171 1
ion Bi   0.740128531426885   0.323169849306454   0.180182015599345 1
ion Bi   0.755214844525099   0.423038528066604   0.690745034959833 1
ion Bi   0.982367551009096   0.368382571005880   0.464466074853446 1
ion Bi   0.535194605265969   0.391514541538292   0.965326492571028 1
ion Bi   0.750194089491702   0.558076169445256   0.310566802407472 1
ion Bi   0.496801118727523   0.646570025168705   0.544045538605599 1
ion Bi   0.764201124483086   0.684989992978737   0.817126167490292 1
ion Bi   0.973534965948351   0.608803569696825   0.051702548069924 1
ion Bi   0.746039621369855   0.816410331234164   0.168692806905284 1
ion Bi   0.735063446493747   0.928657614649264   0.690031684934043 1
ion Bi   0.987238711216831   0.868956906304079   0.445180349149385 1
ion Bi   0.529272093433376   0.873334623962370   0.956929261572659 1
ion O   0.391547010095076   0.098583921150954   0.756696472297923 1
ion O   0.350472038090811   0.224472440404947   0.081154670762045 1
ion O   0.337681886047615   0.448014222095207   0.981746410882705 1
ion O   0.383597936986661   0.480146457004796   0.426758634241752 1
ion O   0.108662675518642   0.166055851346343   0.251822343220536 1
ion O   0.148123915491689   0.265076373570153   0.915836810541509 1
ion O   0.338144469104533   0.189384407114957   0.524210530160355 1
ion O   0.109979788060056   0.407681707836136   0.215868199523538 1
ion O   0.142287147141408   0.303869271334855   0.467273494944168 1
ion O   0.397090507884436   0.355221055051542   0.720943695816184 1
ion O   0.168454318837773   0.060067630980657   0.025512493946819 1
ion O   0.141808983483938   0.015561979149703   0.576610647162617 1
ion O   0.378422101934232   0.594185938899074   0.785646266824195 1
ion O   0.370777036450729   0.728203684549600   0.077318328824407 1
ion O   0.339409732432006   0.945394926094103   0.970167556205422 1
ion O   0.357282829060385   0.958616192898119   0.421223559969996 1
ion O   0.110902081769853   0.655278791658991   0.279677338613490 1
ion O   0.130891206696556   0.773176347152563   0.906705208281553 1
ion O   0.345068759739372   0.704630189550115   0.515021759669652 1
ion O   0.162293937516275   0.819165026393836   0.470502307188382 1
ion O   0.385067158233822   0.843052525386214   0.718768736970884 1
ion O   0.160209714678316   0.558225583123388   0.028326369599062 1
ion O   0.128616230842732   0.521752695129900   0.589226333618298 1
ion O   0.891842454507255   0.082691140981674   0.781999434426924 1
ion O   0.885634153609459   0.227043038608028   0.104788329358640 1
ion O   0.837928990293053   0.443681341853798   0.964074988157446 1
ion O   0.873536480513250   0.481005164307270   0.426855887031320 1
ion O   0.611367152927637   0.153564146814540   0.278481828802132 1
ion O   0.620125372569452   0.283681876694690   0.902989264320481 1
ion O   0.834881839335666   0.179209594892492   0.527250965650835 1
ion O   0.605928411176385   0.399379991819668   0.222573739002076 1
ion O   0.660085286051054   0.299916097584142   0.475788530576045 1
ion O   0.891838803455618   0.332676022328568   0.716024588533729 1
ion O   0.642826366511280   0.043240954658593   0.027588797394534 1
ion O   0.647250626157742   0.014988866508268   0.579541776016667 1
ion O   0.878348522302569   0.594658419138814   0.789323013501123 1
ion O   0.882095573573588   0.752489613672719   0.090679906296258 1
ion O   0.840345631460271   0.936608529501059   0.999035679785249 1
ion O   0.889410715703145   0.970218749450309   0.418459024035812 1
ion O   0.607932757589341   0.662956178203609   0.277751736198242 1
ion O   0.627541033429629   0.775981496995532   0.910967363259521 1
ion O   0.839552077845164   0.695851806576193   0.539279346365910 1
ion O   0.608945063752250   0.898977615709628   0.224911729448223 1
ion O   0.654342752375283   0.800510175262981   0.462685474381297 1
ion O   0.886460155847200   0.859069764133708   0.725948127583043 1
ion O   0.655495917315515   0.551494726570330   0.017225030739719 1
ion O   0.638614477663892   0.527860603565321   0.597708044661366 1

# Forces in Lattice coordinates:
force Bi   0.399701641684870   0.638338659328600  -0.014355969452203 1
force Bi  -0.640540001940122   0.221200163527253   0.138119515722757 1
force Bi  -1.464806266276125   1.907065676522969   0.094955937448866 1
force Bi   0.464369362088492  -0.773269158256301   0.043047831346752 1
force Bi   2.536686074519878  -2.429658333491465  -0.230927044790791 1
force Bi  -0.237179993060376   0.049071237059209   0.267059385675533 1
force Bi  -0.476143388725373   0.124766146968417   0.224490488512372 1
force Bi  -0.233239062177609   0.279534649211245  -0.915741312359133 1
force Bi  -0.313599733090908   1.275174994763771  -0.099998827092946 1
force Bi  -0.085812321769331   0.453372269719512  -0.208834759444491 1
force Bi   0.429680061425137  -0.306768678515840   0.257288126335263 1
force Bi  -0.362164919627389   0.129720198404242  -0.088304135581102 1
force Bi  -0.029707206134204  -0.344007403869555  -0.011866217968461 1
force Bi   0.082097036141357  -0.787033828716151  -0.250415145036657 1
force Bi  -0.199849111721146   0.406947637496655   0.101028007778329 1
force Bi  -0.188208420033237  -0.250703381659546  -0.301982882251105 1
force Bi  -0.278664839432591   0.491968962078034  -0.268982015567724 1
force Bi   0.090674135150787   0.198443301320028  -0.139203544681300 1
force Bi   0.487984395218346  -2.133653139114408  -0.070309472088319 1
force Bi  -0.378904326809963   0.539471787087168  -0.398695062763514 1
force Bi  -0.105096430297649  -0.275624258195888   0.399605691044097 1
force Bi   0.050529483814767   0.609572297799449  -0.103130637217435 1
force Bi  -0.011887003241735  -0.502212970498672   0.316183714195157 1
force Bi  -1.028245100737082   0.510697537841750  -0.103770778072681 1
force Bi  -0.895214652979757   1.032265603436476   0.356946979834616 1
force Bi   0.770784596556847  -0.696755663512017  -0.182052665426251 1
force Bi   0.369428385497860  -0.348924646704786  -0.540636778397335 1
force Bi   0.315260477033175   0.007258430758498  -0.246173648284628 1
force Bi  -0.586819816457057   0.334217822668039   0.512224562120724 1
force Bi   1.456897822391681  -0.745210584468083   0.104454938951507 1
force Bi  -0.220235874682261  -0.342356743213902   0.576527614200653 1
force Bi  -0.678819734566907   0.846592387851594   0.379696258096926 1
force O   1.070852126974703  -1.080334165211554   0.322104818006887 1
force O   0.784475358012449  -0.233657062156457  -0.324984988575119 1
force O   0.402837270617802  -0.149414426762200   0.346960813369372 1
force O  -0.198549741355619   0.280070925030872   0.231154990843514 1
force O   0.002009192295014  -0.349892921999774   0.504103257488373 1
force O  -0.616985293421048   0.242824446227273   0.283104263732993 1
force O   0.326652582442591  -0.160432842647220  -0.610062734663068 1
force O  -0.999004864272870   1.288988890756544   0.577615454563676 1
force O  -0.508838011540102   0.506062809908816   0.433225674847778 1
force O   0.493229484043429  -0.562002214998491  -0.090988172117316 1
force O  -0.463774931837716  -0.335016401892691  -0.342597435268122 1
force O  -0.377720916464624  -0.045255201002109  -0.057092744436759 1
force O   0.108424724321515   0.124420776382308  -0.160752157096685 1
force O  -0.185198297595415   0.554489187811612  -0.183879798294322 1
force O   0.234129664455475   0.145956700067132   0.604681684873198 1
force O   0.187402808394865   0.771844079631669   0.033470544951178 1
force O  -0.071732063678757  -0.159119064438446   0.153655655880853 1
force O  -0.118316755306565  -0.146147749973261   0.270998539507209 1
force O   0.376986503470079  -0.870027276265534  -0.318194038995530 1
force O  -0.673199641663551  -0.027079229661038   0.252220997722649 1
force O   0.214000351530337  -0.068742837202226   0.019700489647471 1
force O  -0.684089001654111   0.250260211968685  -0.321451954838405 1
force O  -0.149399031477578  -0.234267224344307  -0.390006241016644 1
force O   0.061331097715405   0.109747031437645  -0.185369504337437 1
force O  -0.186199016802594   0.501031697104500  -0.270283374858169 1
force O   0.443118149555128  -0.436911669341078   0.527960468189119 1
force O  -0.154965961783673   0.350845602470074   0.154478231977336 1
force O  -0.030439246321670  -0.208239745127145  -0.130447538902481 1
force O   0.358919006821091  -0.705139679012446   0.125772214977907 1
force O   0.607708410449658  -0.120490968346429  -0.342528642010274 1
force O   0.317085689985483   0.007969171106073   0.015138110204609 1
force O  -0.396080237154690   0.332919549769744   0.379948506886283 1
force O   0.139174802588693   0.822905874006811  -0.007061377862800 1
force O  -0.234591764478047   0.409687897144995  -0.213786296469984 1
force O  -0.733760221274171   0.433767993667582  -0.570394100033466 1
force O   0.286052503975752   0.032838047021744   0.038174810315310 1
force O   0.345197900339777  -0.558013857544755  -0.285455954053144 1
force O   0.526366323750185  -0.046492282502018   0.188122672346327 1
force O  -0.369205323663356   0.748506728160708   0.064299669716754 1
force O  -0.044142913209453  -0.589589319910561  -0.114869761379707 1
force O   0.260376521174131  -0.614377349273737   0.245215905395815 1
force O   0.665198974529123  -0.261598306093030  -0.461724924592466 1
force O  -0.051839375457996  -0.005629942327648  -0.174949332374409 1
force O  -0.595140456390719   0.722949930617734   0.691242273380778 1
force O   0.619757329666563  -0.456126970303300  -0.053472048419880 1
force O  -0.275945775397516   0.452698823111446  -0.156299525275921 1
force O   0.248517528439288  -0.791147068494285  -0.292466399004524 1

# Energy components:
   Eewald =    -2379.5670841842270420
       EH =      684.0740586071387952
     Eloc =    -2231.3009491140960563
      Enl =      865.8274997467672165
      Exc =    -1196.3479670705694389
 Exc_core =      661.9338028732145176
       KE =      541.2897082962676905
-------------------------------------
     Etot =    -3054.0909308455043174
       TS =        0.1354220001644053
-------------------------------------
        F =    -3054.2263528456687709

IonicMinimize: Iter:   1  F: -3054.226352845668771  |grad|_K:  2.210e-02  alpha:  5.647e-01  linmin: -9.883e-01  t[s]:  12307.67

#--- Lowdin population analysis ---
# oxidation-state Bi +1.141 +1.253 +1.342 +1.196 +1.373 +1.332 +1.272 +1.193 +1.282 +1.202 +1.312 +1.259 +1.113 +1.340 +1.279 +1.064 +1.302 +1.228 +1.223 +1.299 +1.157 +1.244 +1.247 +1.290 +1.177 +1.265 +1.312 +1.161 +1.356 +1.312 +1.134 +1.284
# oxidation-state O -0.763 -0.780 -0.777 -0.812 -0.768 -0.797 -0.778 -0.752 -0.798 -0.778 -0.778 -0.781 -0.769 -0.780 -0.797 -0.787 -0.771 -0.811 -0.763 -0.777 -0.774 -0.767 -0.808 -0.762 -0.794 -0.786 -0.802 -0.751 -0.798 -0.763 -0.761 -0.781 -0.766 -0.795 -0.779 -0.763 -0.809 -0.768 -0.818 -0.763 -0.810 -0.736 -0.759 -0.738 -0.727 -0.790 -0.782


-------- Electronic minimization -----------
Will mix electronic density at each iteration.
	FillingsUpdate:  mu: +0.396369814  nElectrons: 762.000000
	FillingsUpdate:  mu: +0.396122744  nElectrons: 762.000000
SCF: Cycle:  0   F: -3053.351782539214128   dF: -4.713e-01   |Residual|: 6.106e-01   |deigs|: 2.575e-03  t[s]:  12848.04
	FillingsUpdate:  mu: +0.398356235  nElectrons: 762.000000
SCF: Cycle:  1   F: -3054.018250129234730   dF: -6.665e-01   |Residual|: 4.860e-01   |deigs|: 5.311e-03  t[s]:  13231.90
	FillingsUpdate:  mu: +0.396485502  nElectrons: 762.000000
SCF: Cycle:  2   F: -3054.232851602882420   dF: -2.146e-01   |Residual|: 1.931e-01   |deigs|: 2.881e-03  t[s]:  13621.81
	FillingsUpdate:  mu: +0.397899714  nElectrons: 762.000000
SCF: Cycle:  3   F: -3054.332418746266740   dF: -9.957e-02   |Residual|: 1.029e-01   |deigs|: 1.983e-03  t[s]:  14007.51
	FillingsUpdate:  mu: +0.397230884  nElectrons: 762.000000
SCF: Cycle:  4   F: -3054.349097313349830   dF: -1.668e-02   |Residual|: 4.324e-02   |deigs|: 8.183e-04  t[s]:  14361.73
	FillingsUpdate:  mu: +0.397166436  nElectrons: 762.000000
SCF: Cycle:  5   F: -3054.350538032565964   dF: -1.441e-03   |Residual|: 3.091e-02   |deigs|: 4.303e-04  t[s]:  14707.16
	FillingsUpdate:  mu: +0.397169341  nElectrons: 762.000000
SCF: Cycle:  6   F: -3054.352096657813945   dF: -1.559e-03   |Residual|: 9.566e-03   |deigs|: 2.075e-04  t[s]:  15049.82
	FillingsUpdate:  mu: +0.397184952  nElectrons: 762.000000
SCF: Cycle:  7   F: -3054.352256349408435   dF: -1.597e-04   |Residual|: 5.560e-03   |deigs|: 7.525e-05  t[s]:  15274.81
	FillingsUpdate:  mu: +0.397178665  nElectrons: 762.000000
SCF: Cycle:  8   F: -3054.352289903726614   dF: -3.355e-05   |Residual|: 3.005e-03   |deigs|: 3.840e-05  t[s]:  15494.71
	FillingsUpdate:  mu: +0.397166834  nElectrons: 762.000000
SCF: Cycle:  9   F: -3054.352304165909572   dF: -1.426e-05   |Residual|: 1.500e-03   |deigs|: 2.043e-05  t[s]:  15721.71
	FillingsUpdate:  mu: +0.397158631  nElectrons: 762.000000
SCF: Cycle: 10   F: -3054.352307239007587   dF: -3.073e-06   |Residual|: 5.420e-04   |deigs|: 1.273e-05  t[s]:  15946.16
	FillingsUpdate:  mu: +0.397158800  nElectrons: 762.000000
SCF: Cycle: 11   F: -3054.352307735927752   dF: -4.969e-07   |Residual|: 3.203e-04   |deigs|: 3.241e-06  t[s]:  16169.20
	FillingsUpdate:  mu: +0.397158177  nElectrons: 762.000000
SCF: Cycle: 12   F: -3054.352307901720906   dF: -1.658e-07   |Residual|: 1.957e-04   |deigs|: 1.908e-06  t[s]:  16398.15
	FillingsUpdate:  mu: +0.397157240  nElectrons: 762.000000
SCF: Cycle: 13   F: -3054.352307965439650   dF: -6.372e-08   |Residual|: 1.045e-04   |deigs|: 1.593e-06  t[s]:  16626.98
	FillingsUpdate:  mu: +0.397156970  nElectrons: 762.000000
SCF: Cycle: 14   F: -3054.352307989711790   dF: -2.427e-08   |Residual|: 4.277e-05   |deigs|: 6.166e-07  t[s]:  16847.46
	FillingsUpdate:  mu: +0.397156939  nElectrons: 762.000000
SCF: Cycle: 15   F: -3054.352307995573938   dF: -5.862e-09   |Residual|: 2.172e-05   |deigs|: 3.078e-07  t[s]:  17070.76
	FillingsUpdate:  mu: +0.397156881  nElectrons: 762.000000
SCF: Cycle: 16   F: -3054.352307998417018   dF: -2.843e-09   |Residual|: 1.139e-05   |deigs|: 1.233e-07  t[s]:  17293.66
SCF: Converged (|Delta E|<1.000000e-08 for 2 iters).

Setting wave functions to eigenvectors of Hamiltonian

# Ionic positions in lattice coordinates:
ion Bi   0.233010543556680   0.062220024386479   0.341017068854825 1
ion Bi   0.020632695290747   0.141004592044870   0.531049481732583 1
ion Bi   0.267336494213134   0.162424276250283   0.806235385312463 1
ion Bi   0.464402511864484   0.121082174245530   0.043550598546326 1
ion Bi   0.213660627918114   0.324979185012111   0.181263830351266 1
ion Bi   0.273267816949119   0.425772894284750   0.681472851793683 1
ion Bi   0.488634700204294   0.359104714343831   0.468704569860058 1
ion Bi   0.011069120958398   0.383822579841382   0.991276960895932 1
ion Bi   0.228845513960026   0.564199932294375   0.307642169126602 1
ion Bi   0.015684019494930   0.643359607733478   0.551140695660231 1
ion Bi   0.249827573026750   0.672619397953123   0.803742492230486 1
ion Bi   0.489275698182793   0.602134055304522   0.047526513870917 1
ion Bi   0.245834160770695   0.831430749983714   0.173815197108669 1
ion Bi   0.267946252502379   0.928082112841659   0.711259253977539 1
ion Bi   0.475754949779845   0.854387953261845   0.449360243114552 1
ion Bi   0.023692378584801   0.892128121315419   0.969884155696482 1
ion Bi   0.738909799881637   0.057419406223713   0.300727364700698 1
ion Bi   0.539863903655870   0.130467305663537   0.531700642024395 1
ion Bi   0.764971946932483   0.205515546641090   0.827222719184744 1
ion Bi   0.989683781200889   0.101144647864192   0.037045590123839 1
ion Bi   0.739411636818940   0.322545217723542   0.182479279491006 1
ion Bi   0.755976277435796   0.424214978804975   0.690194045577724 1
ion Bi   0.982063248978624   0.367382021231947   0.465965476043352 1
ion Bi   0.532567675011894   0.391478741661190   0.964842164219059 1
ion Bi   0.748285015222858   0.559286363054256   0.312655402999326 1
ion Bi   0.498584750558075   0.645936472145620   0.542945804980697 1
ion Bi   0.764980150136343   0.684637973874468   0.814133296721472 1
ion Bi   0.974536680387898   0.609138617667259   0.050301682715990 1
ion Bi   0.744590827647450   0.816483710060222   0.171566517540850 1
ion Bi   0.738757168776192   0.928718263449844   0.690398357794067 1
ion Bi   0.986216100575259   0.868126786878074   0.448554968918038 1
ion Bi   0.528059438707010   0.874350542087439   0.958957207625269 1
ion O   0.392944169321212   0.097922421568304   0.758976020535921 1
ion O   0.352652628899948   0.224844340202885   0.079176039838692 1
ion O   0.338919670301098   0.448034114517942   0.983762815729454 1
ion O   0.383231072662533   0.480511906680831   0.428255328130309 1
ion O   0.108337624043296   0.165289746861357   0.254673671984384 1
ion O   0.146449467174907   0.264937665949259   0.917572710123950 1
ion O   0.339035888219834   0.189329207848546   0.520647346098523 1
ion O   0.109257976107187   0.408045939559032   0.218267464626721 1
ion O   0.141137327508609   0.304405695338126   0.469937290784989 1
ion O   0.398023115751276   0.354540773961699   0.720470371369266 1
ion O   0.166613968114708   0.059024707454574   0.023370443610582 1
ion O   0.140601256530610   0.015102367331813   0.576100366005783 1
ion O   0.378899815292452   0.594514921869180   0.784733944636299 1
ion O   0.370654325953300   0.729163498913294   0.076188316430076 1
ion O   0.340282954167145   0.945844553775558   0.973694107946838 1
ion O   0.358598076119268   0.960391923954997   0.421477989340090 1
ion O   0.110490590337354   0.654889980746633   0.280595537025895 1
ion O   0.130370353254127   0.772727410153830   0.908371604131829 1
ion O   0.345559754665272   0.703268258139656   0.513136141453921 1
ion O   0.160038594204607   0.818452022466862   0.472071054769856 1
ion O   0.385703674814090   0.843113397970252   0.718862639015899 1
ion O   0.158202899720128   0.558165364799259   0.026230666434581 1
ion O   0.127946786763435   0.521103141931765   0.586844544315496 1
ion O   0.892146817783839   0.083002509903103   0.780926321591656 1
ion O   0.885427529226770   0.227901987651428   0.103016812847174 1
ion O   0.839092662980430   0.443228496985238   0.967297912213806 1
ion O   0.873306936573347   0.481613525699705   0.427788228488815 1
ion O   0.611152018883799   0.153165132072236   0.277648085601531 1
ion O   0.620632566808505   0.282625273422207   0.903918255458918 1
ion O   0.836783202043624   0.179555537849054   0.525192306535714 1
ion O   0.606935185939186   0.399705086192772   0.222623353695081 1
ion O   0.659124922167898   0.300232955518623   0.478057139405947 1
ion O   0.892675500187420   0.334128319655486   0.716473389068838 1
ion O   0.642456974615381   0.043923900048210   0.026212375404587 1
ion O   0.645461677476254   0.014930822523731   0.576343268045931 1
ion O   0.879323055319853   0.594978632750940   0.789533325988985 1
ion O   0.882576629951822   0.751733159643061   0.088949051872571 1
ion O   0.842037934705924   0.937004341256812   1.000182223772818 1
ion O   0.888906682048286   0.971362122767566   0.418955935738724 1
ion O   0.607237243189142   0.661710621052592   0.277192644087390 1
ion O   0.627750200421501   0.775088419039120   0.912513316676303 1
ion O   0.841479092655178   0.695962088786102   0.536485174234068 1
ion O   0.608771670566148   0.898904744941807   0.223885112034476 1
ion O   0.653109947938045   0.801411520875697   0.466808601872281 1
ion O   0.888068063141910   0.858746697601477   0.725542320511248 1
ion O   0.654957343039841   0.552137416165991   0.016188706766447 1
ion O   0.638680693225091   0.526494359472652   0.595867734954198 1

# Forces in Lattice coordinates:
force Bi   0.299657433661850   0.625296127820097   0.030419109867799 1
force Bi  -0.584850868850934   0.205425794002707   0.097313286651993 1
force Bi  -0.987045668880905   1.370064785895039   0.084347224480250 1
force Bi   0.424612466243430  -0.744310918478419  -0.036314632053025 1
force Bi   1.858910576776579  -1.723192798023209  -0.157775562959708 1
force Bi  -0.218273322035067   0.074837727363651   0.208165302523829 1
force Bi  -0.402915399847299   0.104445467048688   0.151506244258448 1
force Bi  -0.075011781760936   0.212508254791921  -0.693879956541794 1
force Bi  -0.291295431026096   1.046729945150974  -0.076429886391515 1
force Bi  -0.023984599579380   0.370898073554697  -0.201106732606171 1
force Bi   0.400019783472839  -0.291149985196188   0.222778429081433 1
force Bi  -0.308534605687599   0.153425543592296  -0.097371390550396 1
force Bi  -0.037908413418645  -0.281037868532139  -0.023881368326094 1
force Bi   0.083920564647515  -0.621136291135549  -0.210709925886776 1
force Bi  -0.157524450376360   0.340023266897237   0.115781679774851 1
force Bi  -0.207351769753346  -0.224539675653810  -0.256049873785254 1
force Bi  -0.256485840252441   0.445451545569902  -0.228805182587440 1
force Bi   0.036213868551320   0.170723154670590  -0.087826565435220 1
force Bi   0.502372227049562  -1.826709355983308  -0.090441480967798 1
force Bi  -0.311444120200112   0.493624068451657  -0.299237969635176 1
force Bi  -0.146019295316534  -0.186149200715679   0.338900393541141 1
force Bi   0.082312675954255   0.458990304767106  -0.074987759337778 1
force Bi   0.053427964710702  -0.463750882106169   0.229721178702553 1
force Bi  -0.819765829018849   0.334132803470727  -0.056839486717005 1
force Bi  -0.823126693994162   0.932982486030149   0.324289833166769 1
force Bi   0.684812642834862  -0.603473917830731  -0.172710646998849 1
force Bi   0.290548738267225  -0.308753946244806  -0.438922544066003 1
force Bi   0.256554636084620   0.020030941596364  -0.216960153615419 1
force Bi  -0.465955870319799   0.251829537429227   0.431002360854602 1
force Bi   1.167414861499192  -0.529813676377816   0.044253215575863 1
force Bi  -0.210313091428507  -0.242825902471161   0.520482620926331 1
force Bi  -0.521756752103032   0.704683837123270   0.290482559581689 1
force O   0.698405947826925  -0.701662522902613   0.328960242076357 1
force O   0.660593717548296  -0.147373662466453  -0.329367689696147 1
force O   0.422841692587221  -0.212350184130211   0.315290496502690 1
force O  -0.188648428868744   0.253279635436729   0.248655033531463 1
force O   0.009071509427664  -0.354659861317412   0.435841311073619 1
force O  -0.535161766206859   0.204714571855246   0.276577172300446 1
force O   0.319435024875126  -0.192866554156231  -0.552084168983782 1
force O  -0.692192129197307   0.823503588125232   0.377771002797934 1
force O  -0.472144185203756   0.483722596344370   0.430087120846346 1
force O   0.383747623886171  -0.487628243228717  -0.069192947451157 1
force O  -0.462572804310546  -0.230014916431583  -0.347758806118632 1
force O  -0.312670985008197  -0.067699441593335  -0.093385777566589 1
force O   0.112336673086565   0.076656086895429  -0.135081897654771 1
force O  -0.222361642823676   0.541144059986360  -0.181638870751132 1
force O   0.224223037743821   0.074198854836220   0.540136690000457 1
force O   0.140807526714215   0.751449686851883   0.058405123719050 1
force O  -0.073923158313921  -0.136824340378498   0.144307684771963 1
force O  -0.085994667225574  -0.179821997736848   0.268797579952517 1
force O   0.395380659228245  -0.813815271768997  -0.305588732940558 1
force O  -0.646955485367061  -0.009481583710370   0.262968083148845 1
force O   0.199927702887118  -0.072593344286950   0.007593758725005 1
force O  -0.669920814000504   0.290786752088005  -0.323821307502144 1
force O  -0.099033709052975  -0.260368778996514  -0.380938220533602 1
force O   0.034551383555748   0.134430127912329  -0.162850949359052 1
force O  -0.226528356237542   0.509271442437978  -0.298879193975648 1
force O   0.490513748116008  -0.433240604870920   0.511260518227368 1
force O  -0.193036913013320   0.383544106900151   0.156570150176360 1
force O  -0.001273883935845  -0.170843479864905  -0.110647086158974 1
force O   0.351460957023529  -0.655978516327438   0.168910483735223 1
force O   0.590039750343148  -0.118438086484410  -0.330260609827783 1
force O   0.266743280325838   0.028011303529064   0.007654862006856 1
force O  -0.378285536654926   0.325954588659089   0.360781955566774 1
force O   0.050757451266583   0.614511792548389   0.072408207525044 1
force O  -0.240746880150919   0.450049223330608  -0.231332340231531 1
force O  -0.564690233040743   0.227372030980701  -0.501831751317433 1
force O   0.275372308613275   0.008221835976093   0.030021361492752 1
force O   0.251661418998225  -0.458768721220819  -0.281115457072860 1
force O   0.516814605863282  -0.084679113588309   0.183749716007882 1
force O  -0.367043378631459   0.688113604109619   0.101536454694409 1
force O  -0.022154381938828  -0.553279102514356  -0.064544144463847 1
force O   0.206252578571393  -0.483433061839926   0.258235997998598 1
force O   0.625132700952762  -0.254348225855035  -0.442269892324176 1
force O  -0.045150535833663  -0.010458071171275  -0.155548373487207 1
force O  -0.558890345766254   0.677025332233485   0.643515185983544 1
force O   0.599348595577524  -0.435230097956807  -0.076322201568062 1
force O  -0.307745534356791   0.445368031201584  -0.180220594755418 1
force O   0.249068367834214  -0.736794819701690  -0.310425076898582 1

# Energy components:
   Eewald =    -2382.5065885551161955
       EH =      681.5939084258591265
     Eloc =    -2225.8353650774643029
      Enl =      865.7443742446098440
      Exc =    -1196.3355340624989367
 Exc_core =      661.9338169458525272
       KE =      541.1764465314233803
-------------------------------------
     Etot =    -3054.2289415473342160
       TS =        0.1233664510829077
-------------------------------------
        F =    -3054.3523079984170181

IonicMinimize: Iter:   2  F: -3054.352307998417018  |grad|_K:  1.865e-02  alpha:  2.110e-01  linmin: -9.924e-01  t[s]:  17353.43

#--- Lowdin population analysis ---
# oxidation-state Bi +1.155 +1.257 +1.331 +1.212 +1.362 +1.328 +1.276 +1.211 +1.291 +1.213 +1.310 +1.265 +1.111 +1.335 +1.281 +1.083 +1.304 +1.237 +1.222 +1.299 +1.181 +1.252 +1.261 +1.287 +1.192 +1.270 +1.314 +1.179 +1.349 +1.313 +1.147 +1.287
# oxidation-state O -0.764 -0.789 -0.785 -0.814 -0.773 -0.805 -0.780 -0.758 -0.797 -0.779 -0.782 -0.784 -0.773 -0.782 -0.796 -0.794 -0.773 -0.812 -0.768 -0.784 -0.776 -0.771 -0.812 -0.769 -0.795 -0.787 -0.804 -0.755 -0.799 -0.770 -0.765 -0.785 -0.770 -0.802 -0.782 -0.767 -0.812 -0.776 -0.820 -0.770 -0.812 -0.746 -0.763 -0.753 -0.731 -0.791 -0.787


-------- Electronic minimization -----------
Will mix electronic density at each iteration.
	FillingsUpdate:  mu: +0.397156881  nElectrons: 762.000000
	FillingsUpdate:  mu: +0.396613428  nElectrons: 762.000000
SCF: Cycle:  0   F: -3053.490217237758316   dF: -6.827e-01   |Residual|: 6.539e-01   |deigs|: 3.034e-03  t[s]:  17881.64
	FillingsUpdate:  mu: +0.398906829  nElectrons: 762.000000
SCF: Cycle:  1   F: -3054.176862510599221   dF: -6.866e-01   |Residual|: 4.557e-01   |deigs|: 5.240e-03  t[s]:  18264.88
	FillingsUpdate:  mu: +0.397710341  nElectrons: 762.000000
SCF: Cycle:  2   F: -3054.327972711456368   dF: -1.511e-01   |Residual|: 2.143e-01   |deigs|: 2.578e-03  t[s]:  18642.52
	FillingsUpdate:  mu: +0.398755347  nElectrons: 762.000000
SCF: Cycle:  3   F: -3054.457826523102540   dF: -1.299e-01   |Residual|: 7.640e-02   |deigs|: 1.785e-03  t[s]:  19018.90
	FillingsUpdate:  mu: +0.398372821  nElectrons: 762.000000
SCF: Cycle:  4   F: -3054.464512998054488   dF: -6.686e-03   |Residual|: 4.268e-02   |deigs|: 5.435e-04  t[s]:  19373.89
	FillingsUpdate:  mu: +0.398390560  nElectrons: 762.000000
SCF: Cycle:  5   F: -3054.466194679793716   dF: -1.682e-03   |Residual|: 2.197e-02   |deigs|: 3.159e-04  t[s]:  19718.70
	FillingsUpdate:  mu: +0.398395780  nElectrons: 762.000000
SCF: Cycle:  6   F: -3054.467011259617266   dF: -8.166e-04   |Residual|: 7.172e-03   |deigs|: 1.522e-04  t[s]:  19938.53
	FillingsUpdate:  mu: +0.398409692  nElectrons: 762.000000
SCF: Cycle:  7   F: -3054.467097899966575   dF: -8.664e-05   |Residual|: 5.091e-03   |deigs|: 6.337e-05  t[s]:  20169.70
	FillingsUpdate:  mu: +0.398395722  nElectrons: 762.000000
SCF: Cycle:  8   F: -3054.467131967548994   dF: -3.407e-05   |Residual|: 2.220e-03   |deigs|: 3.296e-05  t[s]:  20390.82
	FillingsUpdate:  mu: +0.398385468  nElectrons: 762.000000
SCF: Cycle:  9   F: -3054.467139652568221   dF: -7.685e-06   |Residual|: 1.012e-03   |deigs|: 1.873e-05  t[s]:  20618.44
	FillingsUpdate:  mu: +0.398383668  nElectrons: 762.000000
SCF: Cycle: 10   F: -3054.467141472574440   dF: -1.820e-06   |Residual|: 4.046e-04   |deigs|: 5.595e-06  t[s]:  20846.20
	FillingsUpdate:  mu: +0.398384777  nElectrons: 762.000000
SCF: Cycle: 11   F: -3054.467141741465184   dF: -2.689e-07   |Residual|: 2.651e-04   |deigs|: 3.186e-06  t[s]:  21062.51
	FillingsUpdate:  mu: +0.398383147  nElectrons: 762.000000
SCF: Cycle: 12   F: -3054.467141855433511   dF: -1.140e-07   |Residual|: 1.744e-04   |deigs|: 2.314e-06  t[s]:  21281.83
	FillingsUpdate:  mu: +0.398382775  nElectrons: 762.000000
SCF: Cycle: 13   F: -3054.467141925659234   dF: -7.023e-08   |Residual|: 6.200e-05   |deigs|: 1.230e-06  t[s]:  21531.00
	FillingsUpdate:  mu: +0.398382724  nElectrons: 762.000000
SCF: Cycle: 14   F: -3054.467141938114310   dF: -1.246e-08   |Residual|: 3.315e-05   |deigs|: 4.155e-07  t[s]:  21747.38
	FillingsUpdate:  mu: +0.398382723  nElectrons: 762.000000
SCF: Cycle: 15   F: -3054.467141943953266   dF: -5.839e-09   |Residual|: 1.629e-05   |deigs|: 2.294e-07  t[s]:  21985.22
	FillingsUpdate:  mu: +0.398382599  nElectrons: 762.000000
SCF: Cycle: 16   F: -3054.467141946849551   dF: -2.896e-09   |Residual|: 1.091e-05   |deigs|: 1.508e-07  t[s]:  22203.05
SCF: Converged (|Delta E|<1.000000e-08 for 2 iters).

Setting wave functions to eigenvectors of Hamiltonian

# Ionic positions in lattice coordinates:
ion Bi   0.234673287624612   0.064174864907935   0.341703365933313 1
ion Bi   0.018536224973227   0.140835235957558   0.531476054515680 1
ion Bi   0.266591055390583   0.163855577464868   0.806743382869920 1
ion Bi   0.465130786070298   0.119585205230443   0.042484835457004 1
ion Bi   0.216853781119207   0.324218480050696   0.180732610360122 1
ion Bi   0.272519142326735   0.425803308257562   0.682627061249208 1
ion Bi   0.487309258115260   0.358902811845372   0.469285454113915 1
ion Bi   0.011832664875906   0.384349147723582   0.987801964795888 1
ion Bi   0.228696165002588   0.566024468781076   0.307198183443296 1
ion Bi   0.016261033078016   0.644204552933793   0.549571284134917 1
ion Bi   0.251100698342817   0.672337830341001   0.805249256692633 1
ion Bi   0.488401660956377   0.602302834681196   0.046650873886503 1
ion Bi   0.245341375503630   0.830776722816133   0.173514641683190 1
ion Bi   0.267759402875610   0.927001572402374   0.709923549092648 1
ion Bi   0.475615984225855   0.854983001180482   0.450448298225135 1
ion Bi   0.022403380382735   0.891266253578109   0.968216901336398 1
ion Bi   0.738401744613938   0.058212636940010   0.299241426272173 1
ion Bi   0.539934341344616   0.130820281215970   0.531487109543660 1
ion Bi   0.765342044815589   0.202090387876888   0.826255539846086 1
ion Bi   0.989192269067281   0.102057975286463   0.035507510465255 1
ion Bi   0.738420285151400   0.322040821048141   0.184702704750381 1
ion Bi   0.756891941273641   0.425185495602782   0.689836259048038 1
ion Bi   0.982098300861669   0.366370364104682   0.466999248966767 1
ion Bi   0.530140766358687   0.391081139671854   0.964804725444064 1
ion Bi   0.746064846554041   0.560596075550725   0.315000014090600 1
ion Bi   0.500545102132227   0.645326984501601   0.541622737185510 1
ion Bi   0.765535044022819   0.684173623616829   0.811481774980297 1
ion Bi   0.975447554565570   0.609496892916534   0.048807710320989 1
ion Bi   0.743330703672007   0.816484043755834   0.174337119302098 1
ion Bi   0.742125053306373   0.929063894783978   0.690189142921842 1
ion Bi   0.985147139581953   0.867489089849073   0.452288650316678 1
ion Bi   0.527245994842037   0.875412501729165   0.960511012116757 1
ion O   0.393613895573949   0.097624633047964   0.761810232326967 1
ion O   0.354901567960639   0.225414959269890   0.076470233828807 1
ion O   0.340539216019196   0.447836286476526   0.986038303382721 1
ion O   0.382742672829696   0.480899253063910   0.430443420537797 1
ion O   0.107935255711577   0.164295639395978   0.257595501859660 1
ion O   0.144694486743370   0.264787044204298   0.919770511903923 1
ion O   0.340114286110836   0.189103626422356   0.516680458928418 1
ion O   0.108457922375958   0.408092298064321   0.219366269414009 1
ion O   0.139825530648757   0.305107729593942   0.473412229434438 1
ion O   0.398649695493425   0.353752745815263   0.720110611571654 1
ion O   0.164403463019262   0.058094714949685   0.020489911292738 1
ion O   0.139405880643753   0.014523926601900   0.575000472880530 1
ion O   0.379454370226266   0.594740051965582   0.783865377816913 1
ion O   0.370187134840440   0.730286957305993   0.074729971650304 1
ion O   0.341225431967900   0.946111516648820   0.977513224451803 1
ion O   0.359971207362992   0.962551953608603   0.422168044160419 1
ion O   0.109993807616235   0.654472690174259   0.281687640383941 1
ion O   0.129850938864665   0.772052393414106   0.910541996465670 1
ion O   0.346422991033445   0.701729879995412   0.510775605164027 1
ion O   0.157287957210926   0.817649601511927   0.474302443821330 1
ion O   0.386427979752069   0.843145651205188   0.718820650189524 1
ion O   0.155730934011920   0.558245927402733   0.023538104459594 1
ion O   0.127365043345730   0.520235188104939   0.583824345555600 1
ion O   0.892392538770830   0.083463255824031   0.779803729992622 1
ion O   0.884904281094812   0.228989768688191   0.100323250579552 1
ion O   0.840952006565088   0.442752319607388   0.971317967804248 1
ion O   0.872814651914853   0.482475882673552   0.429073577648177 1
ion O   0.611126660522222   0.152849675083540   0.276894818150881 1
ion O   0.621358803995375   0.281408416992788   0.905687841975497 1
ion O   0.839176866250549   0.179992076861112   0.522620356744228 1
ion O   0.607947394780001   0.400125423285124   0.222612797578617 1
ion O   0.657953583233707   0.300647497953145   0.480818440657336 1
ion O   0.892910262605291   0.335087016012911   0.717860853123457 1
ion O   0.642013003395984   0.044981458421045   0.024171974603048 1
ion O   0.643794482398015   0.014389419674003   0.572910329647844 1
ion O   0.880477594728186   0.595276336218999   0.789705970199718 1
ion O   0.882768548129672   0.750959804810850   0.086706282229805 1
ion O   0.844129330457856   0.937330054333467   1.001640114273918 1
ion O   0.888114415657905   0.972612446128228   0.420112236089645 1
ion O   0.606557149190688   0.660275373545621   0.277117103008854 1
ion O   0.627943115132592   0.774346243048562   0.914731149604261 1
ion O   0.843748215726699   0.696051757672098   0.533057980084709 1
ion O   0.608581314097407   0.898807608507957   0.222791244223718 1
ion O   0.651633116775818   0.802471519337150   0.471623637059397 1
ion O   0.890093480857515   0.858366471112525   0.724715721826906 1
ion O   0.654009272022373   0.552898286621258   0.014509102600554 1
ion O   0.638889209306248   0.524933142740151   0.593187555451252 1

# Forces in Lattice coordinates:
force Bi   0.219220214428878   0.584188113831122   0.043197488661989 1
force Bi  -0.513998109381245   0.173830173773041   0.072872322570884 1
force Bi  -0.770326672517859   1.097707553597891   0.094326166369479 1
force Bi   0.414025426562415  -0.715198011961238  -0.072173927199690 1
force Bi   1.417766054383556  -1.301368539761687  -0.110741389036631 1
force Bi  -0.192396671476205   0.089534293081353   0.156093322718903 1
force Bi  -0.331614401246655   0.089443176493677   0.096741092046112 1
force Bi  -0.027985815681357   0.172447423674919  -0.572114017640640 1
force Bi  -0.248805318884004   0.842188373424260  -0.043320733708187 1
force Bi   0.023178976502157   0.290308346915767  -0.186374610709796 1
force Bi   0.356895521123337  -0.255845342463637   0.193942415968036 1
force Bi  -0.260985208176894   0.160460807715452  -0.101642341393863 1
force Bi  -0.040986027262563  -0.229313406484247  -0.040700755289557 1
force Bi   0.073545077871776  -0.503194075290569  -0.188717193333392 1
force Bi  -0.120360355232131   0.276767270494746   0.113356503813074 1
force Bi  -0.215849041314832  -0.183098663567723  -0.213042156694430 1
force Bi  -0.234222227374278   0.399456135222005  -0.197756714344678 1
force Bi  -0.007308088012503   0.150664398413831  -0.063835669709269 1
force Bi   0.481176419339993  -1.585357939084162  -0.074096977563739 1
force Bi  -0.242603848121979   0.439675832608846  -0.222301186992524 1
force Bi  -0.146740593203561  -0.122654087058427   0.273739597408950 1
force Bi   0.111396379460618   0.324501600933454  -0.057174463094942 1
force Bi   0.076437401305031  -0.403224756721929   0.172890844593865 1
force Bi  -0.660440673667970   0.204180398892625  -0.029669556070691 1
force Bi  -0.735971529815184   0.832663958836921   0.300691906261667 1
force Bi   0.600713071231052  -0.519050411218776  -0.153787983249641 1
force Bi   0.227947906472718  -0.284440029692012  -0.343410445003540 1
force Bi   0.204038955800208   0.020658959105617  -0.191507487716641 1
force Bi  -0.371524382623409   0.199206913951151   0.355840133909746 1
force Bi   0.950594028584989  -0.399288464405932   0.000992946890759 1
force Bi  -0.188509343284306  -0.161351635569329   0.456495837769378 1
force Bi  -0.402328942768765   0.594458693583725   0.219107810125695 1
force O   0.535892492931443  -0.530765953223874   0.301759361204594 1
force O   0.543575135976781  -0.067698746192155  -0.327808329123493 1
force O   0.433544727324641  -0.261150264283024   0.289830302077786 1
force O  -0.182506194214584   0.228594229180415   0.258021658325565 1
force O   0.024071094910706  -0.336084859930860   0.378005001250471 1
force O  -0.453922399557113   0.167057859571569   0.276526935349066 1
force O   0.318958991796462  -0.213740524829284  -0.489325836232216 1
force O  -0.489960441451703   0.558629024499115   0.276279735414910 1
force O  -0.433540109382461   0.463207116902873   0.412478349819506 1
force O   0.294319442011572  -0.420434544380429  -0.055541179807740 1
force O  -0.455379298050582  -0.132770103568905  -0.344267204015430 1
force O  -0.254601021228120  -0.090768731238508  -0.110475368633234 1
force O   0.118160512974826   0.029614765169296  -0.106783555727810 1
force O  -0.258220726335974   0.525389458270897  -0.180311870871357 1
force O   0.218267462973933   0.012966377001455   0.472731704097465 1
force O   0.097960972603271   0.726998898621888   0.092743847095613 1
force O  -0.075863090206563  -0.110145979587510   0.133379193525603 1
force O  -0.047218852907677  -0.215063709780757   0.266218592576307 1
force O   0.399628070137283  -0.755959206776794  -0.294019127319026 1
force O  -0.607706071718426   0.010214584115444   0.272736524212518 1
force O   0.180215099920394  -0.069426826114450  -0.006184509509999 1
force O  -0.642382558331605   0.325790467743158  -0.313015543910042 1
force O  -0.048299997408493  -0.281496654766852  -0.371368946399268 1
force O   0.002817818222729   0.159781666921227  -0.134156655332091 1
force O  -0.260474584330861   0.508185453890586  -0.320718899090187 1
force O   0.516996361156026  -0.414634317148548   0.489625597230183 1
force O  -0.217319216839512   0.400062194115443   0.164900838478064 1
force O   0.015770748269135  -0.141965810083505  -0.071475532506634 1
force O   0.348119245276696  -0.627066378200722   0.207821716503758 1
force O   0.562418848260087  -0.119187310748130  -0.320166548868694 1
force O   0.206937321632977   0.056186406913459   0.005654230538948 1
force O  -0.368116108523561   0.317414907805907   0.340383939193811 1
force O   0.010995136005064   0.480032158478584   0.085797826545576 1
force O  -0.248521293706104   0.474556070847148  -0.242583276978405 1
force O  -0.450959993305448   0.121793257320862  -0.452742124146024 1
force O   0.249129471141518  -0.001900059067919   0.024562239886810 1
[...]
force Bi   0.004618030651158  -0.000959591090496   0.000844805290657 1
force Bi   0.000132137155486   0.005748542145187   0.000186551433615 1
force Bi   0.004796378401905   0.000734867222316  -0.004538138000925 1
force Bi  -0.001780891025750   0.007545888529677  -0.001957768706739 1
force Bi  -0.000590862925761  -0.002871201116537   0.002006623097864 1
force Bi   0.005185711057575  -0.007935829398386  -0.000556118516383 1
force Bi   0.002454660302003  -0.003967093745951   0.001543578473372 1
force Bi   0.000552353218930  -0.001020524404824   0.002458130936801 1
force Bi  -0.000603229521893  -0.001798415025014   0.001814029419156 1
force Bi   0.004007843836727  -0.001280349299245   0.002428074290326 1
force Bi   0.002100084306378  -0.002472768534544  -0.001575039421002 1
force Bi  -0.004626376025766   0.000288234828426  -0.001295937849415 1
force Bi   0.004099583929333  -0.002704264110346  -0.000633189086789 1
force O  -0.001264303514831  -0.001280471444413  -0.000312856289503 1
force O  -0.001327074324506   0.000286616227695  -0.006181772342929 1
force O   0.000433233362364   0.005240688353691  -0.000089056528301 1
force O  -0.000825399595742  -0.001662824761572   0.000289673588080 1
force O  -0.002293035273845  -0.000584918138621  -0.000320135548365 1
force O  -0.001896100533199   0.000070198946745  -0.002967592675265 1
force O   0.002198766199574  -0.004593893662113   0.000823590232139 1
force O  -0.003413647118379   0.004519905560460  -0.002083138887793 1
force O   0.002075314856894  -0.001932099914278   0.000860985889949 1
force O  -0.000997108242328  -0.000832695200579  -0.000938978767773 1
force O  -0.002221815593883   0.003125451960878  -0.002675022585831 1
force O   0.001690799584834  -0.003660564147818   0.001577186696935 1
force O  -0.000609962108006  -0.000244587044332   0.001600132543821 1
force O  -0.000026645797115   0.002682558119961   0.002522096789574 1
force O   0.000691213827850   0.000734131910683  -0.000963219769849 1
force O  -0.001084540001409  -0.001084611959246  -0.000103529058045 1
force O   0.001930439238039   0.000556186845708   0.000916862181094 1
force O   0.000620824422721   0.001970530064870   0.000004816003248 1
force O  -0.000772034521749   0.003496508234459  -0.000613498277702 1
force O   0.002132443767156  -0.001634474770714   0.000946837118321 1
force O  -0.000782586502226  -0.000688894725078  -0.001251542451320 1
force O   0.000707711684759   0.001695930959993   0.000405583449763 1
force O   0.002142301452916   0.000552777240758  -0.001930201342503 1
force O  -0.002796947801868  -0.000693462488213  -0.001367086881483 1
force O   0.001327950337175  -0.002927136895533  -0.000281010035333 1
force O   0.001111344473006  -0.001563275639283  -0.001841725385363 1
force O  -0.002991458989626   0.002181616421378   0.001367747048296 1
force O  -0.001126115490363  -0.001964005204566   0.001751312775232 1
force O  -0.001451701899651   0.000300381191837  -0.002233808678010 1
force O  -0.001998920502291  -0.001262371582964  -0.000709037184867 1
force O  -0.000763523893292  -0.000153530466235  -0.002156625304532 1
force O   0.002689381410039  -0.005433439491830   0.000481492796345 1
force O   0.001844425797104  -0.003279341874370  -0.000643966439640 1
force O   0.001585890649759  -0.000994779509986  -0.001000949744882 1
force O   0.001546771911498  -0.002264501402829   0.001998246965626 1
force O  -0.001814191328247   0.000299342719221   0.000039659554518 1
force O   0.001618052436695  -0.001827360842403   0.002090957645569 1
force O  -0.002616293364851   0.001261391153551  -0.002714541755241 1
force O  -0.001529177026751   0.001325555927614   0.000786572826019 1
force O  -0.002103145488004   0.003569593766815   0.000553339033033 1
force O  -0.001144883678058   0.004140323081878  -0.001688310049045 1
force O  -0.001119381904634   0.003909127275691   0.002420581385672 1
force O  -0.001396537855475   0.002538599157816  -0.000165622073842 1
force O   0.000281630492964   0.000111378607758  -0.001312809653102 1
force O  -0.001824203560118  -0.000268816259974  -0.000768327489344 1
force O  -0.000063133897160   0.003616924964994   0.001085679554683 1
force O   0.000198782343752  -0.001407956642565   0.003559431597293 1

# Energy components:
   Eewald =    -2347.7816520529777335
       EH =      716.0958524696438872
     Eloc =    -2298.3153223527961018
      Enl =      866.5847164749782223
      Exc =    -1198.1049689425544784
 Exc_core =      661.9337917850425583
       KE =      544.3684011791202693
-------------------------------------
     Etot =    -3055.2191814395437177
       TS =        0.0333879218817838
-------------------------------------
        F =    -3055.2525693614256852

IonicMinimize: Iter:  26  F: -3055.252569361425685  |grad|_K:  1.157e-04  alpha:  1.000e+00  linmin:  1.549e-01  t[s]: 126948.65

#--- Lowdin population analysis ---
# oxidation-state Bi +1.206 +1.329 +1.310 +1.329 +1.316 +1.312 +1.332 +1.331 +1.320 +1.326 +1.304 +1.329 +0.975 +1.311 +1.323 +1.113 +1.312 +1.333 +1.310 +1.329 +1.312 +1.313 +1.331 +1.332 +1.315 +1.330 +1.305 +1.326 +1.313 +1.307 +1.214 +1.329
# oxidation-state O -0.812 -0.805 -0.820 -0.807 -0.811 -0.805 -0.806 -0.814 -0.821 -0.814 -0.819 -0.800 -0.815 -0.796 -0.815 -0.804 -0.802 -0.802 -0.812 -0.816 -0.812 -0.820 -0.806 -0.812 -0.806 -0.821 -0.806 -0.812 -0.806 -0.822 -0.813 -0.823 -0.814 -0.822 -0.804 -0.812 -0.806 -0.818 -0.805 -0.813 -0.806 -0.822 -0.809 -0.824 -0.787 -0.818 -0.804


-------- Electronic minimization -----------
Will mix electronic density at each iteration.
	FillingsUpdate:  mu: +0.418286092  nElectrons: 762.000000
	FillingsUpdate:  mu: +0.418365134  nElectrons: 762.000000
SCF: Cycle:  0   F: -3055.252532198099743   dF: +3.237e-05   |Residual|: 2.678e-03   |deigs|: 5.291e-08  t[s]: 127310.77
	FillingsUpdate:  mu: +0.418339358  nElectrons: 762.000000
SCF: Cycle:  1   F: -3055.252568804007751   dF: -3.661e-05   |Residual|: 1.972e-03   |deigs|: 1.464e-05  t[s]: 127527.60
	FillingsUpdate:  mu: +0.418332906  nElectrons: 762.000000
SCF: Cycle:  2   F: -3055.252572489497197   dF: -3.685e-06   |Residual|: 5.218e-04   |deigs|: 5.471e-06  t[s]: 127735.82
	FillingsUpdate:  mu: +0.418315801  nElectrons: 762.000000
SCF: Cycle:  3   F: -3055.252577464014394   dF: -4.975e-06   |Residual|: 3.003e-04   |deigs|: 1.085e-05  t[s]: 127950.84
	FillingsUpdate:  mu: +0.418311062  nElectrons: 762.000000
SCF: Cycle:  4   F: -3055.252578344795893   dF: -8.808e-07   |Residual|: 2.071e-04   |deigs|: 3.200e-06  t[s]: 128167.28
	FillingsUpdate:  mu: +0.418306476  nElectrons: 762.000000
SCF: Cycle:  5   F: -3055.252578771189292   dF: -4.264e-07   |Residual|: 9.261e-05   |deigs|: 4.296e-06  t[s]: 128403.46
	FillingsUpdate:  mu: +0.418304070  nElectrons: 762.000000
SCF: Cycle:  6   F: -3055.252578830238235   dF: -5.905e-08   |Residual|: 4.765e-05   |deigs|: 1.570e-06  t[s]: 128617.40
	FillingsUpdate:  mu: +0.418303247  nElectrons: 762.000000
SCF: Cycle:  7   F: -3055.252578840259957   dF: -1.002e-08   |Residual|: 3.132e-05   |deigs|: 4.987e-07  t[s]: 128841.14
	FillingsUpdate:  mu: +0.418302988  nElectrons: 762.000000
SCF: Cycle:  8   F: -3055.252578842594176   dF: -2.334e-09   |Residual|: 8.339e-06   |deigs|: 1.957e-07  t[s]: 129054.46
	FillingsUpdate:  mu: +0.418302985  nElectrons: 762.000000
SCF: Cycle:  9   F: -3055.252578842883850   dF: -2.897e-10   |Residual|: 5.354e-06   |deigs|: 6.743e-08  t[s]: 129235.40
SCF: Converged (|Delta E|<1.000000e-08 for 2 iters).

Setting wave functions to eigenvectors of Hamiltonian

# Ionic positions in lattice coordinates:
ion Bi   0.240749362550978   0.064774733740323   0.314394893956864 1
ion Bi   0.020856243880403   0.137517800922766   0.545423741351720 1
ion Bi   0.259878207326425   0.182488353135003   0.812277297408363 1
ion Bi   0.480032739197360   0.111020671034387   0.045721515252241 1
ion Bi   0.240230810635572   0.315413251953541   0.190032786122996 1
ion Bi   0.260981699635742   0.433619886024835   0.687887096538020 1
ion Bi   0.481110585667003   0.363012320954381   0.453610681168925 1
ion Bi   0.020899266894696   0.386537886707083   0.954531894630320 1
ion Bi   0.239938247761667   0.567938929791615   0.309231054949770 1
ion Bi   0.020794844200984   0.638334160521821   0.544902270324248 1
ion Bi   0.259538365388679   0.683375456110451   0.812791958671309 1
ion Bi   0.478636470302207   0.610600605630594   0.044993252727511 1
ion Bi   0.232219462326511   0.820161570359194   0.190929261562418 1
ion Bi   0.260409578467774   0.932736177947860   0.693497727799324 1
ion Bi   0.475718170547205   0.858564894744026   0.452916487559782 1
ion Bi   0.018565696934742   0.886168094601484   0.963325482852677 1
ion Bi   0.739548629853714   0.064410923440628   0.309849400431659 1
ion Bi   0.521224703545309   0.136337454821446   0.545195989885738 1
ion Bi   0.759875425077515   0.182766239909918   0.811628988093807 1
ion Bi   0.979501046334875   0.111117866541445   0.045677705530485 1
ion Bi   0.740145132467759   0.315550180033912   0.189418073233324 1
ion Bi   0.761116493482322   0.432985154697342   0.689192973329054 1
ion Bi   0.980561309418359   0.361973940560036   0.453250100062927 1
ion Bi   0.520346767228118   0.386438879448542   0.953959391238582 1
ion Bi   0.740621363762882   0.566536580427071   0.310317727087858 1
ion Bi   0.520917487316045   0.636987686170999   0.546759925851478 1
ion Bi   0.759716697424198   0.682472510948803   0.812766869926976 1
ion Bi   0.979665456949667   0.610687425778272   0.044747447103886 1
ion Bi   0.737299804917351   0.814202441360145   0.193378346617255 1
ion Bi   0.758945168191726   0.934017349303644   0.687376973501207 1
ion Bi   0.981303341410861   0.863061474662729   0.460467334250826 1
ion Bi   0.517853700024493   0.884860092492437   0.956731623381956 1
ion O   0.388739480122722   0.101777396488900   0.794479668058782 1
ion O   0.364735616520997   0.241422213201836   0.034520572230801 1
ion O   0.382097284835711   0.436977617357430   1.050132559984201 1
ion O   0.364311369717535   0.492362342494779   0.464226715749154 1
ion O   0.113636187773894   0.144992931437958   0.294977297947109 1
ion O   0.135841584859585   0.255483453073045   0.966484765308955 1
ion O   0.382184123500776   0.185596621761501   0.440981398931501 1
ion O   0.112735630475421   0.396530176622475   0.204700989898870 1
ion O   0.118271377575510   0.310978756264588   0.549276990933524 1
ion O   0.388023853233435   0.352081709306623   0.703976004869912 1
ion O   0.117973187385597   0.059105735451435  -0.049313351780843 1
ion O   0.137039830898667   0.008243161018918   0.537629842611308 1
ion O   0.389282079945658   0.601809683693507   0.794652933907175 1
ion O   0.362444801966165   0.742005237229965   0.036876576523718 1
ion O   0.381438344123528   0.938191132176894   1.050938500261690 1
ion O   0.364883240398389   0.991954276078879   0.469472561258863 1
ion O   0.112662412155401   0.650358974179786   0.294213033487391 1
ion O   0.134073994652782   0.754924844056853   0.960682511527258 1
ion O   0.382442561368297   0.687823578983655   0.451352282475488 1
ion O   0.124488722170372   0.813147662865901   0.540215970840268 1
ion O   0.386652904239789   0.851647656653156   0.706511456347474 1
ion O   0.118140676528924   0.559603276102854  -0.048776524819862 1
ion O   0.134650933871060   0.507633562087348   0.531303114826404 1
ion O   0.887545740142616   0.101378466479174   0.794570114310945 1
ion O   0.864515736276718   0.241193949279172   0.034583072397321 1
ion O   0.882143560753359   0.436828577470508   1.050901648655561 1
ion O   0.864960562292780   0.493660253937299   0.465766272024728 1
ion O   0.612131284929510   0.144229628249670   0.295119996981933 1
ion O   0.635886625345460   0.256656996870906   0.966535216274719 1
ion O   0.882849796669492   0.186958238232003   0.446359820073000 1
ion O   0.613263553314996   0.397871965932779   0.204716541178487 1
ion O   0.616958333689059   0.310126891697499   0.549980731560164 1
ion O   0.889255821570722   0.353040827052993   0.704111428899546 1
ion O   0.618267543084248   0.060489478167709  -0.050332353604044 1
ion O   0.638799621027468   0.006430511658695   0.536560346443721 1
ion O   0.886466347280349   0.601055124289315   0.795001059842431 1
ion O   0.862879486419076   0.740345802535420   0.036821247874709 1
ion O   0.879257711368955   0.937509779665905   1.052317341582967 1
ion O   0.867010801329747   0.989558193591354   0.466663270121095 1
ion O   0.611215063346818   0.646024066317563   0.294472743211294 1
ion O   0.634793908200800   0.755848632453472   0.968844984260329 1
ion O   0.882194685774070   0.690657401389611   0.451905269940993 1
ion O   0.608875999946166   0.894427844718434   0.207543927387753 1
ion O   0.618227764555483   0.809987538831844   0.549406507052529 1
ion O   0.901987165692510   0.856173076345556   0.710798491384961 1
ion O   0.617781915820852   0.560543110222140  -0.052442831393642 1
ion O   0.635158493725389   0.506450651245960   0.532743009755855 1

# Forces in Lattice coordinates:
force Bi  -0.001348730164940  -0.000573441379540  -0.000236345526393 1
force Bi   0.000523056035460   0.000506386269885  -0.000805790560639 1
force Bi  -0.001598794005750   0.001720929792279  -0.001764026002268 1
force Bi  -0.000891738705613   0.000358589619215  -0.000259737937937 1
force Bi  -0.001328907272459   0.002167173746859   0.000977298299395 1
force Bi   0.000510618936369   0.000090290067606  -0.000731797359504 1
force Bi   0.001272302231239  -0.000318903332481  -0.001750301453430 1
force Bi   0.001382895668029   0.003582203032941  -0.000827128153001 1
force Bi  -0.000150700204067  -0.001164067506949   0.000004014842867 1
force Bi   0.001344324999326   0.000411142411745   0.001098151762710 1
force Bi  -0.001300929912946   0.000325242747038  -0.000057820673874 1
force Bi   0.002929865330920  -0.003365467332017   0.000910453107709 1
force Bi   0.002181862546679  -0.002620561041559  -0.000338935577445 1
force Bi  -0.002224209047861  -0.000495562015851   0.001043341199771 1
force Bi   0.001046794392376  -0.002706313002303   0.000838067052560 1
force Bi   0.000257132473781   0.002270696391804   0.000732632498154 1
force Bi  -0.000344014452308  -0.001003448871317   0.001191633879058 1
force Bi  -0.000150467761159  -0.000500337765395   0.001039249359275 1
force Bi  -0.000250299353846   0.001169901864559   0.000195988425354 1
force Bi   0.001571674811918   0.000726225320134  -0.000892952825659 1
force Bi   0.000015541684217   0.001101611040237  -0.000615529690949 1
force Bi  -0.000556465342121   0.001183305194889  -0.000634026883942 1
force Bi   0.001617061736932   0.000330361458238  -0.001355452208267 1
force Bi   0.000332561290797  -0.000889141052618  -0.000761793434461 1
force Bi   0.000522033107821  -0.001135134386508   0.000917676542785 1
force Bi   0.002228728720107  -0.002166058229303  -0.000122618166769 1
force Bi   0.000691851787655   0.000068057447159   0.001448559127146 1
force Bi  -0.000389145002098   0.001472532352263   0.000393811866266 1
force Bi   0.001188263913937  -0.000927098893549   0.001416402633518 1
force Bi   0.000498005230635  -0.000638762271122   0.000289048669367 1
force Bi  -0.000354586098986  -0.002091246295330  -0.000010554804075 1
force Bi   0.000683354885346   0.000637164955739   0.000038229031444 1
force O  -0.001754074559024   0.000087597460487   0.000505096967073 1
force O  -0.000742887209863   0.001526027554172  -0.002679430174141 1
force O   0.000436319044072   0.002050519705575   0.000623585196913 1
force O  -0.000737333683818  -0.000960910457657  -0.000113809591197 1
force O  -0.001604914413794   0.000196163666710  -0.000413429116134 1
force O   0.000007421676581   0.001237355639003  -0.000272754295682 1
force O   0.000440280831993  -0.000661050288931  -0.000018557183404 1
force O  -0.001196601518852   0.001824771856788  -0.000963283745036 1
force O  -0.000076722761170   0.001115917798809  -0.000167960247374 1
force O  -0.000434279069142  -0.000165557962215  -0.001423919485664 1
force O  -0.002422402111442   0.002376149038887  -0.001950061267823 1
force O   0.000157317596253  -0.001546523395044   0.000246105171324 1
force O  -0.000199937014117  -0.000977481464486   0.000829486236746 1
force O  -0.000611887211940   0.001749324454989   0.001475703687571 1
force O   0.001664813162964  -0.000374706275928  -0.000532681862690 1
force O  -0.001391402387142  -0.000279581090326  -0.000352175481348 1
force O   0.000850447309459   0.000320475098231   0.000880371003749 1
force O  -0.000168617911640   0.000250318090217   0.000503692502253 1
force O   0.000844315162909   0.000063961252026   0.000161007315627 1
force O  -0.001019323181494  -0.001631204398642   0.000165618647398 1
force O  -0.000034609871214  -0.001837425120105  -0.000759664178426 1
force O  -0.000067397788160   0.000212944184873   0.000528148046833 1
force O   0.000099566514143   0.000383724624878   0.000312097137634 1
force O  -0.001570286237432  -0.000364859775051  -0.000923679682076 1
force O   0.000970626917863   0.000070507500374   0.000427979657340 1
force O   0.000137693042162  -0.000074539207474  -0.001104923418006 1
force O  -0.000509784265103   0.000401939389119  -0.001012316446613 1
force O  -0.000058175372550  -0.001574737720459   0.000753902713056 1
force O  -0.000753446294418   0.002592831985290  -0.000428746822168 1
force O  -0.000883779296882   0.001011569337464  -0.000768570323218 1
force O  -0.000329027636714  -0.000105780988811  -0.001089871816724 1
force O   0.000343288097681  -0.001956323298365  -0.000576056263277 1
force O   0.001519338944423  -0.001214025170589  -0.001337705644392 1
force O  -0.000278741579862   0.001120977144493  -0.000858364777338 1
force O   0.001780511772743  -0.002024447151357   0.001164476906111 1
force O  -0.000588312755338  -0.000575468417682   0.000803176147579 1
force O   0.000759427812713  -0.001889942139767   0.002030212228088 1
force O  -0.002899987731827   0.002350600578314  -0.001966399156752 1
force O  -0.000517729809726   0.000333957808434  -0.000289361536171 1
force O   0.000361441195368   0.000346595179428   0.000809226620817 1
force O   0.000021493162623   0.002714874154063  -0.000598092263211 1
force O  -0.000294597908799   0.000418148337206   0.001388796798845 1
force O  -0.000216353560519   0.001099396989893  -0.000366093113888 1
force O   0.001150843091883  -0.002003335706283  -0.000766663256571 1
force O  -0.001199548865593  -0.000632915803634  -0.000384077362214 1
force O   0.000904543918169   0.001192211669190   0.000801450680395 1
force O   0.000526272111769  -0.001771019425182   0.001248616834446 1

# Energy components:
   Eewald =    -2347.7818920783538488
       EH =      716.0961681095268432
     Eloc =    -2298.3149309657051163
      Enl =      866.5845266755125067
      Exc =    -1198.1046969176848052
 Exc_core =      661.9337919586314456
       KE =      544.3678744621579426
-------------------------------------
     Etot =    -3055.2191587559150321
       TS =        0.0334200869689370
-------------------------------------
        F =    -3055.2525788428838496

IonicMinimize: Iter:  27  F: -3055.252578842883850  |grad|_K:  5.423e-05  alpha:  1.000e+00  linmin: -5.395e-01  t[s]: 129294.69
IonicMinimize: Converged (|grad|_K<1.000000e-04).

#--- Lowdin population analysis ---
# oxidation-state Bi +1.205 +1.329 +1.310 +1.329 +1.315 +1.312 +1.332 +1.331 +1.320 +1.326 +1.304 +1.329 +0.976 +1.312 +1.323 +1.113 +1.312 +1.333 +1.310 +1.329 +1.312 +1.313 +1.331 +1.332 +1.314 +1.330 +1.305 +1.326 +1.312 +1.307 +1.213 +1.329
# oxidation-state O -0.812 -0.805 -0.820 -0.807 -0.811 -0.805 -0.807 -0.814 -0.821 -0.814 -0.819 -0.800 -0.815 -0.796 -0.815 -0.804 -0.802 -0.802 -0.812 -0.816 -0.812 -0.820 -0.806 -0.812 -0.806 -0.821 -0.806 -0.812 -0.806 -0.822 -0.813 -0.823 -0.814 -0.822 -0.804 -0.812 -0.806 -0.818 -0.805 -0.813 -0.806 -0.822 -0.809 -0.824 -0.787 -0.818 -0.804


Dumping '/data/rc652/Bi2O3/vac/Bi2O3_vac.Ecomponents' ... done
End date and time: Thu Jul  4 14:40:10 2024  (Duration: 1-11:55:33.11)
Done!
