--------------------------------------------------------------------------
[[59621,1],4]: A high-performance Open MPI point-to-point messaging module
was unable to find any relevant network interfaces:

Module: OpenFabrics (openib)
  Host: node3217

Another transport will be used instead, although this may result in
lower performance.
--------------------------------------------------------------------------

*************** JDFTx 1.7.0 (git hash 3664913) ***************

Start date and time: Wed Jul  3 02:42:42 2024
Executable jdftx with command-line: -i Bi2O3_ion.in
Running on hosts (process indices):  node3217.physics.cornell.edu (0-15)
Divided in process groups (process indices):  0 (0)  1 (1)  2 (2)  3 (3)  4 (4)  5 (5)  6 (6)  7 (7)  8 (8)  9 (9)  10 (10)  11 (11)  12 (12)  13 (13)  14 (14)  15 (15)
Resource initialization completed at t[s]:      0.00
Run totals: 16 processes, 32 threads, 0 GPUs


Input parsed successfully to the following command list (including defaults):

basis kpoint-dependent
coords-type Lattice
core-overlap-check vector
coulomb-interaction Periodic
davidson-band-ratio 1.1
dump End Ecomponents
dump-name /data/rc652/Bi2O3/ion/Bi2O3_ion.$VAR
elec-cutoff 20 100
elec-eigen-algo Davidson
elec-ex-corr gga-PBEsol
elec-smearing Fermi 0.01
electronic-minimize  \
	dirUpdateScheme      FletcherReeves \
	linminMethod         DirUpdateRecommended \
	nIterations          100 \
	history              15 \
	knormThreshold       0 \
	maxThreshold         no \
	energyDiffThreshold  1e-08 \
	nEnergyDiff          2 \
	alphaTstart          1 \
	alphaTmin            1e-10 \
	updateTestStepSize   yes \
	alphaTreduceFactor   0.1 \
	alphaTincreaseFactor 3 \
	nAlphaAdjustMax      3 \
	wolfeEnergy          0.0001 \
	wolfeGradient        0.9 \
	fdTest               no
electronic-scf  \
	nIterations	50 \
	energyDiffThreshold	1e-08 \
	residualThreshold	1e-07 \
	mixFraction	0.5 \
	qMetric	0.8 \
	history	10 \
	nEigSteps	2 \
	eigDiffThreshold	1e-08 \
	mixedVariable	Density \
	qKerker	0.8 \
	qKappa	-1 \
	verbose	no \
	mixFractionMag	1.5
exchange-regularization WignerSeitzTruncated
fluid None
fluid-ex-corr lda-TF lda-PZ
fluid-gummel-loop 10 1.000000e-05
fluid-minimize  \
	dirUpdateScheme      PolakRibiere \
	linminMethod         DirUpdateRecommended \
	nIterations          100 \
	history              15 \
	knormThreshold       0 \
	maxThreshold         no \
	energyDiffThreshold  0 \
	nEnergyDiff          2 \
	alphaTstart          1 \
	alphaTmin            1e-10 \
	updateTestStepSize   yes \
	alphaTreduceFactor   0.1 \
	alphaTincreaseFactor 3 \
	nAlphaAdjustMax      3 \
	wolfeEnergy          0.0001 \
	wolfeGradient        0.9 \
	fdTest               no
fluid-solvent H2O 55.338 ScalarEOS \
	epsBulk 78.4 \
	pMol 0.92466 \
	epsInf 1.77 \
	Pvap 1.06736e-10 \
	sigmaBulk 4.62e-05 \
	Rvdw 2.61727 \
	Res 1.42 \
	tauNuc 343133 \
	poleEl 15 7 1
forces-output-coords Positions
ion Bi   0.230330000000000   0.059820000000000   0.340990000000000 1
ion Bi   0.023310000000000   0.141240000000000   0.529940000000000 1
ion Bi   0.270740000000000   0.159290000000000   0.805590000000000 1
ion Bi   0.463370000000000   0.122730000000000   0.043440000000000 1
ion Bi   0.206520000000000   0.327620000000000   0.182940000000000 1
ion Bi   0.274300000000000   0.425930000000000   0.679310000000000 1
ion Bi   0.490630000000000   0.359400000000000   0.466910000000000 1
ion Bi   0.011390000000000   0.383310000000000   0.998410000000000 1
ion Bi   0.228610000000000   0.561090000000000   0.308520000000000 1
ion Bi   0.015400000000000   0.642170000000000   0.552930000000000 1
ion Bi   0.248260000000000   0.672930000000000   0.801590000000000 1
ion Bi   0.490740000000000   0.602230000000000   0.048310000000000 1
ion Bi   0.246450000000000   0.832450000000000   0.173940000000000 1
ion Bi   0.268590000000000   0.930130000000000   0.713300000000000 1
ion Bi   0.476100000000000   0.853500000000000   0.448440000000000 1
ion Bi   0.024960000000000   0.893140000000000   0.972390000000000 1
ion Bi   0.739520000000000   0.056380000000000   0.302940000000000 1
ion Bi   0.539240000000000   0.129800000000000   0.532730000000000 1
ion Bi   0.765490000000000   0.210850000000000   0.827960000000000 1
ion Bi   0.990700000000000   0.100110000000000   0.040280000000000 1
ion Bi   0.740350000000000   0.323470000000000   0.179140000000000 1
ion Bi   0.754890000000000   0.422440000000000   0.691030000000000 1
ion Bi   0.982680000000000   0.368840000000000   0.463520000000000 1
ion Bi   0.536500000000000   0.391470000000000   0.965640000000000 1
ion Bi   0.751010000000000   0.557540000000000   0.309650000000000 1
ion Bi   0.496000000000000   0.646870000000000   0.544500000000000 1
ion Bi   0.763800000000000   0.685140000000000   0.818580000000000 1
ion Bi   0.973080000000000   0.608670000000000   0.052350000000000 1
ion Bi   0.746770000000000   0.816350000000000   0.167330000000000 1
ion Bi   0.733220000000000   0.928760000000000   0.689670000000000 1
ion Bi   0.987700000000000   0.869380000000000   0.443700000000000 1
ion Bi   0.529930000000000   0.872860000000000   0.955880000000000 1
ion O   0.390110000000000   0.099270000000000   0.756020000000000 1
ion O   0.349420000000000   0.224380000000000   0.081960000000000 1
ion O   0.337210000000000   0.447950000000000   0.980850000000000 1
ion O   0.383760000000000   0.479980000000000   0.426220000000000 1
ion O   0.108810000000000   0.166340000000000   0.250490000000000 1
ion O   0.148920000000000   0.265110000000000   0.915140000000000 1
ion O   0.337750000000000   0.189370000000000   0.525780000000000 1
ion O   0.111320000000000   0.406480000000000   0.214010000000000 1
ion O   0.142790000000000   0.303640000000000   0.466210000000000 1
ion O   0.396590000000000   0.355500000000000   0.721200000000000 1
ion O   0.169240000000000   0.060590000000000   0.026340000000000 1
ion O   0.142380000000000   0.015760000000000   0.576690000000000 1
ion O   0.378220000000000   0.594020000000000   0.786070000000000 1
ion O   0.370780000000000   0.727800000000000   0.077770000000000 1
ion O   0.339010000000000   0.945140000000000   0.968610000000000 1
ion O   0.356680000000000   0.957870000000000   0.421160000000000 1
ion O   0.111060000000000   0.655450000000000   0.279290000000000 1
ion O   0.131120000000000   0.773340000000000   0.906040000000000 1
ion O   0.344950000000000   0.705250000000000   0.515830000000000 1
ion O   0.105370000000000   0.910740000000000   0.216170000000000 1
ion O   0.163230000000000   0.819470000000000   0.469890000000000 1
ion O   0.384800000000000   0.843020000000000   0.718710000000000 1
ion O   0.161050000000000   0.558330000000000   0.029070000000000 1
ion O   0.128940000000000   0.522010000000000   0.590190000000000 1
ion O   0.891710000000000   0.082580000000000   0.782480000000000 1
ion O   0.885650000000000   0.226690000000000   0.105410000000000 1
ion O   0.837550000000000   0.443880000000000   0.962770000000000 1
ion O   0.873580000000000   0.480780000000000   0.426470000000000 1
ion O   0.611530000000000   0.153780000000000   0.278790000000000 1
ion O   0.619930000000000   0.284160000000000   0.902740000000000 1
ion O   0.834100000000000   0.179060000000000   0.528110000000000 1
ion O   0.605470000000000   0.399240000000000   0.222520000000000 1
ion O   0.660500000000000   0.299800000000000   0.474830000000000 1
ion O   0.891140000000000   0.331760000000000   0.716230000000000 1
ion O   0.642980000000000   0.043010000000000   0.028090000000000 1
ion O   0.648160000000000   0.014830000000000   0.581060000000000 1
ion O   0.877940000000000   0.594500000000000   0.789220000000000 1
ion O   0.881810000000000   0.752850000000000   0.091390000000000 1
ion O   0.839640000000000   0.936420000000000   0.998570000000000 1
ion O   0.889600000000000   0.969710000000000   0.418340000000000 1
ion O   0.608250000000000   0.663490000000000   0.278090000000000 1
ion O   0.627420000000000   0.776450000000000   0.910380000000000 1
ion O   0.838740000000000   0.695800000000000   0.540430000000000 1
ion O   0.609020000000000   0.899000000000000   0.225360000000000 1
ion O   0.654870000000000   0.800130000000000   0.460940000000000 1
ion O   0.885800000000000   0.859210000000000   0.726050000000000 1
ion O   0.655660000000000   0.551210000000000   0.017580000000000 1
ion O   0.638610000000000   0.528450000000000   0.598410000000000 1
ion-species GBRV/$ID_pbesol.uspp
ion-width 0
ionic-minimize  \
	dirUpdateScheme      L-BFGS \
	linminMethod         DirUpdateRecommended \
	nIterations          30 \
	history              15 \
	knormThreshold       0.0001 \
	maxThreshold         no \
	energyDiffThreshold  1e-06 \
	nEnergyDiff          2 \
	alphaTstart          1 \
	alphaTmin            1e-10 \
	updateTestStepSize   yes \
	alphaTreduceFactor   0.1 \
	alphaTincreaseFactor 3 \
	nAlphaAdjustMax      3 \
	wolfeEnergy          0.0001 \
	wolfeGradient        0.9 \
	fdTest               no
kpoint   0.500000000000   0.500000000000   0.500000000000  1.00000000000000
kpoint-folding 3 3 4 
latt-move-scale 1 1 1
latt-scale 1 1 1 
lattice  \
	  22.078756736136054  -10.797991864405642   -0.000000000000000  \
	   0.198108228965560   25.717610123310134   -0.000000000000000  \
	  -0.000000000000000   -0.000000000000000   15.143990300894858 
lattice-minimize  \
	dirUpdateScheme      L-BFGS \
	linminMethod         DirUpdateRecommended \
	nIterations          0 \
	history              15 \
	knormThreshold       0 \
	maxThreshold         no \
	energyDiffThreshold  1e-06 \
	nEnergyDiff          2 \
	alphaTstart          1 \
	alphaTmin            1e-10 \
	updateTestStepSize   yes \
	alphaTreduceFactor   0.1 \
	alphaTincreaseFactor 3 \
	nAlphaAdjustMax      3 \
	wolfeEnergy          0.0001 \
	wolfeGradient        0.9 \
	fdTest               no
lcao-params -1 1e-06 0.01
pcm-variant GLSSA13
perturb-minimize  \
	nIterations            0 \
	algorithm              MINRES \
	residualTol            0.0001 \
	residualDiffThreshold  0.0001 \
	CGBypass               no \
	recomputeResidual      no
spintype no-spin
subspace-rotation-factor 1 yes
symmetries automatic
symmetry-threshold 0.0001



---------- Setting up symmetries ----------

Found 4 point-group symmetries of the bravais lattice
Found 1 space-group symmetries with basis
Applied RMS atom displacement 0 bohrs to make symmetries exact.

---------- Initializing the Grid ----------
R = 
[      22.0788      -10.798            0  ]
[     0.198108      25.7176            0  ]
[            0            0       15.144  ]
unit cell volume = 8631.35
G =
[   0.283512   0.119038          0  ]
[ -0.00218396   0.243398          0  ]
[          0          0   0.414896  ]
Minimum fftbox size, Smin = [  100  128  72  ]
Chosen fftbox size, S = [  100  128  72  ]

---------- Initializing tighter grid for wavefunction operations ----------
R = 
[      22.0788      -10.798            0  ]
[     0.198108      25.7176            0  ]
[            0            0       15.144  ]
unit cell volume = 8631.35
G =
[   0.283512   0.119038          0  ]
[ -0.00218396   0.243398          0  ]
[          0          0   0.414896  ]
Minimum fftbox size, Smin = [  92  116  64  ]
Chosen fftbox size, S = [  96  120  64  ]

---------- Exchange Correlation functional ----------
Initalized PBEsol GGA exchange.
Initalized PBEsol GGA correlation.

---------- Setting up pseudopotentials ----------
Width of ionic core gaussian charges (only for fluid interactions / plotting) set to 0

Reading pseudopotential file '/home/rc652/build/pseudopotentials/GBRV/bi_pbesol.uspp':
  Title: Bi.  Created by USPP 7.3.6 on 16-12-2017
  Reference state energy: -92.043361.  15 valence electrons in orbitals:
    |520>  occupation: 10  eigenvalue: -1.293232
    |600>  occupation: 2  eigenvalue: -0.815623
    |610>  occupation: 2  eigenvalue: -0.421990
  lMax: 2  lLocal: 3  QijEcut: 5
  6 projectors sampled on a log grid with 747 points:
    l: 0  eig: -0.815622  rCut: 2.5
    l: 0  eig: 0.500000  rCut: 2.5
    l: 1  eig: -0.421989  rCut: 2.5
    l: 1  eig: 1.000000  rCut: 2.5
    l: 2  eig: -1.293232  rCut: 2.3
    l: 2  eig: -0.500000  rCut: 2.3
  Partial core density with radius 1
  Transforming core density to a uniform radial grid of dG=0.02 with 1492 points.
  Transforming local potential to a uniform radial grid of dG=0.02 with 1492 points.
  Transforming nonlocal projectors to a uniform radial grid of dG=0.02 with 432 points.
  Transforming density augmentations to a uniform radial grid of dG=0.02 with 1492 points.
  Transforming atomic orbitals to a uniform radial grid of dG=0.02 with 432 points.
  Core radius for overlap checks: 2.50 bohrs.

Reading pseudopotential file '/home/rc652/build/pseudopotentials/GBRV/o_pbesol.uspp':
  Title: O.  Created by USPP 7.3.6 on 3-2-2014
  Reference state energy: -15.849885.  6 valence electrons in orbitals:
    |200>  occupation: 2  eigenvalue: -0.873214
    |210>  occupation: 4  eigenvalue: -0.330058
  lMax: 2  lLocal: 2  QijEcut: 6
  5 projectors sampled on a log grid with 511 points:
    l: 0  eig: -0.873214  rCut: 1.25
    l: 0  eig: 0.000000  rCut: 1.25
    l: 1  eig: -0.330058  rCut: 1.25
    l: 1  eig: 0.000000  rCut: 1.25
    l: 2  eig: 1.000000  rCut: 1.25
  Partial core density with radius 0.7
  Transforming core density to a uniform radial grid of dG=0.02 with 1492 points.
  Transforming local potential to a uniform radial grid of dG=0.02 with 1492 points.
  Transforming nonlocal projectors to a uniform radial grid of dG=0.02 with 432 points.
  Transforming density augmentations to a uniform radial grid of dG=0.02 with 1492 points.
  Transforming atomic orbitals to a uniform radial grid of dG=0.02 with 432 points.
  Core radius for overlap checks: 1.25 bohrs.

Initialized 2 species with 80 total atoms.

Folded 1 k-points by 3x3x4 to 36 k-points.

---------- Setting up k-points, bands, fillings ----------
Adding inversion symmetry to k-mesh for non-inversion-symmetric unit cell.
Reduced to 18 k-points under symmetry. 
Computing the number of bands and number of electrons
Calculating initial fillings.
nElectrons: 768.000000   nBands: 480   nStates: 18

----- Setting up reduced wavefunction bases (one per k-point) -----
average nbasis = 36878.222 , ideal nbasis = 36873.776

---------- Setting up ewald sum ----------
Optimum gaussian width for ewald sums = 3.942345 bohr.
Real space sum over 441 unit cells with max indices [  3  3  4  ]
Reciprocal space sum over 7875 terms with max indices [  10  12  7  ]

---------- Allocating electronic variables ----------
Initializing wave functions:  linear combination of atomic orbitals
Bi pseudo-atom occupations:   s ( 2 )  p ( 3 )  d ( 10 )
O pseudo-atom occupations:   s ( 2 )  p ( 4 )
	FillingsUpdate:  mu: +0.737062184  nElectrons: 768.000000
LCAOMinimize: Iter:   0  F: -3053.3279958419930153  |grad|_K:  3.502e-03  alpha:  1.000e+00
	FillingsUpdate:  mu: +0.658819889  nElectrons: 768.000000
LCAOMinimize: Iter:   1  F: -3059.7076043611987188  |grad|_K:  3.013e-03  alpha:  1.195e-01  linmin: -4.158e-01  cgtest:  8.100e-01  t[s]:    293.71
LCAOMinimize: 	Predicted alpha/alphaT>3.000000, increasing alphaT to 3.583891e-01.
	FillingsUpdate:  mu: +0.544550654  nElectrons: 768.000000
LCAOMinimize: Iter:   2  F: -3064.9001715933191008  |grad|_K:  1.866e-03  alpha:  1.532e-01  linmin: -2.569e-01  cgtest:  6.416e-01  t[s]:    411.80
LCAOMinimize: Encountered beta<0, resetting CG.
	FillingsUpdate:  mu: +0.501196666  nElectrons: 768.000000
LCAOMinimize: Iter:   3  F: -3066.2416860009097945  |grad|_K:  1.663e-03  alpha:  1.957e-01  linmin:  6.839e-02  cgtest: -2.059e-01  t[s]:    509.17
	FillingsUpdate:  mu: +0.467668367  nElectrons: 768.000000
LCAOMinimize: Iter:   4  F: -3066.6314102980404641  |grad|_K:  1.202e-03  alpha:  7.664e-02  linmin: -3.144e-02  cgtest:  7.535e-01  t[s]:    605.37
LCAOMinimize: Encountered beta<0, resetting CG.
	FillingsUpdate:  mu: +0.443087277  nElectrons: 768.000000
LCAOMinimize: Iter:   5  F: -3066.8275881608792588  |grad|_K:  2.349e-04  alpha:  6.470e-02  linmin:  2.018e-02  cgtest: -1.685e-02  t[s]:    700.14
	FillingsUpdate:  mu: +0.443102738  nElectrons: 768.000000
LCAOMinimize: Iter:   6  F: -3066.8380830854443957  |grad|_K:  1.312e-04  alpha:  9.230e-02  linmin: -3.344e-03  cgtest:  1.074e-02  t[s]:    796.12
	FillingsUpdate:  mu: +0.444770947  nElectrons: 768.000000
LCAOMinimize: Iter:   7  F: -3066.8446517412080539  |grad|_K:  7.479e-05  alpha:  1.813e-01  linmin: -5.517e-03  cgtest: -1.914e-02  t[s]:    894.53
	FillingsUpdate:  mu: +0.444657926  nElectrons: 768.000000
LCAOMinimize: Iter:   8  F: -3066.8469129748568776  |grad|_K:  5.483e-05  alpha:  1.919e-01  linmin:  1.196e-03  cgtest: -2.208e-02  t[s]:    989.10
	FillingsUpdate:  mu: +0.443757045  nElectrons: 768.000000
LCAOMinimize: Iter:   9  F: -3066.8477608844818860  |grad|_K:  3.221e-05  alpha:  1.356e-01  linmin:  2.177e-04  cgtest:  2.105e-02  t[s]:   1087.07
	FillingsUpdate:  mu: +0.443636123  nElectrons: 768.000000
LCAOMinimize: Iter:  10  F: -3066.8480660231693946  |grad|_K:  1.831e-05  alpha:  1.414e-01  linmin:  9.723e-04  cgtest: -1.186e-03  t[s]:   1181.70
	FillingsUpdate:  mu: +0.443637008  nElectrons: 768.000000
LCAOMinimize: Iter:  11  F: -3066.8481616411827417  |grad|_K:  1.267e-05  alpha:  1.372e-01  linmin:  2.111e-04  cgtest:  2.754e-03  t[s]:   1276.31
	FillingsUpdate:  mu: +0.443613884  nElectrons: 768.000000
LCAOMinimize: Iter:  12  F: -3066.8482001547276923  |grad|_K:  7.103e-06  alpha:  1.152e-01  linmin:  1.100e-04  cgtest:  5.352e-04  t[s]:   1370.75
	FillingsUpdate:  mu: +0.443662400  nElectrons: 768.000000
LCAOMinimize: Iter:  13  F: -3066.8482138703211604  |grad|_K:  3.863e-06  alpha:  1.306e-01  linmin:  8.684e-05  cgtest: -2.345e-04  t[s]:   1469.69
	FillingsUpdate:  mu: +0.443679278  nElectrons: 768.000000
LCAOMinimize: Iter:  14  F: -3066.8482186026449199  |grad|_K:  2.308e-06  alpha:  1.523e-01  linmin:  2.480e-05  cgtest:  2.077e-04  t[s]:   1565.37
	FillingsUpdate:  mu: +0.443708294  nElectrons: 768.000000
LCAOMinimize: Iter:  15  F: -3066.8482203353773912  |grad|_K:  1.295e-06  alpha:  1.562e-01  linmin:  7.219e-06  cgtest: -2.754e-04  t[s]:   1659.46
	FillingsUpdate:  mu: +0.443708299  nElectrons: 768.000000
LCAOMinimize: Iter:  16  F: -3066.8482209343878822  |grad|_K:  8.017e-07  alpha:  1.714e-01  linmin:  2.408e-05  cgtest: -2.358e-04  t[s]:   1754.29
	FillingsUpdate:  mu: +0.443693474  nElectrons: 768.000000
LCAOMinimize: Iter:  17  F: -3066.8482211929244841  |grad|_K:  6.412e-07  alpha:  1.932e-01  linmin: -5.843e-05  cgtest:  5.918e-04  t[s]:   1848.00
LCAOMinimize: Converged (|Delta F|<1.000000e-06 for 2 iters).


---- Citations for features of the code used in this run ----

   Software package:
      R. Sundararaman, K. Letchworth-Weaver, K.A. Schwarz, D. Gunceler, Y. Ozhabes and T.A. Arias, 'JDFTx: software for joint density-functional theory', SoftwareX 6, 278 (2017)

   gga-PBEsol exchange-correlation functional:
      J.P. Perdew et al., Phys. Rev. Lett. 100, 136406 (2008)

   Pseudopotentials:
      KF Garrity, JW Bennett, KM Rabe and D Vanderbilt, Comput. Mater. Sci. 81, 446 (2014)

This list may not be complete. Please suggest additional citations or
report any other bugs at https://github.com/shankar1729/jdftx/issues

Initialization completed successfully at t[s]:   1901.57


-------- Electronic minimization -----------
Will mix electronic density at each iteration.
	FillingsUpdate:  mu: +0.443693474  nElectrons: 768.000000
	FillingsUpdate:  mu: +0.427495595  nElectrons: 768.000000
SCF: Cycle:  0   F: -3068.318578841937779   dF: -1.470e+00   |Residual|: 1.460e+00   |deigs|: 1.271e-02  t[s]:   2346.76
	FillingsUpdate:  mu: +0.386516897  nElectrons: 768.000000
SCF: Cycle:  1   F: -3069.330108878350984   dF: -1.012e+00   |Residual|: 6.007e-01   |deigs|: 3.251e-02  t[s]:   2764.74
	FillingsUpdate:  mu: +0.401448525  nElectrons: 768.000000
SCF: Cycle:  2   F: -3070.120931634483441   dF: -7.908e-01   |Residual|: 2.713e-01   |deigs|: 1.505e-02  t[s]:   3139.06
	FillingsUpdate:  mu: +0.397507140  nElectrons: 768.000000
SCF: Cycle:  3   F: -3070.155596109850194   dF: -3.466e-02   |Residual|: 1.562e-01   |deigs|: 3.756e-03  t[s]:   3511.09
	FillingsUpdate:  mu: +0.396972605  nElectrons: 768.000000
SCF: Cycle:  4   F: -3070.189767748286158   dF: -3.417e-02   |Residual|: 5.550e-02   |deigs|: 2.690e-03  t[s]:   3955.92
	FillingsUpdate:  mu: +0.396696668  nElectrons: 768.000000
SCF: Cycle:  5   F: -3070.193183275583124   dF: -3.416e-03   |Residual|: 3.216e-02   |deigs|: 4.908e-04  t[s]:   4286.45
	FillingsUpdate:  mu: +0.396670644  nElectrons: 768.000000
SCF: Cycle:  6   F: -3070.194534562549507   dF: -1.351e-03   |Residual|: 1.817e-02   |deigs|: 2.804e-04  t[s]:   4620.06
	FillingsUpdate:  mu: +0.396657786  nElectrons: 768.000000
SCF: Cycle:  7   F: -3070.195148338518266   dF: -6.138e-04   |Residual|: 5.569e-03   |deigs|: 1.123e-04  t[s]:   4843.39
	FillingsUpdate:  mu: +0.396625403  nElectrons: 768.000000
SCF: Cycle:  8   F: -3070.195202583796345   dF: -5.425e-05   |Residual|: 2.541e-03   |deigs|: 7.609e-05  t[s]:   5065.14
	FillingsUpdate:  mu: +0.396603758  nElectrons: 768.000000
SCF: Cycle:  9   F: -3070.195211050265243   dF: -8.466e-06   |Residual|: 1.513e-03   |deigs|: 5.861e-05  t[s]:   5286.14
	FillingsUpdate:  mu: +0.396599769  nElectrons: 768.000000
SCF: Cycle: 10   F: -3070.195214481562743   dF: -3.431e-06   |Residual|: 7.510e-04   |deigs|: 1.514e-05  t[s]:   5506.95
	FillingsUpdate:  mu: +0.396601389  nElectrons: 768.000000
SCF: Cycle: 11   F: -3070.195215406533407   dF: -9.250e-07   |Residual|: 3.178e-04   |deigs|: 4.516e-06  t[s]:   5727.74
	FillingsUpdate:  mu: +0.396601283  nElectrons: 768.000000
SCF: Cycle: 12   F: -3070.195215666884906   dF: -2.604e-07   |Residual|: 1.789e-04   |deigs|: 1.586e-06  t[s]:   5974.06
	FillingsUpdate:  mu: +0.396600170  nElectrons: 768.000000
SCF: Cycle: 13   F: -3070.195215812031165   dF: -1.451e-07   |Residual|: 1.003e-04   |deigs|: 1.317e-06  t[s]:   6231.24
	FillingsUpdate:  mu: +0.396600718  nElectrons: 768.000000
SCF: Cycle: 14   F: -3070.195215881076820   dF: -6.905e-08   |Residual|: 7.890e-05   |deigs|: 8.897e-07  t[s]:   6451.73
	FillingsUpdate:  mu: +0.396600048  nElectrons: 768.000000
SCF: Cycle: 15   F: -3070.195215928642483   dF: -4.757e-08   |Residual|: 4.035e-05   |deigs|: 5.470e-07  t[s]:   6670.99
	FillingsUpdate:  mu: +0.396600189  nElectrons: 768.000000
SCF: Cycle: 16   F: -3070.195215956473021   dF: -2.783e-08   |Residual|: 2.847e-05   |deigs|: 3.052e-07  t[s]:   6889.44
	FillingsUpdate:  mu: +0.396600141  nElectrons: 768.000000
SCF: Cycle: 17   F: -3070.195215975146766   dF: -1.867e-08   |Residual|: 2.534e-05   |deigs|: 1.935e-07  t[s]:   7144.32
	FillingsUpdate:  mu: +0.396600164  nElectrons: 768.000000
SCF: Cycle: 18   F: -3070.195215984552760   dF: -9.406e-09   |Residual|: 1.860e-05   |deigs|: 1.534e-07  t[s]:   7394.82
	FillingsUpdate:  mu: +0.396600147  nElectrons: 768.000000
SCF: Cycle: 19   F: -3070.195215989098415   dF: -4.546e-09   |Residual|: 9.955e-06   |deigs|: 1.667e-07  t[s]:   7603.16
SCF: Converged (|Delta E|<1.000000e-08 for 2 iters).

Setting wave functions to eigenvectors of Hamiltonian

# Ionic positions in lattice coordinates:
ion Bi   0.230330000000000   0.059820000000000   0.340990000000000 1
ion Bi   0.023310000000000   0.141240000000000   0.529940000000000 1
ion Bi   0.270740000000000   0.159290000000000   0.805590000000000 1
ion Bi   0.463370000000000   0.122730000000000   0.043440000000000 1
ion Bi   0.206520000000000   0.327620000000000   0.182940000000000 1
ion Bi   0.274300000000000   0.425930000000000   0.679310000000000 1
ion Bi   0.490630000000000   0.359400000000000   0.466910000000000 1
ion Bi   0.011390000000000   0.383310000000000   0.998410000000000 1
ion Bi   0.228610000000000   0.561090000000000   0.308520000000000 1
ion Bi   0.015400000000000   0.642170000000000   0.552930000000000 1
ion Bi   0.248260000000000   0.672930000000000   0.801590000000000 1
ion Bi   0.490740000000000   0.602230000000000   0.048310000000000 1
ion Bi   0.246450000000000   0.832450000000000   0.173940000000000 1
ion Bi   0.268590000000000   0.930130000000000   0.713300000000000 1
ion Bi   0.476100000000000   0.853500000000000   0.448440000000000 1
ion Bi   0.024960000000000   0.893140000000000   0.972390000000000 1
ion Bi   0.739520000000000   0.056380000000000   0.302940000000000 1
ion Bi   0.539240000000000   0.129800000000000   0.532730000000000 1
ion Bi   0.765490000000000   0.210850000000000   0.827960000000000 1
ion Bi   0.990700000000000   0.100110000000000   0.040280000000000 1
ion Bi   0.740350000000000   0.323470000000000   0.179140000000000 1
ion Bi   0.754890000000000   0.422440000000000   0.691030000000000 1
ion Bi   0.982680000000000   0.368840000000000   0.463520000000000 1
ion Bi   0.536500000000000   0.391470000000000   0.965640000000000 1
ion Bi   0.751010000000000   0.557540000000000   0.309650000000000 1
ion Bi   0.496000000000000   0.646870000000000   0.544500000000000 1
ion Bi   0.763800000000000   0.685140000000000   0.818580000000000 1
ion Bi   0.973080000000000   0.608670000000000   0.052350000000000 1
ion Bi   0.746770000000000   0.816350000000000   0.167330000000000 1
ion Bi   0.733220000000000   0.928760000000000   0.689670000000000 1
ion Bi   0.987700000000000   0.869380000000000   0.443700000000000 1
ion Bi   0.529930000000000   0.872860000000000   0.955880000000000 1
ion O   0.390110000000000   0.099270000000000   0.756020000000000 1
ion O   0.349420000000000   0.224380000000000   0.081960000000000 1
ion O   0.337210000000000   0.447950000000000   0.980850000000000 1
ion O   0.383760000000000   0.479980000000000   0.426220000000000 1
ion O   0.108810000000000   0.166340000000000   0.250490000000000 1
ion O   0.148920000000000   0.265110000000000   0.915140000000000 1
ion O   0.337750000000000   0.189370000000000   0.525780000000000 1
ion O   0.111320000000000   0.406480000000000   0.214010000000000 1
ion O   0.142790000000000   0.303640000000000   0.466210000000000 1
ion O   0.396590000000000   0.355500000000000   0.721200000000000 1
ion O   0.169240000000000   0.060590000000000   0.026340000000000 1
ion O   0.142380000000000   0.015760000000000   0.576690000000000 1
ion O   0.378220000000000   0.594020000000000   0.786070000000000 1
ion O   0.370780000000000   0.727800000000000   0.077770000000000 1
ion O   0.339010000000000   0.945140000000000   0.968610000000000 1
ion O   0.356680000000000   0.957870000000000   0.421160000000000 1
ion O   0.111060000000000   0.655450000000000   0.279290000000000 1
ion O   0.131120000000000   0.773340000000000   0.906040000000000 1
ion O   0.344950000000000   0.705250000000000   0.515830000000000 1
ion O   0.105370000000000   0.910740000000000   0.216170000000000 1
ion O   0.163230000000000   0.819470000000000   0.469890000000000 1
ion O   0.384800000000000   0.843020000000000   0.718710000000000 1
ion O   0.161050000000000   0.558330000000000   0.029070000000000 1
ion O   0.128940000000000   0.522010000000000   0.590190000000000 1
ion O   0.891710000000000   0.082580000000000   0.782480000000000 1
ion O   0.885650000000000   0.226690000000000   0.105410000000000 1
ion O   0.837550000000000   0.443880000000000   0.962770000000000 1
ion O   0.873580000000000   0.480780000000000   0.426470000000000 1
ion O   0.611530000000000   0.153780000000000   0.278790000000000 1
ion O   0.619930000000000   0.284160000000000   0.902740000000000 1
ion O   0.834100000000000   0.179060000000000   0.528110000000000 1
ion O   0.605470000000000   0.399240000000000   0.222520000000000 1
ion O   0.660500000000000   0.299800000000000   0.474830000000000 1
ion O   0.891140000000000   0.331760000000000   0.716230000000000 1
ion O   0.642980000000000   0.043010000000000   0.028090000000000 1
ion O   0.648160000000000   0.014830000000000   0.581060000000000 1
ion O   0.877940000000000   0.594500000000000   0.789220000000000 1
ion O   0.881810000000000   0.752850000000000   0.091390000000000 1
ion O   0.839640000000000   0.936420000000000   0.998570000000000 1
ion O   0.889600000000000   0.969710000000000   0.418340000000000 1
ion O   0.608250000000000   0.663490000000000   0.278090000000000 1
ion O   0.627420000000000   0.776450000000000   0.910380000000000 1
ion O   0.838740000000000   0.695800000000000   0.540430000000000 1
ion O   0.609020000000000   0.899000000000000   0.225360000000000 1
ion O   0.654870000000000   0.800130000000000   0.460940000000000 1
ion O   0.885800000000000   0.859210000000000   0.726050000000000 1
ion O   0.655660000000000   0.551210000000000   0.017580000000000 1
ion O   0.638610000000000   0.528450000000000   0.598410000000000 1

# Forces in Lattice coordinates:
force Bi   0.572327714786438   0.787335273930973  -0.167371645256140 1
force Bi  -0.640418815770015   0.189814496937657   0.150467278256958 1
force Bi  -2.003841236461596   2.490516524862839   0.131033493875316 1
force Bi   0.460702454263516  -0.775668904581206   0.084181353105982 1
force Bi   3.522266976878618  -3.614668773761264  -0.306963032796202 1
force Bi  -0.216113112659338   0.000945100526342   0.301064187440970 1
force Bi  -0.543867478658748   0.062863114422960   0.279474964875967 1
force Bi  -0.427786613370207   0.357667825471546  -1.100323458058385 1
force Bi  -0.325948811153643   1.446813234416436  -0.095602370285164 1
force Bi  -0.149015469634427   0.563176310375651  -0.218457614642631 1
force Bi   0.451739679503932  -0.292743902016900   0.289606007294594 1
force Bi  -0.402414983630137   0.155536149266163  -0.088133093475361 1
force Bi  -0.037770470526025  -0.357409818750777   0.035255443754795 1
force Bi   0.083321187846558  -0.935382938508701  -0.295969987623964 1
force Bi  -0.185545090062610   0.435922249843436   0.120815012677387 1
force Bi  -0.233353163822121  -0.126472570001193  -0.628968587305310 1
force Bi  -0.272893753279111   0.493042082417807  -0.283359877813419 1
force Bi   0.076137745462060   0.257304914563398  -0.170156800648276 1
force Bi   0.463305969188363  -2.329313657291738  -0.039532626355540 1
force Bi  -0.320169425222805   0.517264501600263  -0.448647819441316 1
force Bi  -0.078910924577826  -0.311496318656939   0.428710553271596 1
force Bi   0.028276113008406   0.702189633780106  -0.124097025754852 1
force Bi  -0.076097434792632  -0.498243822032858   0.385699610007106 1
force Bi  -1.156645788517735   0.616012779343841  -0.128423277423034 1
force Bi  -0.925283851915679   1.105245002952944   0.394565664328095 1
force Bi   0.822913073052050  -0.748920872179304  -0.183891435628525 1
force Bi   0.416582937280247  -0.223031981816648  -0.632807877654955 1
force Bi   0.331579226284997   0.007760503440911  -0.265225870033530 1
force Bi  -0.633344067558627   0.364467537092705   0.539452528438612 1
force Bi   1.782730316337400  -1.104566400558177   0.184168386531161 1
force Bi  -0.315870726689837  -0.676992166997158   0.812384422654190 1
force Bi  -0.773771327964136   0.877856958916080   0.417860224765402 1
force O   1.549303450052022  -1.541420348813396   0.280216617719576 1
force O   0.877512644211446  -0.301956610566514  -0.349263281927463 1
force O   0.370976806341543  -0.109921586874675   0.363357019911702 1
force O  -0.216422876711187   0.308645596547203   0.218603965806481 1
force O  -0.071311496782822  -0.289616176614014   0.520666682505144 1
force O  -0.673113674684246   0.293534269288615   0.282051360810487 1
force O   0.428090648113686   0.024392846008805  -0.497521653227286 1
force O  -1.657886184815692   2.211273115242687   0.753539380267692 1
force O  -0.531919520438709   0.533154687521823   0.428247379895993 1
force O   0.534190940616754  -0.532370498999150  -0.093221736648214 1
force O  -0.505659882822640  -0.096062886104155  -0.460574915903649 1
force O  -0.405431119961205  -0.082757436066556  -0.113944255528931 1
force O   0.102169570511236   0.149491051901185  -0.172937455225330 1
force O  -0.055167267604454   0.454980283919343  -0.223930767049052 1
force O   0.240821504647934   0.186772765499040   0.636566469745710 1
force O   0.210347520648527   0.738736309993995   0.044018036533775 1
force O  -0.087985061687674  -0.194928114020576   0.165982554422827 1
force O  -0.116654148981032  -0.102422473907262   0.353345247648528 1
force O   0.358629099055139  -0.888457203679673  -0.338914828339437 1
force O   0.155582402261054  -0.208911267050918   0.094159287773435 1
force O  -0.571267228626599  -0.182948444022665   0.362293395154681 1
force O   0.246383415877149  -0.078613195013871   0.017695675401665 1
force O  -0.688135072128262   0.206058563236345  -0.305258613024268 1
force O  -0.166907321450162  -0.237072080185766  -0.395255545335119 1
force O   0.056734980317373   0.111865893970923  -0.190739348215283 1
force O  -0.168512194183409   0.503732040245593  -0.255500338946874 1
force O   0.411790922590960  -0.433695428663400   0.530559487822691 1
force O  -0.131981067058698   0.312807842282196   0.156632774225596 1
force O  -0.068402746264372  -0.213981036528656  -0.130965071651936 1
force O   0.374639566306494  -0.754943174399755   0.106434236155677 1
force O   0.610023570426485  -0.111442561360339  -0.345787676514280 1
force O   0.344446492819525  -0.012124937465290   0.016429541839711 1
force O  -0.395392990790673   0.333508192509772   0.387851136969037 1
force O   0.225958532911759   0.971491999137950  -0.082269029835487 1
force O  -0.232951097724082   0.395054375160626  -0.203023239542058 1
force O  -0.861604521228520   0.595342809091012  -0.640511857183990 1
force O   0.311319274199037   0.029293044987666   0.053666058792349 1
force O   0.372010961220502  -0.552878843195286  -0.292817098270882 1
force O   0.520555219053834  -0.010182899259870   0.237632820767530 1
force O  -0.384819195594068   0.902577621951205  -0.012320081045547 1
force O  -0.052332309654642  -0.595525293801522  -0.129424286760546 1
force O   0.287731867975951  -0.691241869510759   0.239563963852236 1
force O   0.665078168030069  -0.464395144622457  -0.432633841076878 1
force O  -0.066400827904140   0.009857753879850  -0.176785186237352 1
force O  -0.653750501089679   0.759309216003326   0.704485480868171 1
force O   0.220975833912571  -0.385480694872372  -0.059900777067967 1
force O  -0.253052561749095   0.432086572518712  -0.131668131124636 1
force O   0.248753905194060  -0.830406274926853  -0.292590222277456 1

# Energy components:
   Eewald =    -2394.1520751570683387
       EH =      688.2670029735080561
     Eloc =    -2243.3705830902131311
      Enl =      868.3182713498329122
      Exc =    -1200.1136127023205518
 Exc_core =      661.9966901797093897
       KE =      548.9991605748841721
-------------------------------------
     Etot =    -3070.0551458716681736
       TS =        0.1400701174302449
-------------------------------------
        F =    -3070.1952159890984149

IonicMinimize: Iter:   0  F: -3070.195215989098415  |grad|_K:  2.620e-02  t[s]:   7663.11

#--- Lowdin population analysis ---
# oxidation-state Bi +1.288 +1.253 +1.358 +1.198 +1.387 +1.334 +1.270 +1.180 +1.273 +1.199 +1.316 +1.259 +1.305 +1.349 +1.286 +1.281 +1.299 +1.219 +1.228 +1.304 +1.149 +1.242 +1.235 +1.295 +1.174 +1.266 +1.313 +1.159 +1.362 +1.317 +1.320 +1.281
# oxidation-state O -0.763 -0.770 -0.772 -0.811 -0.762 -0.789 -0.800 -0.750 -0.797 -0.777 -0.766 -0.782 -0.766 -0.800 -0.802 -0.785 -0.771 -0.813 -0.760 -0.765 -0.770 -0.772 -0.766 -0.806 -0.757 -0.795 -0.786 -0.802 -0.749 -0.798 -0.760 -0.760 -0.780 -0.763 -0.790 -0.778 -0.760 -0.809 -0.761 -0.817 -0.757 -0.808 -0.735 -0.758 -0.727 -0.762 -0.792 -0.777


-------- Electronic minimization -----------
Will mix electronic density at each iteration.
	FillingsUpdate:  mu: +0.396600147  nElectrons: 768.000000
	FillingsUpdate:  mu: +0.395934590  nElectrons: 768.000000
SCF: Cycle:  0   F: -3069.945278307442095   dF: -1.415e-01   |Residual|: 3.398e-01   |deigs|: 1.146e-03  t[s]:   8189.83
	FillingsUpdate:  mu: +0.397798482  nElectrons: 768.000000
SCF: Cycle:  1   F: -3070.148708107824859   dF: -2.034e-01   |Residual|: 2.956e-01   |deigs|: 3.742e-03  t[s]:   8637.64
	FillingsUpdate:  mu: +0.395960671  nElectrons: 768.000000
SCF: Cycle:  2   F: -3070.237528104850298   dF: -8.882e-02   |Residual|: 1.175e-01   |deigs|: 1.937e-03  t[s]:   9020.06
	FillingsUpdate:  mu: +0.397093206  nElectrons: 768.000000
SCF: Cycle:  3   F: -3070.266114332321649   dF: -2.859e-02   |Residual|: 8.070e-02   |deigs|: 1.244e-03  t[s]:   9391.61
	FillingsUpdate:  mu: +0.396699688  nElectrons: 768.000000
SCF: Cycle:  4   F: -3070.277944226114414   dF: -1.183e-02   |Residual|: 3.402e-02   |deigs|: 6.546e-04  t[s]:   9793.39
	FillingsUpdate:  mu: +0.396594424  nElectrons: 768.000000
SCF: Cycle:  5   F: -3070.280064672030221   dF: -2.120e-03   |Residual|: 1.776e-02   |deigs|: 2.937e-04  t[s]:  10124.43
	FillingsUpdate:  mu: +0.396585358  nElectrons: 768.000000
SCF: Cycle:  6   F: -3070.280457541632586   dF: -3.929e-04   |Residual|: 7.566e-03   |deigs|: 1.101e-04  t[s]:  10344.31
	FillingsUpdate:  mu: +0.396608695  nElectrons: 768.000000
SCF: Cycle:  7   F: -3070.280542035352028   dF: -8.449e-05   |Residual|: 3.389e-03   |deigs|: 4.799e-05  t[s]:  10566.88
	FillingsUpdate:  mu: +0.396601187  nElectrons: 768.000000
SCF: Cycle:  8   F: -3070.280555648060272   dF: -1.361e-05   |Residual|: 2.209e-03   |deigs|: 2.465e-05  t[s]:  10786.64
	FillingsUpdate:  mu: +0.396601182  nElectrons: 768.000000
SCF: Cycle:  9   F: -3070.280562764825845   dF: -7.117e-06   |Residual|: 1.090e-03   |deigs|: 1.535e-05  t[s]:  11006.19
	FillingsUpdate:  mu: +0.396591204  nElectrons: 768.000000
SCF: Cycle: 10   F: -3070.280564160036192   dF: -1.395e-06   |Residual|: 5.218e-04   |deigs|: 9.015e-06  t[s]:  11226.55
	FillingsUpdate:  mu: +0.396592288  nElectrons: 768.000000
SCF: Cycle: 11   F: -3070.280564659227366   dF: -4.992e-07   |Residual|: 1.924e-04   |deigs|: 3.461e-06  t[s]:  11450.46
	FillingsUpdate:  mu: +0.396592086  nElectrons: 768.000000
SCF: Cycle: 12   F: -3070.280564701585718   dF: -4.236e-08   |Residual|: 1.295e-04   |deigs|: 1.299e-06  t[s]:  11664.78
	FillingsUpdate:  mu: +0.396591208  nElectrons: 768.000000
SCF: Cycle: 13   F: -3070.280564730505375   dF: -2.892e-08   |Residual|: 8.047e-05   |deigs|: 1.022e-06  t[s]:  11921.91
	FillingsUpdate:  mu: +0.396590767  nElectrons: 768.000000
SCF: Cycle: 14   F: -3070.280564741612579   dF: -1.111e-08   |Residual|: 3.976e-05   |deigs|: 6.811e-07  t[s]:  12173.28
	FillingsUpdate:  mu: +0.396590736  nElectrons: 768.000000
SCF: Cycle: 15   F: -3070.280564746613891   dF: -5.001e-09   |Residual|: 1.922e-05   |deigs|: 3.016e-07  t[s]:  12398.11
	FillingsUpdate:  mu: +0.396590758  nElectrons: 768.000000
SCF: Cycle: 16   F: -3070.280564747984954   dF: -1.371e-09   |Residual|: 1.021e-05   |deigs|: 1.292e-07  t[s]:  12617.85
SCF: Converged (|Delta E|<1.000000e-08 for 2 iters).

Setting wave functions to eigenvectors of Hamiltonian

# Ionic positions in lattice coordinates:
ion Bi   0.231421915589189   0.060718195480272   0.340578343685108 1
ion Bi   0.022521937621231   0.141141286213548   0.530309901644335 1
ion Bi   0.269042339407555   0.160586215343410   0.805912114454858 1
ion Bi   0.463678078657465   0.122260157929209   0.043646906213147 1
ion Bi   0.209813192170999   0.325987457799906   0.182185091956321 1
ion Bi   0.274008514618554   0.425843298668450   0.680050215675439 1
ion Bi   0.489920921905716   0.359232949610610   0.467597128317407 1
ion Bi   0.010957109736106   0.383439470152318   0.995704238523877 1
ion Bi   0.228755797481356   0.562182500129330   0.308284822536287 1
ion Bi   0.015426862168720   0.642586311648628   0.552392724564776 1
ion Bi   0.248751575549287   0.672865244047556   0.802302040297192 1
ion Bi   0.490259506494867   0.602198675458260   0.048093189301049 1
ion Bi   0.246254241062444   0.832132245590681   0.174026598626388 1
ion Bi   0.268323689791929   0.929372133195024   0.712572123579307 1
ion Bi   0.476025981989848   0.853793816248225   0.448736987465302 1
ion Bi   0.024593621059125   0.892938477776644   0.970843288355741 1
ion Bi   0.739351142706462   0.056686779378907   0.302243131523772 1
ion Bi   0.539447069668294   0.130048637203051   0.532311495057695 1
ion Bi   0.765172312358146   0.209066308399173   0.827862696633505 1
ion Bi   0.990477102176566   0.100418131294426   0.039176692611521 1
ion Bi   0.740117272560606   0.323174440415289   0.180194094894758 1
ion Bi   0.755212621266984   0.423045773042494   0.690724754891545 1
ion Bi   0.982375432983191   0.368387529018754   0.464468332061589 1
ion Bi   0.535187336708812   0.391522902060079   0.965324116746955 1
ion Bi   0.750207975733482   0.558100666454021   0.310620133467297 1
ion Bi   0.496808121666431   0.646569504208191   0.544047721933978 1
ion Bi   0.764272327997372   0.685120003930860   0.817023847636847 1
ion Bi   0.973530999598551   0.608810902110056   0.051697722595112 1
ion Bi   0.746062233757764   0.816401966737854   0.168656406640455 1
ion Bi   0.735180421118987   0.928547269833259   0.690122771826236 1
ion Bi   0.986999190678679   0.868679131116562   0.445697539338406 1
ion Bi   0.529240511220257   0.873289588062255   0.956907414208483 1
ion O   0.391578208265476   0.098592998639256   0.756708952023190 1
ion O   0.350482901756235   0.224479900553193   0.081101076702241 1
ion O   0.337666545248460   0.448007261082870   0.981743392191651 1
ion O   0.383592726142579   0.480153590925117   0.426757448053948 1
ion O   0.108596398757196   0.166066036391736   0.251770212715407 1
ion O   0.148129789556973   0.265085825287277   0.915833463610537 1
ion O   0.338338086606118   0.189564069282714   0.524556513077274 1
ion O   0.109976489645862   0.407680006236145   0.215862840851733 1
ion O   0.142287544263262   0.303875813222253   0.467262955963018 1
ion O   0.397095878420293   0.355265835414668   0.720970676454826 1
ion O   0.168518155054110   0.060303920428671   0.025207364179787 1
ion O   0.141798915266099   0.015525777593877   0.576409720299465 1
ion O   0.378418560246950   0.594187934385917   0.785644657497674 1
ion O   0.370889792145271   0.728162753493295   0.077219266219971 1
ion O   0.339410926840463   0.945395646286476   0.970175207391923 1
ion O   0.357263333374079   0.958580449321880   0.421268145622754 1
ion O   0.110862231209759   0.655249420819778   0.279698053320169 1
ion O   0.130920978303507   0.773206099564058   0.906908773494194 1
ion O   0.345074532927343   0.704643357812459   0.514996523290651 1
ion O   0.105495534730846   0.910626240072905   0.216401441704804 1
ion O   0.162384352616131   0.819083812771078   0.470780776764990 1
ion O   0.385100947900669   0.843053293616118   0.718753419595428 1
ion O   0.160204070505758   0.558225707316461   0.028319283081889 1
ion O   0.128618567348946   0.521741786515932   0.589217982877445 1
ion O   0.891831955800503   0.082697688232725   0.782010883088291 1
ion O   0.885626452400605   0.227048104994907   0.104781637432680 1
ion O   0.837930529442421   0.443679771126447   0.964074538876123 1
ion O   0.873528460841677   0.480991315585307   0.426855062444635 1
ion O   0.611350962359236   0.153571227213499   0.278467866538552 1
ion O   0.620130235032683   0.283672840240280   0.903001625495704 1
ion O   0.834878790655486   0.179212796466863   0.527259623128977 1
ion O   0.605930324065179   0.399369284075104   0.222560306204684 1
ion O   0.660101075695939   0.299922143603449   0.475783622612548 1
ion O   0.891838692450845   0.332673761653540   0.716027608886795 1
ion O   0.642825401488297   0.043250027174295   0.027590677306914 1
ion O   0.647237453398959   0.014984910788667   0.579484903743972 1
ion O   0.878372357555056   0.594650919837393   0.789351869868053 1
ion O   0.882088528191791   0.752532789690475   0.090669876455327 1
ion O   0.840338966714996   0.936622258132642   0.999154239532114 1
ion O   0.889445850706966   0.970318049793520   0.418309611601447 1
ion O   0.607938128112080   0.662964822037510   0.277771655290043 1
ion O   0.627528657061284   0.775981552108652   0.910968988164633 1
ion O   0.839450189883243   0.695676379431227   0.539366070583581 1
ion O   0.608934329046499   0.898981480682752   0.224925196023402 1
ion O   0.654294597658283   0.800507869751647   0.462672218540648 1
ion O   0.885942339395987   0.858973289892364   0.725902611860601 1
ion O   0.655493251426639   0.551473226997428   0.017256137732902 1
ion O   0.638609645977990   0.527847984897873   0.597690434337718 1

# Forces in Lattice coordinates:
force Bi   0.497166013706498   0.705577385053324  -0.135287690557977 1
force Bi  -0.625204301399028   0.187212569347428   0.130557501826519 1
force Bi  -1.463083420209347   1.912512954859174   0.086071074391260 1
force Bi   0.431947162143198  -0.778937498000886   0.019591132733900 1
force Bi   2.536477242499633  -2.446746424081030  -0.230251989613441 1
force Bi  -0.218110821518581   0.027586858007155   0.267602274864065 1
force Bi  -0.506249026864800   0.048767621715879   0.245013674912937 1
force Bi  -0.226349516603332   0.271936299691731  -0.916711303953493 1
force Bi  -0.318866414570567   1.284901169676330  -0.099345677152836 1
force Bi  -0.112335161251620   0.524056708611488  -0.216528457988662 1
force Bi   0.441297026335622  -0.295004470469873   0.275892525176532 1
force Bi  -0.376321594854477   0.166214388287146  -0.094371400022790 1
force Bi  -0.080202886799981  -0.281110403709756   0.034189297623034 1
force Bi   0.082280411925331  -0.812290433578334  -0.270798974719789 1
force Bi  -0.166412621241000   0.409358298231346   0.133052210177648 1
force Bi  -0.208858512620927  -0.134663285211619  -0.533509123734147 1
force Bi  -0.262483257366915   0.469416830248099  -0.255782996259764 1
force Bi   0.043926396218052   0.233829539341319  -0.129895224204124 1
force Bi   0.497563390610801  -2.140510753620791  -0.072627327291416 1
force Bi  -0.309072018542804   0.488651096689640  -0.399960484941608 1
force Bi  -0.119100117380203  -0.264531480751351   0.405485148067534 1
force Bi   0.045560285095471   0.623183983337716  -0.112212068060817 1
force Bi  -0.006386839464587  -0.499146148044456   0.318169455976463 1
force Bi  -1.039178723254604   0.526352039441456  -0.103795337999600 1
force Bi  -0.897020118702491   1.061232521000155   0.380559824850899 1
force Bi   0.776656011428394  -0.702057802868840  -0.181820554828845 1
force Bi   0.377356897948297  -0.205619589863542  -0.578305050764691 1
force Bi   0.308104660659596   0.024739121264783  -0.249336351580555 1
force Bi  -0.557912294081697   0.315613831733661   0.497498772902421 1
force Bi   1.595065945256959  -0.932079951102385   0.137598798630563 1
force Bi  -0.274479217311755  -0.577012348186202   0.729036739193016 1
force Bi  -0.691389657750418   0.800818857799438   0.371958635583116 1
force O   1.097588396684835  -1.084131040164958   0.327912498126680 1
force O   0.792585590740468  -0.223639140128151  -0.345997314129779 1
force O   0.393131075347090  -0.152264550850733   0.346196039719399 1
force O  -0.206971372868180   0.293650351768346   0.231319997798719 1
force O  -0.057315277650354  -0.307467471224006   0.486123880695720 1
force O  -0.619000479121673   0.258126157836002   0.282916878717935 1
force O   0.423689339041984   0.014061570824300  -0.474159754404606 1
force O  -1.004045607827635   1.290989947172139   0.576460818316163 1
force O  -0.511898117335923   0.515820654497602   0.429484235223152 1
force O   0.483081015105165  -0.501212393794717  -0.079787346788986 1
force O  -0.509035804074655  -0.044532483162085  -0.464456135251575 1
force O  -0.365226185647198  -0.081910702780061  -0.137951648357878 1
force O   0.105009459229378   0.129071776817995  -0.161543612616527 1
force O  -0.065422479429530   0.445119176873122  -0.228935417497578 1
force O   0.238433622944880   0.145241935315315   0.607254668779472 1
force O   0.190102344107983   0.731815475601940   0.053339071576660 1
force O  -0.094782146696917  -0.184581673832977   0.162547269478153 1
force O  -0.103615929154565  -0.123238527092688   0.352990120608959 1
force O   0.377737807925733  -0.858512407563246  -0.328352236520431 1
force O   0.126216471048657  -0.196555755662544   0.079640446743947 1
force O  -0.563454103565910  -0.185727151317224   0.369878207757188 1
force O   0.244854653841015  -0.084951661967899   0.015047299189856 1
force O  -0.690494592407620   0.253941363898337  -0.324692191329539 1
force O  -0.142987635676706  -0.250899868739455  -0.394240294708110 1
force O   0.051373426450039   0.121666036007121  -0.181297370528535 1
force O  -0.196179136001781   0.514960730670204  -0.274474377171618 1
force O   0.446525942021085  -0.441644871145111   0.529134624830444 1
force O  -0.157261266928437   0.333921032916163   0.154003774916468 1
force O  -0.048441856698682  -0.189995792314723  -0.136603289766897 1
force O   0.367945863430196  -0.720243384148745   0.131857681977062 1
force O   0.603826132245430  -0.114221711924748  -0.338923924238977 1
force O   0.323777411113672  -0.009013905749799   0.009839589584704 1
force O  -0.385116298045145   0.335799092377393   0.378814559522990 1
force O   0.140758802658196   0.821844876853806  -0.006125015938751 1
force O  -0.239840672099583   0.423529218757905  -0.213281461967176 1
force O  -0.739719347194667   0.426433071143441  -0.593162198631449 1
force O   0.310982754104721   0.013923408548307   0.050978325951804 1
force O   0.318919451188395  -0.499740907979089  -0.296836166616615 1
force O   0.512674278485471  -0.021230351208468   0.235496148714578 1
force O  -0.381647058781214   0.863739197803652   0.009846202179578 1
force O  -0.043701513861782  -0.581899279297802  -0.106497835195946 1
force O   0.251084125546148  -0.611892588852561   0.245414237920453 1
force O   0.653845673377801  -0.468274046412373  -0.431825812303502 1
force O  -0.064138832092092   0.005357672484986  -0.170181614793446 1
force O  -0.635603715569292   0.739387578354360   0.687023316003961 1
force O   0.218210246790938  -0.375600262275623  -0.070509239937562 1
force O  -0.271809220856482   0.425569106885594  -0.143978219152001 1
force O   0.250552220889159  -0.808510758135318  -0.301073328501832 1

# Energy components:
   Eewald =    -2397.0344396095629236
       EH =      685.7394364917799976
     Eloc =    -2237.8517436415877455
      Enl =      868.2259104615191063
      Exc =    -1200.0660302924984535
 Exc_core =      661.9966913504904369
       KE =      548.8430170733183786
-------------------------------------
     Etot =    -3070.1471581665418853
       TS =        0.1334065814432264
-------------------------------------
        F =    -3070.2805647479849540

IonicMinimize: Iter:   1  F: -3070.280564747984954  |grad|_K:  2.236e-02  alpha:  5.639e-01  linmin: -9.888e-01  t[s]:  12677.51

#--- Lowdin population analysis ---
# oxidation-state Bi +1.289 +1.254 +1.349 +1.208 +1.374 +1.332 +1.271 +1.194 +1.282 +1.204 +1.316 +1.263 +1.305 +1.348 +1.288 +1.283 +1.301 +1.228 +1.226 +1.304 +1.161 +1.247 +1.248 +1.292 +1.181 +1.268 +1.314 +1.167 +1.360 +1.318 +1.320 +1.284
# oxidation-state O -0.763 -0.778 -0.776 -0.812 -0.766 -0.796 -0.801 -0.753 -0.796 -0.777 -0.767 -0.783 -0.768 -0.801 -0.800 -0.789 -0.772 -0.813 -0.762 -0.766 -0.772 -0.773 -0.766 -0.808 -0.760 -0.794 -0.786 -0.803 -0.751 -0.798 -0.763 -0.761 -0.781 -0.766 -0.793 -0.779 -0.762 -0.810 -0.765 -0.817 -0.761 -0.808 -0.740 -0.759 -0.734 -0.766 -0.792 -0.779


-------- Electronic minimization -----------
Will mix electronic density at each iteration.
	FillingsUpdate:  mu: +0.396590758  nElectrons: 768.000000
	FillingsUpdate:  mu: +0.395893071  nElectrons: 768.000000
SCF: Cycle:  0   F: -3069.281516829952125   dF: -4.360e-01   |Residual|: 6.383e-01   |deigs|: 2.693e-03  t[s]:  13206.32
	FillingsUpdate:  mu: +0.398030693  nElectrons: 768.000000
SCF: Cycle:  1   F: -3070.016629985299005   dF: -7.351e-01   |Residual|: 5.292e-01   |deigs|: 5.500e-03  t[s]:  13580.23
	FillingsUpdate:  mu: +0.395742734  nElectrons: 768.000000
SCF: Cycle:  2   F: -3070.290565711100498   dF: -2.739e-01   |Residual|: 1.967e-01   |deigs|: 3.101e-03  t[s]:  13957.75
	FillingsUpdate:  mu: +0.397786334  nElectrons: 768.000000
SCF: Cycle:  3   F: -3070.384896306895371   dF: -9.433e-02   |Residual|: 1.198e-01   |deigs|: 2.015e-03  t[s]:  14329.44
	FillingsUpdate:  mu: +0.396874810  nElectrons: 768.000000
SCF: Cycle:  4   F: -3070.408284554732745   dF: -2.339e-02   |Residual|: 4.662e-02   |deigs|: 9.181e-04  t[s]:  14676.60
	FillingsUpdate:  mu: +0.396750339  nElectrons: 768.000000
SCF: Cycle:  5   F: -3070.409987279860616   dF: -1.703e-03   |Residual|: 3.507e-02   |deigs|: 4.749e-04  t[s]:  15011.83
	FillingsUpdate:  mu: +0.396775393  nElectrons: 768.000000
SCF: Cycle:  6   F: -3070.412072913276461   dF: -2.086e-03   |Residual|: 1.090e-02   |deigs|: 2.219e-04  t[s]:  15345.54
	FillingsUpdate:  mu: +0.396819683  nElectrons: 768.000000
SCF: Cycle:  7   F: -3070.412238858100409   dF: -1.659e-04   |Residual|: 6.082e-03   |deigs|: 8.785e-05  t[s]:  15566.87
	FillingsUpdate:  mu: +0.396828886  nElectrons: 768.000000
SCF: Cycle:  8   F: -3070.412280713131622   dF: -4.186e-05   |Residual|: 3.302e-03   |deigs|: 3.964e-05  t[s]:  15794.07
	FillingsUpdate:  mu: +0.396812278  nElectrons: 768.000000
SCF: Cycle:  9   F: -3070.412295167438060   dF: -1.445e-05   |Residual|: 1.727e-03   |deigs|: 2.474e-05  t[s]:  16010.09
	FillingsUpdate:  mu: +0.396798687  nElectrons: 768.000000
SCF: Cycle: 10   F: -3070.412299128383438   dF: -3.961e-06   |Residual|: 7.215e-04   |deigs|: 1.552e-05  t[s]:  16240.35
	FillingsUpdate:  mu: +0.396800714  nElectrons: 768.000000
SCF: Cycle: 11   F: -3070.412300192087514   dF: -1.064e-06   |Residual|: 3.250e-04   |deigs|: 4.646e-06  t[s]:  16461.07
	FillingsUpdate:  mu: +0.396799687  nElectrons: 768.000000
SCF: Cycle: 12   F: -3070.412300334297470   dF: -1.422e-07   |Residual|: 2.027e-04   |deigs|: 1.955e-06  t[s]:  16710.21
	FillingsUpdate:  mu: +0.396798619  nElectrons: 768.000000
SCF: Cycle: 13   F: -3070.412300388283711   dF: -5.399e-08   |Residual|: 1.222e-04   |deigs|: 1.623e-06  t[s]:  16927.06
	FillingsUpdate:  mu: +0.396798187  nElectrons: 768.000000
SCF: Cycle: 14   F: -3070.412300421806322   dF: -3.352e-08   |Residual|: 4.558e-05   |deigs|: 7.761e-07  t[s]:  17182.13
	FillingsUpdate:  mu: +0.396798133  nElectrons: 768.000000
SCF: Cycle: 15   F: -3070.412300427594801   dF: -5.788e-09   |Residual|: 2.815e-05   |deigs|: 3.585e-07  t[s]:  17404.91
	FillingsUpdate:  mu: +0.396798033  nElectrons: 768.000000
SCF: Cycle: 16   F: -3070.412300431113636   dF: -3.519e-09   |Residual|: 1.211e-05   |deigs|: 1.887e-07  t[s]:  17627.10
SCF: Converged (|Delta E|<1.000000e-08 for 2 iters).

Setting wave functions to eigenvectors of Hamiltonian

# Ionic positions in lattice coordinates:
ion Bi   0.233482998367476   0.062472509318218   0.339950767427399 1
ion Bi   0.020623291123902   0.140911644386386   0.530990788931029 1
ion Bi   0.267357398761277   0.162448732245640   0.806145410108487 1
ion Bi   0.464248145074992   0.120990426369938   0.043331969723007 1
ion Bi   0.213634047959398   0.324960059124626   0.181266592905153 1
ion Bi   0.273310977941991   0.425738310102698   0.681495381362038 1
ion Bi   0.488358497948742   0.358826250315919   0.468894420543692 1
ion Bi   0.011114230638202   0.383816351918633   0.991221754910517 1
ion Bi   0.228829667023833   0.564247604798996   0.307639082365259 1
ion Bi   0.015673616037144   0.643547409498968   0.551053403300287 1
ion Bi   0.249920917202325   0.672668370696714   0.803932762239515 1
ion Bi   0.489248479804733   0.602223072033531   0.047461621560509 1
ion Bi   0.245617211856983   0.831576113305679   0.174233144360338 1
ion Bi   0.267903807225016   0.927996424991863   0.711051224181072 1
ion Bi   0.475917896450290   0.854462363293108   0.449651211866140 1
ion Bi   0.023820585383726   0.892442522625784   0.968157431707966 1
ion Bi   0.738946057498196   0.057382721036215   0.300832328890167 1
ion Bi   0.539692483045231   0.130506137838003   0.531772996494172 1
ion Bi   0.765015278790260   0.205454808935653   0.827185040657403 1
ion Bi   0.989928948864179   0.101096626710923   0.037008253360248 1
ion Bi   0.739339459123864   0.322548042693506   0.182569911087718 1
ion Bi   0.755986454551623   0.424267828615707   0.690104503283773 1
ion Bi   0.982098419328735   0.367383708746458   0.465998607778074 1
ion Bi   0.532500567937414   0.391507575508280   0.964842758778760 1
ion Bi   0.748278371074036   0.559388500248310   0.312902699304317 1
ion Bi   0.498630830239558   0.645917096997716   0.542926170194512 1
ion Bi   0.765229119142176   0.685063267675334   0.813780737380585 1
ion Bi   0.974545326652513   0.609194743768572   0.050248023651381 1
ion Bi   0.744699022413708   0.816476983491066   0.171480143546463 1
ion Bi   0.739188524485389   0.928377511180968   0.690667058776592 1
ion Bi   0.985729411329324   0.867435645508895   0.449687232881412 1
ion Bi   0.527912987463070   0.874212500652571   0.958920199348282 1
ion O   0.393058341661263   0.097953826589786   0.759080594255211 1
ion O   0.352743752177610   0.224902669818570   0.078962058694709 1
ion O   0.338894052980810   0.448010641062082   0.983789926170869 1
ion O   0.383203313761220   0.480547803082769   0.428288764387964 1
ion O   0.108115674593536   0.165320245237492   0.254573093648547 1
ion O   0.146433514760827   0.264981948253803   0.917606818054962 1
ion O   0.339778497541537   0.190001495018817   0.521753027452599 1
ion O   0.109265859346934   0.408006759144832   0.218264536480392 1
ion O   0.141117223672545   0.304440280740846   0.469954386649613 1
ion O   0.398082391356738   0.354701145823579   0.720563467410662 1
ion O   0.166770870481095   0.059801018269180   0.022279957787350 1
ion O   0.140612184810797   0.015020945924237   0.575385558058273 1
ion O   0.378899583106787   0.594529289911460   0.784712920338645 1
ion O   0.371074304879007   0.729018250686697   0.075755475100592 1
ion O   0.340323369926681   0.945854001127140   0.973770188020217 1
ion O   0.358585674822815   0.960310971499935   0.421664673551531 1
ion O   0.110333497258977   0.654771822465476   0.280690363785378 1
ion O   0.130464081797275   0.772800778981617   0.909111585532922 1
ion O   0.345591862477088   0.703277599193232   0.513017153647970 1
ion O   0.105631014934038   0.910329794545620   0.216800782397913 1
ion O   0.160286108417618   0.818107218010415   0.473142866100144 1
ion O   0.385841028715021   0.843106344695026   0.718829673662204 1
ion O   0.158141011990260   0.558170443521148   0.026159592031148 1
ion O   0.127943509930921   0.521049916329851   0.586762360252460 1
ion O   0.892124533260073   0.083029235424259   0.780942529000319 1
ion O   0.885392943080062   0.227948962027748   0.102938754306035 1
ion O   0.839128665027658   0.443210145147873   0.967370425070307 1
ion O   0.873262110921259   0.481568689147364   0.427799465867271 1
ion O   0.611090425374785   0.153191322187638   0.277576554061140 1
ion O   0.620665545108707   0.282576581332874   0.903997707527849 1
ion O   0.836807010960759   0.179575366048601   0.525189160654350 1
ion O   0.606958660733073   0.399667482664299   0.222577330330523 1
ion O   0.659166161690213   0.300264896398796   0.478088946527878 1
ion O   0.892683456608137   0.334141853417718   0.716505320805365 1
ion O   0.642444554001501   0.043972771060924   0.026189085567052 1
ion O   0.645403355282917   0.014883054125056   0.576100532180686 1
ion O   0.879435424091535   0.594964869174665   0.789652307350545 1
ion O   0.882530457198681   0.751851383846444   0.088788606390271 1
ion O   0.842034632567602   0.937069814353649   1.000611035464761 1
ion O   0.888993735926340   0.971695627857353   0.418521462686398 1
ion O   0.607236898358189   0.661710409702512   0.277261890317077 1
ion O   0.627712865805182   0.775068677490865   0.912541840380509 1
ion O   0.841165771996549   0.695321022224849   0.536674259205915 1
ion O   0.608723310101968   0.898919276553898   0.223907052154699 1
ion O   0.652920010072162   0.801417596006735   0.466845754913721 1
ion O   0.886305436091461   0.858410463779098   0.725390501591834 1
ion O   0.654921622359876   0.552072641906080   0.016273563215343 1
ion O   0.638668657240602   0.526420783552214   0.595752458051612 1

# Forces in Lattice coordinates:
force Bi   0.346873190751191   0.588469963130636  -0.099357178096069 1
force Bi  -0.564603184579567   0.156246081255693   0.088533213308139 1
force Bi  -0.985482028577343   1.373260693078263   0.067435533987432 1
force Bi   0.395006458017702  -0.755884100046455  -0.057181436665471 1
force Bi   1.862391809198298  -1.743848513563824  -0.158076047557031 1
force Bi  -0.203160973588966   0.058477289330882   0.207102427680126 1
force Bi  -0.431502980012005   0.020384051532844   0.168833264742386 1
force Bi  -0.068520517411690   0.203294815623085  -0.694884824199646 1
force Bi  -0.297583775555074   1.055868657972340  -0.072927659748037 1
force Bi  -0.041770684133004   0.436912860614122  -0.206405565280093 1
force Bi   0.413971523010136  -0.277425566332843   0.244030588892400 1
force Bi  -0.317475222152707   0.187591866685243  -0.103127038330218 1
force Bi  -0.151290363898173  -0.142285569488656   0.030913022000141 1
force Bi   0.077489016559380  -0.636056796817939  -0.235899125020355 1
force Bi  -0.122691497019314   0.349729423869447   0.145355258235272 1
force Bi  -0.168382585096301  -0.130000227405731  -0.368065133232868 1
force Bi  -0.239562066288161   0.416369514279234  -0.209575249316211 1
force Bi  -0.011492906899669   0.201016918828745  -0.083161527893339 1
force Bi   0.513916846328578  -1.834248641858682  -0.091152326130239 1
force Bi  -0.244226061702677   0.437445822658339  -0.298326627981343 1
force Bi  -0.164843853015918  -0.172846800914677   0.344015864008276 1
force Bi   0.077833932962343   0.473599776670564  -0.085398136776232 1
force Bi   0.060617934415450  -0.460255216755549   0.232705440037188 1
force Bi  -0.826931831731582   0.346610297231081  -0.053661034365052 1
force Bi  -0.828645460476079   0.958619863829069   0.351520824425145 1
force Bi   0.686436020180885  -0.607724603221459  -0.173413360958839 1
force Bi   0.297364064264897  -0.175732891268621  -0.465543758541408 1
force Bi   0.246112999150786   0.046554232907053  -0.221891519415423 1
force Bi  -0.426204583083943   0.237051692946798   0.413979263004698 1
force Bi   1.282042610856225  -0.691408317825891   0.072829953706062 1
force Bi  -0.203592052236806  -0.385360357818179   0.570771186669824 1
force Bi  -0.535837979765398   0.657932175315882   0.283326973282721 1
force O   0.725477193288785  -0.707381282054557   0.335086328931941 1
force O   0.666953523621485  -0.127454022568939  -0.349046537264471 1
force O   0.413401564356827  -0.214766625195974   0.314426619943727 1
force O  -0.199673859150816   0.270038026573516   0.249711074625421 1
force O  -0.046107419470572  -0.310690689214030   0.420503402621310 1
force O  -0.540425549570510   0.227964334406896   0.277896289532009 1
force O   0.423003024853336  -0.014274474332027  -0.424510669586209 1
force O  -0.703120708119323   0.831402443809700   0.375000428069771 1
force O  -0.474602387551073   0.493488843602238   0.425993284592823 1
force O   0.376591200537364  -0.418834633792230  -0.057360576933355 1
force O  -0.508941903175438   0.037528788940269  -0.459118128500385 1
force O  -0.288251772209382  -0.087022907826405  -0.166767290499196 1
force O   0.108916845810455   0.081241753936481  -0.135031589953990 1
force O  -0.093201813902439   0.418156985870906  -0.236112560496527 1
force O   0.233688842596101   0.069497878255521   0.540187416371718 1
force O   0.148680324013673   0.713200549443507   0.080664340619137 1
force O  -0.098653043363878  -0.163564017044268   0.153701659760496 1
force O  -0.069976698681697  -0.166240539052398   0.349375908642895 1
force O   0.397979370202485  -0.806839015502385  -0.314823523533074 1
force O   0.089228652861835  -0.182791310136705   0.053032267512184 1
force O  -0.542167629112840  -0.180973013242911   0.385843382464244 1
force O   0.231891180651512  -0.092551894947712   0.005832773879350 1
force O  -0.676901571814943   0.296537561359628  -0.326535220648564 1
force O  -0.091133569015511  -0.279262270000956  -0.386196159006333 1
force O   0.028306199508084   0.144018539743554  -0.158854648056555 1
force O  -0.238477076523767   0.528916222088372  -0.306484358353767 1
force O   0.496688431716330  -0.440232784700266   0.513490908202274 1
force O  -0.197524215524777   0.362965513591183   0.155768868416581 1
force O  -0.021580008326965  -0.147671467577479  -0.116013681821102 1
force O   0.361982196685838  -0.669055175557863   0.177405315175050 1
force O   0.583848557417605  -0.110583068234091  -0.325368949137269 1
force O   0.272513758995474   0.008161027829137   0.002046033062509 1
force O  -0.366325341860250   0.329558217031158   0.360526167479711 1
force O   0.053009311172641   0.612032958349353   0.073305232477046 1
force O  -0.246960257374277   0.465974372248620  -0.231381485264699 1
force O  -0.567664244358403   0.214695531860615  -0.525369778338296 1
force O   0.301423320534487  -0.007421885784075   0.045103867831540 1
force O   0.220514810001415  -0.407836826978329  -0.304487647943910 1
force O   0.497827045853660  -0.051927117863871   0.228192771668158 1
force O  -0.383452881675638   0.790302778756938   0.059829275130609 1
force O  -0.022373262740846  -0.547905369140266  -0.054480630209772 1
force O   0.198580898211692  -0.482565506703733   0.257605399176468 1
force O   0.619716476770168  -0.471910413905553  -0.422204125028294 1
force O  -0.059699698133752   0.002158600876599  -0.150855846798191 1
force O  -0.597762797750234   0.690730670661378   0.638792443944108 1
force O   0.212796088920332  -0.361847489989792  -0.087422100664668 1
force O  -0.308996313953392   0.420265747692157  -0.168482215809488 1
force O   0.253140613084431  -0.753611927460921  -0.321648071425064 1

# Energy components:
   Eewald =    -2400.6506116557616224
       EH =      682.6111073495978872
     Eloc =    -2231.0347140725120880
      Enl =      868.1317410276022883
      Exc =    -1200.0412440139002683
 Exc_core =      661.9967051260994140
       KE =      548.6951662756114274
-------------------------------------
     Etot =    -3070.2918499632628482
       TS =        0.1204504678506885
-------------------------------------
        F =    -3070.4123004311136356

IonicMinimize: Iter:   2  F: -3070.412300431113636  |grad|_K:  1.876e-02  alpha:  2.151e-01  linmin: -9.914e-01  t[s]:  17687.46

#--- Lowdin population analysis ---
# oxidation-state Bi +1.294 +1.259 +1.338 +1.225 +1.364 +1.329 +1.276 +1.213 +1.292 +1.215 +1.316 +1.270 +1.304 +1.343 +1.292 +1.287 +1.305 +1.239 +1.227 +1.306 +1.187 +1.257 +1.262 +1.290 +1.198 +1.273 +1.317 +1.187 +1.354 +1.319 +1.321 +1.289
# oxidation-state O -0.765 -0.787 -0.784 -0.814 -0.770 -0.803 -0.803 -0.758 -0.795 -0.778 -0.768 -0.787 -0.772 -0.804 -0.800 -0.795 -0.773 -0.814 -0.767 -0.768 -0.777 -0.776 -0.770 -0.811 -0.767 -0.794 -0.786 -0.805 -0.756 -0.799 -0.770 -0.765 -0.785 -0.770 -0.800 -0.782 -0.766 -0.812 -0.773 -0.818 -0.768 -0.810 -0.752 -0.762 -0.749 -0.773 -0.793 -0.785


-------- Electronic minimization -----------
Will mix electronic density at each iteration.
	FillingsUpdate:  mu: +0.396798033  nElectrons: 768.000000
	FillingsUpdate:  mu: +0.395327932  nElectrons: 768.000000
SCF: Cycle:  0   F: -3069.580997319310427   dF: -6.966e-01   |Residual|: 6.527e-01   |deigs|: 2.987e-03  t[s]:  18211.60
	FillingsUpdate:  mu: +0.397572928  nElectrons: 768.000000
SCF: Cycle:  1   F: -3070.236011730114114   dF: -6.550e-01   |Residual|: 4.606e-01   |deigs|: 5.143e-03  t[s]:  18611.24
	FillingsUpdate:  mu: +0.396237791  nElectrons: 768.000000
SCF: Cycle:  2   F: -3070.393918920799479   dF: -1.579e-01   |Residual|: 2.127e-01   |deigs|: 2.684e-03  t[s]:  18991.43
	FillingsUpdate:  mu: +0.397785767  nElectrons: 768.000000
SCF: Cycle:  3   F: -3070.516935848512730   dF: -1.230e-01   |Residual|: 8.376e-02   |deigs|: 1.793e-03  t[s]:  19367.60
	FillingsUpdate:  mu: +0.397221365  nElectrons: 768.000000
SCF: Cycle:  4   F: -3070.525189849424351   dF: -8.254e-03   |Residual|: 4.320e-02   |deigs|: 6.296e-04  t[s]:  19708.89
	FillingsUpdate:  mu: +0.397244100  nElectrons: 768.000000
SCF: Cycle:  5   F: -3070.526619340228081   dF: -1.429e-03   |Residual|: 2.711e-02   |deigs|: 3.724e-04  t[s]:  20047.67
	FillingsUpdate:  mu: +0.397280930  nElectrons: 768.000000
SCF: Cycle:  6   F: -3070.527925338674322   dF: -1.306e-03   |Residual|: 7.695e-03   |deigs|: 1.871e-04  t[s]:  20381.16
	FillingsUpdate:  mu: +0.397321184  nElectrons: 768.000000
SCF: Cycle:  7   F: -3070.528012760954880   dF: -8.742e-05   |Residual|: 5.187e-03   |deigs|: 6.710e-05  t[s]:  20594.79
	FillingsUpdate:  mu: +0.397317024  nElectrons: 768.000000
SCF: Cycle:  8   F: -3070.528047243830770   dF: -3.448e-05   |Residual|: 2.456e-03   |deigs|: 3.160e-05  t[s]:  20853.04
	FillingsUpdate:  mu: +0.397301274  nElectrons: 768.000000
SCF: Cycle:  9   F: -3070.528055372020390   dF: -8.128e-06   |Residual|: 1.130e-03   |deigs|: 1.993e-05  t[s]:  21073.05
	FillingsUpdate:  mu: +0.397297472  nElectrons: 768.000000
SCF: Cycle: 10   F: -3070.528057396662007   dF: -2.025e-06   |Residual|: 4.330e-04   |deigs|: 7.820e-06  t[s]:  21293.33
	FillingsUpdate:  mu: +0.397299412  nElectrons: 768.000000
SCF: Cycle: 11   F: -3070.528057670824182   dF: -2.742e-07   |Residual|: 2.922e-04   |deigs|: 3.392e-06  t[s]:  21515.23
	FillingsUpdate:  mu: +0.397297642  nElectrons: 768.000000
SCF: Cycle: 12   F: -3070.528057811667622   dF: -1.408e-07   |Residual|: 1.742e-04   |deigs|: 2.174e-06  t[s]:  21737.97
	FillingsUpdate:  mu: +0.397297231  nElectrons: 768.000000
SCF: Cycle: 13   F: -3070.528057873700163   dF: -6.203e-08   |Residual|: 7.447e-05   |deigs|: 1.430e-06  t[s]:  21959.63
	FillingsUpdate:  mu: +0.397296916  nElectrons: 768.000000
SCF: Cycle: 14   F: -3070.528057887754130   dF: -1.405e-08   |Residual|: 3.607e-05   |deigs|: 4.700e-07  t[s]:  22179.66
	FillingsUpdate:  mu: +0.397296950  nElectrons: 768.000000
SCF: Cycle: 15   F: -3070.528057892728611   dF: -4.974e-09   |Residual|: 1.611e-05   |deigs|: 2.478e-07  t[s]:  22396.73
	FillingsUpdate:  mu: +0.397296854  nElectrons: 768.000000
SCF: Cycle: 16   F: -3070.528057894956419   dF: -2.228e-09   |Residual|: 9.999e-06   |deigs|: 1.188e-07  t[s]:  22618.06
SCF: Converged (|Delta E|<1.000000e-08 for 2 iters).

Setting wave functions to eigenvectors of Hamiltonian

# Ionic positions in lattice coordinates:
ion Bi   0.234899638220679   0.063974667899247   0.339500991704242 1
ion Bi   0.018567219570329   0.140595619712210   0.531341513838721 1
ion Bi   0.266621178650669   0.163872609812851   0.806437135002179 1
ion Bi   0.464827839829075   0.119421641744735   0.042141257162321 1
ion Bi   0.216779309238506   0.324176637679976   0.180726279098864 1
ion Bi   0.272598800097604   0.425750730388496   0.682627752819354 1
ion Bi   0.486797142190295   0.358333842316508   0.469600328962908 1
ion Bi   0.011883567232371   0.384314983446902   0.987747193108588 1
ion Bi   0.228663410938688   0.566077997368275   0.307240927946073 1
ion Bi   0.016283444626465   0.644545763119980   0.549475860112249 1
ion Bi   0.251275939885449   0.672454371717923   0.805624188408333 1
ion Bi   0.488402166322624   0.602468489105718   0.046553401025206 1
ion Bi   0.244614115423339   0.831298684487006   0.174455842480488 1
ion Bi   0.267649599861516   0.926890371545927   0.709479063344027 1
ion Bi   0.475960259499757   0.855153517687773   0.450942763366237 1
ion Bi   0.023106612065254   0.891924654708211   0.966669009848518 1
ion Bi   0.738473151758327   0.058093808885202   0.299561714131014 1
ion Bi   0.539587726924460   0.130861830398010   0.531554150733289 1
ion Bi   0.765422648942576   0.202041820167590   0.826232945803199 1
ion Bi   0.989635418130201   0.101911768199399   0.035488925192731 1
ion Bi   0.738272709360508   0.322054210203749   0.184821172009031 1
ion Bi   0.756897001496656   0.425277058309127   0.689648401977528 1
ion Bi   0.982173656937059   0.366400419962271   0.467065691462043 1
ion Bi   0.530080151638230   0.391143144212950   0.964846890791832 1
ion Bi   0.746063888770133   0.560738358977617   0.315478201641365 1
ion Bi   0.500559602195816   0.645297050492835   0.541601394258318 1
ion Bi   0.765972716808675   0.684948353732477   0.811014782193356 1
ion Bi   0.975442067334902   0.609634387207287   0.048709739192197 1
ion Bi   0.743656621557310   0.816517920996636   0.174082862700335 1
ion Bi   0.742762786972470   0.928466087831906   0.690655655093349 1
ion Bi   0.984942792850323   0.866780435281450   0.452891022643548 1
ion Bi   0.526960281068347   0.875115773019054   0.960425033290762 1
ion O   0.393833178403086   0.097674107874698   0.761948115099079 1
ion O   0.355039762685342   0.225557940864817   0.076143755596623 1
ion O   0.340454090720538   0.447801602012627   0.986039108109039 1
ion O   0.382687315924366   0.480970108036756   0.430465378935850 1
ion O   0.107554768308024   0.164395787468252   0.257379757661241 1
ion O   0.144693544893332   0.264908045276395   0.919806340698984 1
ion O   0.341579215728216   0.190438124598083   0.518769994209394 1
ion O   0.108450257926954   0.408043491523150   0.219338455035610 1
ion O   0.139820944773346   0.305159026315423   0.473356397123596 1
ion O   0.398799322005633   0.354127363674354   0.720304028208879 1
ion O   0.164691590850668   0.059484264895210   0.018621318901235 1
ion O   0.139588295455284   0.014497269913533   0.573772261472172 1
ion O   0.379441024415570   0.594764421299419   0.783854456813699 1
ion O   0.371052152223812   0.729936038714482   0.073793322418926 1
ion O   0.341314650311741   0.946119469413673   0.977541133668717 1
ion O   0.359963802828442   0.962368115132679   0.422540495443030 1
ion O   0.109686512392605   0.654244067867070   0.281852564648792 1
ion O   0.130029294835215   0.772167115877507   0.911892929572040 1
ion O   0.346465292756177   0.701763453079693   0.510615306765746 1
ion O   0.105613671805565   0.909930931489157   0.216994198256662 1
ion O   0.157755752395089   0.816928093034585   0.476382602430301 1
ion O   0.386675443241693   0.843116080090511   0.718802750880458 1
ion O   0.155669869419283   0.558260725364214   0.023474024555978 1
ion O   0.127375819070834   0.520145857937740   0.583722178302718 1
ion O   0.892370267881468   0.083500399329702   0.779857490556680 1
ion O   0.884851643735673   0.229078640756579   0.100191562578637 1
ion O   0.840989549162893   0.442722550252868   0.971378714245001 1
ion O   0.872716047821777   0.482344139843464   0.429059070129382 1
ion O   0.610998689742829   0.152924472189025   0.276784101531034 1
ion O   0.621421339099311   0.281356043940201   0.905826788138452 1
ion O   0.839151334667880   0.180022422384732   0.522693449529303 1
ion O   0.607957310281299   0.400026288833197   0.222520601905261 1
ion O   0.658069726841977   0.300704978563932   0.480829127689183 1
ion O   0.892933735966306   0.335096837194556   0.717876949917419 1
ion O   0.641996617321514   0.045056468719621   0.024170654103407 1
ion O   0.643723043930369   0.014299247279451   0.572501981180690 1
ion O   0.880684437496902   0.595263841192168   0.789965684830706 1
ion O   0.882623977039764   0.751153854752190   0.086275908920220 1
ion O   0.844050067642890   0.937475936351250   1.002386609089388 1
ion O   0.888238613534665   0.973152056865290   0.419430354741268 1
ion O   0.606559138794234   0.660293719438413   0.277269129395281 1
ion O   0.627877137499586   0.774316661588357   0.914718597688448 1
ion O   0.843116100833822   0.694777177644606   0.533355883192494 1
ion O   0.608478292406610   0.898840672486862   0.222856016635641 1
ion O   0.651307550870869   0.802449280954714   0.471578793842118 1
ion O   0.886760975334993   0.857727353556588   0.724536947303512 1
ion O   0.653927458943589   0.552753803182272   0.014707929700492 1
ion O   0.638877903379353   0.524834640326633   0.592994687005008 1

# Forces in Lattice coordinates:
force Bi   0.246587999182599   0.510067830393657  -0.084030971423833 1
force Bi  -0.494473570481593   0.121593089488238   0.064527767826856 1
force Bi  -0.766047563203191   1.108188834485603   0.065513656993436 1
force Bi   0.389238694314234  -0.730953143204722  -0.087756681064892 1
force Bi   1.424267709408907  -1.320845933982106  -0.112932552913774 1
force Bi  -0.181673214379401   0.078597838234373   0.154388480577646 1
force Bi  -0.359843213662216  -0.003799313923434   0.111349767202163 1
force Bi  -0.022374605719198   0.163650300716455  -0.574410608530751 1
force Bi  -0.256930713398479   0.853731738271390  -0.038371932846896 1
force Bi   0.010086948026299   0.352417235702592  -0.188052000025466 1
force Bi   0.376508248964701  -0.242346097071148   0.221224878547532 1
force Bi  -0.266027566272837   0.191653591311302  -0.106524853456798 1
force Bi  -0.176673394353441  -0.060457439336683   0.020938158922955 1
force Bi   0.064604679685865  -0.515852556294067  -0.215603143839077 1
force Bi  -0.081801412742010   0.286271977201415   0.139070591452359 1
force Bi  -0.148854246564398  -0.110049219824524  -0.269518301907167 1
force Bi  -0.219351927088361   0.369510907093499  -0.174657327512840 1
force Bi  -0.058787580989353   0.183654706549880  -0.065117095073920 1
force Bi   0.495309832204962  -1.599510350595640  -0.071872834189922 1
force Bi  -0.188835836862404   0.391800544451627  -0.224118953100233 1
force Bi  -0.168868949308645  -0.109010839995786   0.278902392393532 1
force Bi   0.107103087942103   0.343320659578361  -0.070447414392079 1
force Bi   0.085824982839152  -0.401521584353894   0.176800190346444 1
force Bi  -0.668232564626980   0.217686960517515  -0.024001932452131 1
force Bi  -0.745474834505403   0.857288473030996   0.334363556877697 1
force Bi   0.600051404915785  -0.524482902387195  -0.155731443507439 1
force Bi   0.238136266547868  -0.154913060110711  -0.365070295193270 1
force Bi   0.193787715623588   0.048895468831381  -0.198761669836846 1
force Bi  -0.332875171466233   0.191448690969320   0.338857890665294 1
force Bi   1.051792790850632  -0.548419750731727   0.031847003625993 1
force Bi  -0.159318802236309  -0.248052707562190   0.451344559299283 1
force Bi  -0.421182114470156   0.547042989590985   0.215359912627893 1
force O   0.561130203409749  -0.538552703013027   0.309280078719983 1
force O   0.549191975416659  -0.041556880535839  -0.346108344422448 1
force O   0.424686240397106  -0.262778720064026   0.290019166393619 1
force O  -0.197639762539507   0.250542058480881   0.259942740800068 1
force O  -0.026794867806191  -0.296162661462605   0.365766134117697 1
force O  -0.462756545881692   0.196198838082689   0.279068715269687 1
force O   0.426089983048089  -0.054045189982427  -0.378904570867851 1
force O  -0.502663956057709   0.567170738899413   0.273791853377973 1
force O  -0.436457070510556   0.471929598047988   0.409291370538496 1
force O   0.291447045525180  -0.346651120289335  -0.043999934740131 1
force O  -0.498828873134441   0.098051837664890  -0.436120897789702 1
force O  -0.225619271873686  -0.100699294674681  -0.174060427029139 1
force O   0.114137924943221   0.035369400111969  -0.106884104848642 1
force O  -0.122030242567515   0.392992248936990  -0.244480135983172 1
force O   0.228455694668338   0.007492255644769   0.474870655479185 1
force O   0.104201157426418   0.695748786222564   0.112728450575275 1
force O  -0.103753004319894  -0.135666339681103   0.144136799327355 1
force O  -0.035396954013977  -0.202840841704986   0.347258944556733 1
force O   0.404438369331841  -0.753368235796206  -0.302769894270630 1
force O   0.078705251718694  -0.173892717011027   0.034496860996747 1
force O  -0.513537832072359  -0.159229466410197   0.391210111320146 1
force O   0.209930705347738  -0.087635330173579  -0.005268681112531 1
force O  -0.651154496385110   0.334668517453659  -0.316034099317228 1
force O  -0.040133987838526  -0.303195875198021  -0.378418337831778 1
force O   0.001547705075588   0.167466944365312  -0.131139800013965 1
[...]
force Bi   0.001092608137057   0.003760335143886   0.001061558625021 1
force Bi  -0.000553230408620   0.002672211815396   0.002012357393907 1
force Bi   0.001019274252570  -0.004104115452612  -0.002974522535477 1
force Bi   0.000227172885951  -0.000817270807666  -0.001847538167244 1
force Bi   0.000483400558412   0.001318535803175   0.001147760485956 1
force Bi   0.003898661913149   0.001528786169811  -0.002676928790005 1
force Bi  -0.000092710595748   0.001095609421419   0.000955126271545 1
force Bi   0.001325337697732   0.001744129582447   0.001616461702616 1
force Bi  -0.001202657703282   0.001598237619062   0.000587991445474 1
force Bi  -0.002276729311784   0.001780326553510  -0.002036929765313 1
force O   0.001593730584571   0.002903992118640  -0.002235229712473 1
force O  -0.000122812160519   0.000551781053189   0.003382102181912 1
force O   0.001326761241716  -0.001507069750182   0.001145073768026 1
force O   0.004278929825087  -0.000996956372028   0.000837615778003 1
force O   0.002471233922915  -0.006498202450361  -0.001814923217312 1
force O  -0.005525237495560   0.001680598261898  -0.001321436454827 1
force O  -0.002614201263147  -0.001338426995398   0.000063830478547 1
force O   0.002472044652192  -0.001898003634224   0.002308954639798 1
force O   0.001356957773092   0.002052639791931  -0.001952418904899 1
force O   0.001208244395047   0.003257323728337   0.002677072113776 1
force O  -0.003720966791716   0.001887302495696   0.001437167426845 1
force O  -0.000381624105033  -0.003600241999920   0.000751318502586 1
force O   0.004714292149658   0.004073056476346  -0.002536025035245 1
force O   0.001218302465081   0.001414688746105  -0.001221691880851 1
force O  -0.006557554533917   0.003304150731919  -0.000896818322925 1
force O   0.001327736624888  -0.001822452522757   0.000508489140146 1
force O  -0.000019852505365  -0.000034961132524  -0.001908253638663 1
force O  -0.000715281083676   0.000796665583697   0.001286561947750 1
force O   0.001807598781669  -0.001406124955141  -0.000492367713791 1
force O   0.001071712145909  -0.001966005783620   0.004108311516593 1
force O   0.000870513649307   0.001640755211374   0.001189185024992 1
force O   0.000127804946242   0.003957617124572   0.001567260208448 1
force O   0.000386981233266   0.003926478498093  -0.000704856534085 1
force O   0.001215015545525  -0.001164377904604  -0.001134085871580 1
force O  -0.000983695846143   0.004021665317916  -0.000515529605807 1
force O  -0.002255975393608  -0.002149318123991  -0.004032009318798 1
force O  -0.005973979501658   0.001520650629896   0.001472576180023 1
force O   0.000759617104058   0.002970221214082   0.001260757099467 1
force O  -0.003503892650698  -0.003752973227904  -0.001949696540685 1
force O   0.001105076961738  -0.009623715161248  -0.001105941251733 1
force O  -0.003483161666451   0.002526241172363   0.001971353334367 1
force O   0.004106364387981  -0.006844611771279   0.001635736154620 1
force O   0.002884069966494  -0.000477822046894   0.000218358242428 1
force O   0.001726500595400   0.007311300988158   0.003758690877738 1
force O  -0.000317829837887   0.000238632184081   0.000578725192916 1
force O  -0.004061296469859   0.002842416117977  -0.000487280007887 1
force O   0.002849324145390   0.003920181385455  -0.001189806881255 1
force O   0.004066498653613   0.001158321967619  -0.000464357791022 1
force O  -0.003512822330215  -0.003183714806502   0.000701384385151 1
force O   0.000075229678833   0.002093890876194   0.001047783975307 1
force O   0.000554671509734  -0.002460848414976  -0.002150897694553 1
force O   0.001727982551799  -0.008333847553632   0.002686043107025 1
force O  -0.002369924142871  -0.001217338128913  -0.000624757039008 1
force O  -0.002348565697223  -0.002271177984090   0.001067178781955 1
force O  -0.000008697741283   0.003514897062857   0.000787438138391 1
force O   0.001247933454987  -0.000388734604700   0.001549785974462 1
force O  -0.000629492620820  -0.003075346713191   0.000438683613409 1
force O  -0.000810997570468  -0.000684663662545  -0.004758043396386 1

# Energy components:
   Eewald =    -2368.6303966890645825
       EH =      714.5065213178610293
     Eloc =    -2298.2500468804901175
      Enl =      868.9741579071277329
      Exc =    -1201.8399276730001475
 Exc_core =      661.9966967424534232
       KE =      551.9126994397649923
-------------------------------------
     Etot =    -3071.3302958353478971
       TS =        0.0144462013481657
-------------------------------------
        F =    -3071.3447420366960614

IonicMinimize: Iter:  24  F: -3071.344742036696061  |grad|_K:  1.159e-04  alpha:  1.000e+00  linmin: -6.811e-01  t[s]: 122060.88

#--- Lowdin population analysis ---
# oxidation-state Bi +1.316 +1.335 +1.317 +1.335 +1.316 +1.317 +1.335 +1.335 +1.316 +1.335 +1.316 +1.335 +1.316 +1.316 +1.335 +1.335 +1.317 +1.335 +1.316 +1.335 +1.317 +1.316 +1.335 +1.335 +1.315 +1.335 +1.316 +1.335 +1.316 +1.316 +1.335 +1.335
# oxidation-state O -0.813 -0.806 -0.821 -0.806 -0.814 -0.806 -0.822 -0.813 -0.822 -0.813 -0.822 -0.806 -0.814 -0.806 -0.822 -0.806 -0.813 -0.806 -0.821 -0.813 -0.822 -0.814 -0.821 -0.806 -0.814 -0.806 -0.821 -0.806 -0.813 -0.806 -0.821 -0.814 -0.821 -0.814 -0.822 -0.806 -0.813 -0.806 -0.822 -0.806 -0.814 -0.806 -0.822 -0.813 -0.821 -0.814 -0.821 -0.806


-------- Electronic minimization -----------
Will mix electronic density at each iteration.
	FillingsUpdate:  mu: +0.409526815  nElectrons: 768.000000
	FillingsUpdate:  mu: +0.409549528  nElectrons: 768.000000
SCF: Cycle:  0   F: -3071.344736311246379   dF: -1.776e-04   |Residual|: 4.973e-03   |deigs|: 7.639e-07  t[s]: 122541.97
	FillingsUpdate:  mu: +0.409548160  nElectrons: 768.000000
SCF: Cycle:  1   F: -3071.344774337668696   dF: -3.803e-05   |Residual|: 2.624e-03   |deigs|: 1.253e-05  t[s]: 122780.51
	FillingsUpdate:  mu: +0.409545844  nElectrons: 768.000000
SCF: Cycle:  2   F: -3071.344780557589729   dF: -6.220e-06   |Residual|: 1.277e-03   |deigs|: 7.574e-06  t[s]: 123000.96
	FillingsUpdate:  mu: +0.409546167  nElectrons: 768.000000
SCF: Cycle:  3   F: -3071.344784653701481   dF: -4.096e-06   |Residual|: 3.838e-04   |deigs|: 4.116e-06  t[s]: 123219.18
	FillingsUpdate:  mu: +0.409545609  nElectrons: 768.000000
SCF: Cycle:  4   F: -3071.344785126664647   dF: -4.730e-07   |Residual|: 1.873e-04   |deigs|: 1.202e-06  t[s]: 123438.45
	FillingsUpdate:  mu: +0.409545654  nElectrons: 768.000000
SCF: Cycle:  5   F: -3071.344785296127611   dF: -1.695e-07   |Residual|: 7.425e-05   |deigs|: 6.195e-07  t[s]: 123659.55
	FillingsUpdate:  mu: +0.409545709  nElectrons: 768.000000
SCF: Cycle:  6   F: -3071.344785379408222   dF: -8.328e-08   |Residual|: 4.598e-05   |deigs|: 5.866e-07  t[s]: 123881.90
	FillingsUpdate:  mu: +0.409545528  nElectrons: 768.000000
SCF: Cycle:  7   F: -3071.344785404202867   dF: -2.479e-08   |Residual|: 2.295e-05   |deigs|: 3.432e-07  t[s]: 124104.86
	FillingsUpdate:  mu: +0.409545574  nElectrons: 768.000000
SCF: Cycle:  8   F: -3071.344785408554799   dF: -4.352e-09   |Residual|: 1.127e-05   |deigs|: 9.921e-08  t[s]: 124344.28
	FillingsUpdate:  mu: +0.409545601  nElectrons: 768.000000
SCF: Cycle:  9   F: -3071.344785410325130   dF: -1.770e-09   |Residual|: 6.122e-06   |deigs|: 7.192e-08  t[s]: 124563.41
SCF: Converged (|Delta E|<1.000000e-08 for 2 iters).

Setting wave functions to eigenvectors of Hamiltonian

# Ionic positions in lattice coordinates:
ion Bi   0.240141398091980   0.065551046536950   0.310641810367641 1
ion Bi   0.020330597108713   0.136996883777282   0.545780965804395 1
ion Bi   0.260687512172038   0.183307241190308   0.810789472482305 1
ion Bi   0.480108080097924   0.111664189322950   0.046092365867706 1
ion Bi   0.240006800323084   0.315469700920796   0.189636852904366 1
ion Bi   0.260080530382706   0.433237208801522   0.690094500279377 1
ion Bi   0.479744487861992   0.361651155828392   0.455106095122732 1
ion Bi   0.020196971587419   0.387049806089837   0.955036935627509 1
ion Bi   0.239436741169612   0.565311550060700   0.311251631951767 1
ion Bi   0.020021215935937   0.637009138949770   0.545946619892172 1
ion Bi   0.259978273440590   0.683412340179987   0.811425534211868 1
ion Bi   0.479662648479733   0.611650541965191   0.045816376985209 1
ion Bi   0.239583338621654   0.815412979383938   0.190289635706985 1
ion Bi   0.260522085466683   0.933439310197067   0.689600742669522 1
ion Bi   0.479742210653851   0.861737887082368   0.454969556754512 1
ion Bi   0.020374471161419   0.887034575699875   0.954594750015958 1
ion Bi   0.739916737265331   0.065403717326416   0.310341548647830 1
ion Bi   0.520622368189435   0.137328972686661   0.545798442903668 1
ion Bi   0.760441739679223   0.183246123055105   0.811391174238732 1
ion Bi   0.980284320320650   0.111475473333376   0.045759738292544 1
ion Bi   0.739712920218433   0.315698501575880   0.190209857873034 1
ion Bi   0.760250967199871   0.433165123186878   0.690108045030780 1
ion Bi   0.979667287422248   0.361205065597234   0.454969393855718 1
ion Bi   0.520351327608356   0.387369060250054   0.954786053375266 1
ion Bi   0.739481899755317   0.565600679041653   0.311497036759712 1
ion Bi   0.519739051363527   0.637274949261116   0.546202731004454 1
ion Bi   0.760216268301653   0.683262295177101   0.810458571845040 1
ion Bi   0.979447212512749   0.611353192754504   0.046150645323523 1
ion Bi   0.739905940059729   0.815395500385319   0.189580184540501 1
ion Bi   0.760287540532557   0.933345233851081   0.689518871260469 1
ion Bi   0.980083526313759   0.861700194068150   0.454792528478022 1
ion Bi   0.520206383599888   0.887144318165916   0.955358641038837 1
ion O   0.388883156379963   0.102709785116249   0.795350247563884 1
ion O   0.364753344081505   0.242174146509434   0.033901539774507 1
ion O   0.381997661126410   0.437855303075389   1.050840474573923 1
ion O   0.364098244223223   0.492147244759286   0.466892896060870 1
ion O   0.112071259091793   0.146186562912876   0.295238965854036 1
ion O   0.136042685262669   0.256551128549054   0.966514909622425 1
ion O   0.382395490947973   0.187914438551307   0.449294398053040 1
ion O   0.111473282089204   0.395762832355477   0.205522989820274 1
ion O   0.117789015482127   0.310685192491155   0.551808586041589 1
ion O   0.388379575285468   0.352605143139826   0.705570883934602 1
ion O   0.118364237087125   0.060846949647766  -0.050672905378214 1
ion O   0.135811243467548   0.006697118313439   0.533676225048679 1
ion O   0.387913190676599   0.602565862108781   0.795617045251641 1
ion O   0.364397602836119   0.742107153851963   0.034329882835985 1
ion O   0.382343236677792   0.937809236615485   1.052404306864324 1
ion O   0.364766274628332   0.992274565076083   0.466692267471546 1
ion O   0.111081655862395   0.645727038080316   0.295523469894610 1
ion O   0.135440375054677   0.756464516116246   0.967072747030441 1
ion O   0.381505563863639   0.687770430788347   0.449901042834740 1
ion O   0.111861853143616   0.896230651326276   0.205121018192470 1
ion O   0.118222771473616   0.810995949466830   0.551026098439035 1
ion O   0.388631846535211   0.852946311726996   0.705662372052524 1
ion O   0.117764985298561   0.560873100903345  -0.050384423144435 1
ion O   0.135296999653804   0.506356774608061   0.534311203446809 1
ion O   0.888825476120019   0.102827567316356   0.795255995510852 1
ion O   0.864568417860324   0.242242154157172   0.034377064886819 1
ion O   0.882199912483664   0.437833975206196   1.051278894348988 1
ion O   0.864372036045338   0.492082905095773   0.467047730014368 1
ion O   0.612189474394188   0.146352008373208   0.295300782859104 1
ion O   0.635775711608660   0.256731298465832   0.967023146431261 1
ion O   0.882387262392808   0.187657247147691   0.448900417826549 1
ion O   0.611532492055309   0.396280057524177   0.205494646351924 1
ion O   0.617902339305379   0.310981924511376   0.551269714438379 1
ion O   0.888018525490489   0.352271742065413   0.705491241260539 1
ion O   0.618308354931004   0.060866558663219  -0.049816380820603 1
ion O   0.635734976933479   0.006598781524124   0.533521984101461 1
ion O   0.888014574608648   0.602466702340685   0.795429682211360 1
ion O   0.864276709501170   0.742183288100525   0.033535263351973 1
ion O   0.882457161688726   0.937895053097849   1.051486209643770 1
ion O   0.864419983522012   0.991996022097081   0.466423452213099 1
ion O   0.611324692994242   0.646064911668926   0.295741737560755 1
ion O   0.635458908308559   0.756619756267037   0.966623343772609 1
ion O   0.881987977325342   0.687887000717055   0.449837255006297 1
ion O   0.611785541808209   0.895993064522852   0.205606986784628 1
ion O   0.617693560445927   0.810868441899330   0.551809505262905 1
ion O   0.888673663848133   0.852951989412750   0.705280172969039 1
ion O   0.617832305624030   0.561093964169352  -0.050943168190659 1
ion O   0.635491537576908   0.506602193862656   0.534630768953121 1

# Forces in Lattice coordinates:
force Bi  -0.005852924664866   0.003953383118535   0.001310851060774 1
force Bi   0.001768720815523   0.002606964441856   0.000080223132552 1
force Bi  -0.003714820083270   0.003844029986204  -0.000147748999253 1
force Bi   0.001327869289614   0.000840532155213  -0.001873803250025 1
force Bi  -0.003044207085528  -0.000860960211933   0.000203824760589 1
force Bi   0.001679306682227  -0.000728069788851  -0.000042129540733 1
force Bi  -0.000312099687926   0.000643399039577   0.000038582794227 1
force Bi   0.000766896875099  -0.000851389264220   0.000453626150787 1
force Bi   0.002734222372085  -0.002859886682452   0.000224520985657 1
force Bi   0.000932860370083   0.000651294629836   0.002285191814642 1
force Bi   0.001890509575267  -0.003304633642307  -0.002040873886106 1
force Bi   0.001304924453414   0.000055454156740   0.000325791042946 1
force Bi   0.000823522953135  -0.003221723940556  -0.002267138509580 1
force Bi  -0.003086075849866   0.002259211687707   0.002592547920313 1
force Bi   0.007609359593387  -0.006886041315685   0.002267914189654 1
force Bi  -0.005453136020837   0.007081770624243   0.000515127155011 1
force Bi   0.001602019664070  -0.001226833616951   0.000510540865210 1
force Bi  -0.001277602929811   0.003159287914521   0.000328129630057 1
force Bi   0.002357657684071   0.001502189308153  -0.000042918163031 1
force Bi  -0.001967914270616   0.003776564221646  -0.000012219262103 1
force Bi   0.000832139265853  -0.003511954397280  -0.001771050290957 1
force Bi   0.000040283677442   0.002292100683011  -0.000050435302283 1
force Bi   0.001861515088279   0.000799465019723   0.001900930202127 1
force Bi  -0.001160446119068  -0.000908498717537   0.000625654170939 1
force Bi  -0.000629205607547  -0.003076621789028   0.000493915526622 1
force Bi   0.001918760403746  -0.002266945396165  -0.000075182836573 1
force Bi  -0.002350570784450   0.002753492232179   0.000235092421860 1
force Bi   0.003278027983265  -0.000588379806231  -0.002702358937641 1
force Bi  -0.001841946578406   0.000541454029234  -0.000214005831241 1
force Bi   0.000785815894911   0.000753583708057   0.002958468886230 1
force Bi  -0.003844740826437   0.001618241746142   0.000750472267772 1
force Bi   0.004667714095667  -0.003996972691455  -0.002959409281195 1
force O   0.002706053876885  -0.000926435829055  -0.000217075593925 1
force O   0.000646367530424   0.001084330043414   0.001096485572426 1
force O  -0.000494552924295   0.000928712338901   0.001150809419563 1
force O   0.003369004495585  -0.003680045032110   0.000479351413507 1
force O   0.000601097394080  -0.003205096837173  -0.002096579023451 1
force O  -0.003407727341243   0.001886396220343   0.000128153247489 1
force O  -0.000597985173264  -0.002558107579324   0.000223567508303 1
force O   0.000163660002573   0.000028592183577   0.000389112256833 1
force O  -0.000557131654107   0.003015577398518  -0.001310932462060 1
force O  -0.000476440193850   0.003464955913036  -0.000058119214151 1
force O   0.000607466132898  -0.001304035343338  -0.000031177244307 1
force O   0.002774995316293  -0.003655147931620  -0.000195745387766 1
force O   0.002021870539191   0.002068928063327  -0.001346390217172 1
force O  -0.001754314701816   0.001862457383779   0.000345182581462 1
force O  -0.006020145843967   0.003399463801832  -0.000235871358250 1
force O  -0.000258231797246  -0.000463073055740  -0.001573880409153 1
force O  -0.000174312665136   0.000942719917616  -0.001898458372358 1
force O   0.000594642809519   0.001818668754698   0.001734924607119 1
force O  -0.000466026925754   0.002682847887456  -0.001380946100671 1
force O   0.000050201759636  -0.003010690884988   0.003048837205908 1
force O   0.002669605070601  -0.001132177644239   0.000564648517465 1
force O  -0.001353655919794   0.001998051869614  -0.001168881231014 1
force O  -0.000756918395446   0.002806156845947   0.000225927933297 1
force O  -0.000353847297824  -0.000104599853445  -0.000838140118629 1
force O  -0.001987161971047   0.001568610934995  -0.000303129878795 1
force O  -0.000002460993056  -0.002410245691046  -0.000110877187334 1
force O  -0.005033175805860   0.002635422952237   0.001005801803176 1
force O  -0.001245977382332   0.002276113936343  -0.001678555455617 1
force O  -0.004852318525658   0.000794481242854  -0.000460954399938 1
force O  -0.000760112480704  -0.004142685266449  -0.001155482041983 1
force O  -0.003481369295074   0.001618036666537   0.000894407589535 1
force O   0.001593428890263  -0.002880632079314   0.000841379133146 1
force O   0.003073274029984  -0.003116243491129  -0.000123558329937 1
force O   0.005053913893151  -0.000110777768269   0.000789934374396 1
force O  -0.001984279728729   0.003395072018431   0.000224476081705 1
force O  -0.002117637844864   0.000732889698130   0.001304616614679 1
force O   0.002614745270687   0.000952555851682   0.000431711116483 1
force O   0.004228837183004  -0.001355876076925   0.002925950936030 1
force O  -0.001013617685506  -0.004007362000701  -0.000630192775307 1
force O   0.000870213500705   0.001762259659235  -0.000994668352688 1
force O   0.000907733384783  -0.000906154939433  -0.001944041659303 1
force O   0.001501656591239  -0.000813947663934   0.001226974246338 1
force O  -0.001514586643571   0.000020119709021  -0.000251344085181 1
force O  -0.000206734149641  -0.001548369629838   0.002430425051321 1
force O  -0.002872364709352   0.002012591454313  -0.002702202504210 1
force O  -0.000100899453443  -0.001071704392551  -0.000010998020977 1
force O   0.000540848827418  -0.002591516594967   0.001285886402818 1
force O   0.000359683983273   0.000201276644022  -0.002110885950793 1

# Energy components:
   Eewald =    -2368.5752568503567090
       EH =      714.5607333449494263
     Eloc =    -2298.3607088835069590
      Enl =      868.9746350043093344
      Exc =    -1201.8406557318749037
 Exc_core =      661.9966987233494820
       KE =      551.9142067896926847
-------------------------------------
     Etot =    -3071.3303476034379855
       TS =        0.0144378068870532
-------------------------------------
        F =    -3071.3447854103251302

IonicMinimize: Iter:  25  F: -3071.344785410325130  |grad|_K:  9.432e-05  alpha:  1.000e+00  linmin: -2.545e-01  t[s]: 124623.37
IonicMinimize: Converged (|grad|_K<1.000000e-04).

#--- Lowdin population analysis ---
# oxidation-state Bi +1.316 +1.336 +1.316 +1.335 +1.316 +1.317 +1.335 +1.335 +1.316 +1.335 +1.316 +1.335 +1.316 +1.316 +1.335 +1.335 +1.317 +1.335 +1.316 +1.335 +1.316 +1.316 +1.335 +1.335 +1.315 +1.335 +1.317 +1.335 +1.316 +1.316 +1.335 +1.335
# oxidation-state O -0.814 -0.806 -0.822 -0.806 -0.813 -0.806 -0.822 -0.813 -0.822 -0.813 -0.822 -0.806 -0.813 -0.806 -0.822 -0.806 -0.813 -0.806 -0.822 -0.813 -0.822 -0.814 -0.822 -0.806 -0.814 -0.806 -0.821 -0.806 -0.813 -0.806 -0.822 -0.813 -0.822 -0.813 -0.822 -0.806 -0.813 -0.806 -0.822 -0.806 -0.814 -0.806 -0.822 -0.813 -0.822 -0.814 -0.822 -0.806


Dumping '/data/rc652/Bi2O3/ion/Bi2O3_ion.Ecomponents' ... done
End date and time: Thu Jul  4 13:20:24 2024  (Duration: 1-10:37:41.63)
Done!
