--------------------------------------------------------------------------
[[44696,1],0]: A high-performance Open MPI point-to-point messaging module
was unable to find any relevant network interfaces:

Module: OpenFabrics (openib)
  Host: node3211

Another transport will be used instead, although this may result in
lower performance.
--------------------------------------------------------------------------

*************** JDFTx 1.7.0  ***************

Start date and time: Sat Oct  7 16:50:43 2023
Executable jdftx with command-line: -i /home/cam559/Valla_project/Zr/Zr16.in
Running on hosts (process indices):  node3211.physics.cornell.edu (0-9)
Divided in process groups (process indices):  0 (0)  1 (1)  2 (2)  3 (3)  4 (4)  5 (5)  6 (6)  7 (7)  8 (8)  9 (9)
Resource initialization completed at t[s]:      0.00
Run totals: 10 processes, 40 threads, 0 GPUs


Input parsed successfully to the following command list (including defaults):

basis kpoint-dependent
coords-type Cartesian
core-overlap-check vector
coulomb-interaction Periodic
davidson-band-ratio 1.1
dump End Ecomponents
dump-name Zr16.$VAR
elec-cutoff 20 100
elec-eigen-algo Davidson
elec-ex-corr gga-PBE
elec-smearing Fermi 0.004
electronic-minimize  \
	dirUpdateScheme      FletcherReeves \
	linminMethod         DirUpdateRecommended \
	nIterations          100 \
	history              15 \
	knormThreshold       0 \
	energyDiffThreshold  1e-08 \
	nEnergyDiff          2 \
	alphaTstart          1 \
	alphaTmin            1e-10 \
	updateTestStepSize   yes \
	alphaTreduceFactor   0.1 \
	alphaTincreaseFactor 3 \
	nAlphaAdjustMax      3 \
	wolfeEnergy          0.0001 \
	wolfeGradient        0.9 \
	fdTest               no
exchange-regularization WignerSeitzTruncated
fluid None
fluid-ex-corr lda-TF lda-PZ
fluid-gummel-loop 10 1.000000e-05
fluid-minimize  \
	dirUpdateScheme      PolakRibiere \
	linminMethod         DirUpdateRecommended \
	nIterations          100 \
	history              15 \
	knormThreshold       0 \
	energyDiffThreshold  0 \
	nEnergyDiff          2 \
	alphaTstart          1 \
	alphaTmin            1e-10 \
	updateTestStepSize   yes \
	alphaTreduceFactor   0.1 \
	alphaTincreaseFactor 3 \
	nAlphaAdjustMax      3 \
	wolfeEnergy          0.0001 \
	wolfeGradient        0.9 \
	fdTest               no
fluid-solvent H2O 55.338 ScalarEOS \
	epsBulk 78.4 \
	pMol 0.92466 \
	epsInf 1.77 \
	Pvap 1.06736e-10 \
	sigmaBulk 4.62e-05 \
	Rvdw 2.61727 \
	Res 1.42 \
	tauNuc 343133 \
	poleEl 15 7 1
forces-output-coords Positions
initial-state Zr16.$VAR
ion Zr   0.000000000000000   0.000000000000000   0.000000000000000 1
ion Zr   0.000000000000000   3.526222000000000   4.863210000000000 1
ion Zr   0.000000000000000   0.000000000000000   9.726420000000001 1
ion Zr   0.000000000000000   3.526222000000000  14.589631000000001 1
ion Zr  -3.053797000000000   5.289332000000001   0.000000000000000 1
ion Zr  -3.053797000000000   8.815554000000002   4.863210000000000 1
ion Zr  -3.053797000000000   5.289332000000001   9.726420000000001 1
ion Zr  -3.053797000000000   8.815554000000002  14.589631000000001 1
ion Zr   6.107595000000002   0.000000000000000   0.000000000000000 1
ion Zr   6.107595000000002   3.526222000000000   4.863210000000000 1
ion Zr   6.107595000000002   0.000000000000000   9.726420000000001 1
ion Zr   6.107595000000002   3.526222000000000  14.589631000000001 1
ion Zr   3.053797000000001   5.289332000000001   0.000000000000000 1
ion Zr   3.053796999999999   8.815554000000002   4.863210000000000 1
ion Zr   3.053797000000001   5.289332000000001   9.726420000000001 1
ion Zr   3.053796999999999   8.815554000000002  14.589631000000001 1
ion-species GBRV/$ID_pbe.uspp
ion-width 0
ionic-minimize  \
	dirUpdateScheme      L-BFGS \
	linminMethod         DirUpdateRecommended \
	nIterations          0 \
	history              15 \
	knormThreshold       0.0001 \
	energyDiffThreshold  1e-06 \
	nEnergyDiff          2 \
	alphaTstart          1 \
	alphaTmin            1e-10 \
	updateTestStepSize   yes \
	alphaTreduceFactor   0.1 \
	alphaTincreaseFactor 3 \
	nAlphaAdjustMax      3 \
	wolfeEnergy          0.0001 \
	wolfeGradient        0.9 \
	fdTest               no
kpoint   0.000000000000   0.000000000000   0.000000000000  1.00000000000000
kpoint-folding 6 6 6 
latt-move-scale 1 1 1
latt-scale 1 1 1 
lattice  \
	  12.215190000000000   -6.107595000000000    0.000000000000000  \
	   0.000000000000000   10.578665000000001    0.000000000000000  \
	   0.000000000000000    0.000000000000000   19.452840999999999 
lattice-minimize  \
	dirUpdateScheme      L-BFGS \
	linminMethod         DirUpdateRecommended \
	nIterations          30 \
	history              15 \
	knormThreshold       0 \
	energyDiffThreshold  1e-05 \
	nEnergyDiff          2 \
	alphaTstart          1 \
	alphaTmin            1e-10 \
	updateTestStepSize   yes \
	alphaTreduceFactor   0.1 \
	alphaTincreaseFactor 3 \
	nAlphaAdjustMax      3 \
	wolfeEnergy          0.0001 \
	wolfeGradient        0.9 \
	fdTest               no
lcao-params -1 1e-06 0.004
pcm-variant GLSSA13
spintype no-spin
subspace-rotation-factor 1 yes
symmetries automatic
symmetry-threshold 0.0001



---------- Setting up symmetries ----------

Found 24 point-group symmetries of the bravais lattice
Found 192 space-group symmetries with basis
Applied RMS atom displacement 5.41667e-07 bohrs to make symmetries exact.

---------- Initializing the Grid ----------
R = 
[      12.2152     -6.10759            0  ]
[            0      10.5787            0  ]
[            0            0      19.4528  ]
unit cell volume = 2513.7
G =
[   0.514375   0.296974         -0  ]
[          0   0.593949          0  ]
[          0         -0   0.322996  ]
Minimum fftbox size, Smin = [  56  56  88  ]
Chosen fftbox size, S = [  56  56  90  ]

---------- Initializing tighter grid for wavefunction operations ----------
R = 
[      12.2152     -6.10759            0  ]
[            0      10.5787            0  ]
[            0            0      19.4528  ]
unit cell volume = 2513.7
G =
[   0.514375   0.296974         -0  ]
[          0   0.593949          0  ]
[          0         -0   0.322996  ]
Minimum fftbox size, Smin = [  52  52  80  ]
Chosen fftbox size, S = [  54  54  80  ]

---------- Exchange Correlation functional ----------
Initalized PBE GGA exchange.
Initalized PBE GGA correlation.

---------- Setting up pseudopotentials ----------
Width of ionic core gaussian charges (only for fluid interactions / plotting) set to 0

Reading pseudopotential file '/home/cam559/JDFTx/build/pseudopotentials/GBRV/zr_pbe.uspp':
  Title: Zr.  Created by USPP 7.3.6 on 14-9-2013
  Reference state energy: -49.308156.  12 valence electrons in orbitals:
    |400>  occupation: 2  eigenvalue: -2.002953
    |410>  occupation: 6  eigenvalue: -1.192957
    |420>  occupation: 2  eigenvalue: -0.132269
    |500>  occupation: 2  eigenvalue: -0.163143
    |510>  occupation: 0  eigenvalue: -0.053997
  lMax: 2  lLocal: 3  QijEcut: 5
  6 projectors sampled on a log grid with 625 points:
    l: 0  eig: -2.002953  rCut: 1.8
    l: 0  eig: -0.132269  rCut: 1.8
    l: 1  eig: -1.192956  rCut: 2
    l: 1  eig: 0.150000  rCut: 2
    l: 2  eig: -0.163145  rCut: 2.2
    l: 2  eig: 0.150000  rCut: 2.2
  Partial core density with radius 1.2
  Transforming core density to a uniform radial grid of dG=0.02 with 1619 points.
  Transforming local potential to a uniform radial grid of dG=0.02 with 1619 points.
  Transforming nonlocal projectors to a uniform radial grid of dG=0.02 with 432 points.
  Transforming density augmentations to a uniform radial grid of dG=0.02 with 1619 points.
  Transforming atomic orbitals to a uniform radial grid of dG=0.02 with 432 points.
  Core radius for overlap checks: 2.20 bohrs.

Initialized 1 species with 16 total atoms.

Folded 1 k-points by 6x6x6 to 216 k-points.

---------- Setting up k-points, bands, fillings ----------
Adding inversion symmetry to k-mesh for non-inversion-symmetric unit cell.
Reduced to 28 k-points under symmetry. 
Computing the number of bands and number of electrons
Calculating initial fillings.
nElectrons: 192.000000   nBands: 208   nStates: 28

----- Setting up reduced wavefunction bases (one per k-point) -----
average nbasis = 10739.449 , ideal nbasis = 10738.735

---------- Setting up ewald sum ----------
Optimum gaussian width for ewald sums = 3.417130 bohr.
Real space sum over 847 unit cells with max indices [  5  5  3  ]
Reciprocal space sum over 4725 terms with max indices [  7  7  10  ]

---------- Allocating electronic variables ----------
Initializing wave functions:  linear combination of atomic orbitals
Zr pseudo-atom occupations:   s ( 2 2 )  p ( 6 0 )  d ( 2 )
	FillingsUpdate:  mu: +0.521516982  nElectrons: 192.000000
LCAOMinimize: Iter:   0  F: -755.2283883444746380  |grad|_K:  1.466e-04  alpha:  1.000e+00
	FillingsUpdate:  mu: +0.524178338  nElectrons: 192.000000
LCAOMinimize: Iter:   1  F: -755.2377072743865938  |grad|_K:  5.864e-06  alpha:  7.067e-01  linmin:  2.467e-03  cgtest: -2.290e-02  t[s]:     80.28
	FillingsUpdate:  mu: +0.524148612  nElectrons: 192.000000
LCAOMinimize: Iter:   2  F: -755.2377256193079802  |grad|_K:  4.271e-07  alpha:  8.732e-01  linmin: -4.482e-03  cgtest:  3.534e-02  t[s]:    108.35
	FillingsUpdate:  mu: +0.524145336  nElectrons: 192.000000
LCAOMinimize: Iter:   3  F: -755.2377257092517766  |grad|_K:  6.514e-08  alpha:  8.062e-01  linmin: -2.361e-05  cgtest: -3.330e-03  t[s]:    136.36
	FillingsUpdate:  mu: +0.524145773  nElectrons: 192.000000
LCAOMinimize: Iter:   4  F: -755.2377257115442717  |grad|_K:  1.788e-09  alpha:  8.965e-01  linmin:  4.063e-02  cgtest: -1.826e-01  t[s]:    164.29
LCAOMinimize: Converged (|Delta F|<1.000000e-06 for 2 iters).


---- Citations for features of the code used in this run ----

   Software package:
      R. Sundararaman, K. Letchworth-Weaver, K.A. Schwarz, D. Gunceler, Y. Ozhabes and T.A. Arias, 'JDFTx: software for joint density-functional theory', SoftwareX 6, 278 (2017)

   gga-PBE exchange-correlation functional:
      J.P. Perdew, K. Burke and M. Ernzerhof, Phys. Rev. Lett. 77, 3865 (1996)

   Pseudopotentials:
      KF Garrity, JW Bennett, KM Rabe and D Vanderbilt, Comput. Mater. Sci. 81, 446 (2014)

   Total energy minimization with Auxiliary Hamiltonian:
      C. Freysoldt, S. Boeck, and J. Neugebauer, Phys. Rev. B 79, 241103(R) (2009)

This list may not be complete. Please suggest additional citations or
report any other bugs at https://github.com/shankar1729/jdftx/issues

Initialization completed successfully at t[s]:    181.42


--------- Lattice Minimization ---------

-------- Electronic minimization -----------
	FillingsUpdate:  mu: +0.524145773  nElectrons: 192.000000
ElecMinimize: Iter:   0  F: -755.237725711545977  |grad|_K:  3.388e-05  alpha:  1.000e+00
	FillingsUpdate:  mu: +0.519662682  nElectrons: 192.000000
	SubspaceRotationAdjust: set factor to 1
ElecMinimize: Iter:   1  F: -755.306332058453677  |grad|_K:  1.764e-05  alpha:  9.462e-01  linmin:  2.198e-04  t[s]:    324.08
	FillingsUpdate:  mu: +0.519285634  nElectrons: 192.000000
	SubspaceRotationAdjust: set factor to 1.19
ElecMinimize: Iter:   2  F: -755.320328564248030  |grad|_K:  8.358e-06  alpha:  7.123e-01  linmin:  5.433e-05  t[s]:    421.89
	FillingsUpdate:  mu: +0.519164263  nElectrons: 192.000000
	SubspaceRotationAdjust: set factor to 1.33
ElecMinimize: Iter:   3  F: -755.322918173422750  |grad|_K:  3.996e-06  alpha:  5.876e-01  linmin:  3.692e-05  t[s]:    520.22
	FillingsUpdate:  mu: +0.519191572  nElectrons: 192.000000
	SubspaceRotationAdjust: set factor to 1.34
ElecMinimize: Iter:   4  F: -755.323491384395084  |grad|_K:  2.105e-06  alpha:  5.714e-01  linmin:  2.221e-05  t[s]:    621.76
	FillingsUpdate:  mu: +0.519185678  nElectrons: 192.000000
	SubspaceRotationAdjust: set factor to 1.48
ElecMinimize: Iter:   5  F: -755.323651213890344  |grad|_K:  1.066e-06  alpha:  5.743e-01  linmin:  9.674e-06  t[s]:    722.16
	FillingsUpdate:  mu: +0.519166209  nElectrons: 192.000000
	SubspaceRotationAdjust: set factor to 1.7
ElecMinimize: Iter:   6  F: -755.323691588181418  |grad|_K:  5.322e-07  alpha:  5.645e-01  linmin:  3.270e-06  t[s]:    825.02
	FillingsUpdate:  mu: +0.519171366  nElectrons: 192.000000
	SubspaceRotationAdjust: set factor to 1.74
ElecMinimize: Iter:   7  F: -755.323701403022369  |grad|_K:  2.464e-07  alpha:  5.492e-01  linmin:  2.832e-06  t[s]:    925.62
	FillingsUpdate:  mu: +0.519176994  nElectrons: 192.000000
	SubspaceRotationAdjust: set factor to 1.75
ElecMinimize: Iter:   8  F: -755.323703927014776  |grad|_K:  1.273e-07  alpha:  6.599e-01  linmin:  1.976e-06  t[s]:   1025.23
	FillingsUpdate:  mu: +0.519173085  nElectrons: 192.000000
	SubspaceRotationAdjust: set factor to 1.87
ElecMinimize: Iter:   9  F: -755.323704515314830  |grad|_K:  6.408e-08  alpha:  5.766e-01  linmin: -2.832e-07  t[s]:   1123.95
	FillingsUpdate:  mu: +0.519173203  nElectrons: 192.000000
	SubspaceRotationAdjust: set factor to 1.83
ElecMinimize: Iter:  10  F: -755.323704659825239  |grad|_K:  3.282e-08  alpha:  5.566e-01  linmin: -2.069e-07  t[s]:   1224.77
	FillingsUpdate:  mu: +0.519174080  nElectrons: 192.000000
	SubspaceRotationAdjust: set factor to 1.97
ElecMinimize: Iter:  11  F: -755.323704700183725  |grad|_K:  1.757e-08  alpha:  5.928e-01  linmin:  5.705e-08  t[s]:   1323.53
	FillingsUpdate:  mu: +0.519173652  nElectrons: 192.000000
	SubspaceRotationAdjust: set factor to 1.89
ElecMinimize: Iter:  12  F: -755.323704711334472  |grad|_K:  8.389e-09  alpha:  5.710e-01  linmin: -3.145e-08  t[s]:   1423.53
	FillingsUpdate:  mu: +0.519173739  nElectrons: 192.000000
	SubspaceRotationAdjust: set factor to 1.95
ElecMinimize: Iter:  13  F: -755.323704714159817  |grad|_K:  4.152e-09  alpha:  6.261e-01  linmin: -1.820e-07  t[s]:   1528.06
	FillingsUpdate:  mu: +0.519173728  nElectrons: 192.000000
	SubspaceRotationAdjust: set factor to 1.92
ElecMinimize: Iter:  14  F: -755.323704714782821  |grad|_K:  2.220e-09  alpha:  6.315e-01  linmin:  9.184e-08  t[s]:   1627.44
ElecMinimize: Converged (|Delta F|<1.000000e-08 for 2 iters).
Setting wave functions to eigenvectors of Hamiltonian
# Lattice vectors:
R = 
[      12.2152     -6.10759            0  ]
[            0      10.5787            0  ]
[            0            0      19.4528  ]
unit cell volume = 2513.7

# Strain tensor in Cartesian coordinates:
[            0            0            0  ]
[            0            0            0  ]
[            0            0            0  ]

# Stress tensor in Cartesian coordinates [Eh/a0^3]:
[ -1.07599e-05            0            0  ]
[            0 -1.07599e-05            0  ]
[            0            0 -3.26073e-05  ]

# Ionic positions in cartesian coordinates:
ion Zr   0.000000000000000  -0.000000083333333  -0.000000124999999 1
ion Zr   0.000000000000000   3.526221583333334   4.863210125000000 1
ion Zr   0.000000000000000  -0.000000083333333   9.726420375000000 1
ion Zr   0.000000000000000   3.526221583333334  14.589630625000000 1
ion Zr  -3.053797499999999   5.289332416666667  -0.000000124999999 1
ion Zr  -3.053797499999999   8.815554083333334   4.863210125000000 1
ion Zr  -3.053797499999999   5.289332416666667   9.726420375000000 1
ion Zr  -3.053797499999999   8.815554083333334  14.589630625000000 1
ion Zr   6.107595000000000  -0.000000083333333  -0.000000124999999 1
ion Zr   6.107595000000001   3.526221583333334   4.863210125000000 1
ion Zr   6.107595000000000  -0.000000083333333   9.726420375000000 1
ion Zr   6.107595000000001   3.526221583333334  14.589630625000000 1
ion Zr   3.053797500000000   5.289332416666667  -0.000000124999999 1
ion Zr   3.053797500000001   8.815554083333334   4.863210125000000 1
ion Zr   3.053797500000000   5.289332416666667   9.726420375000000 1
ion Zr   3.053797500000001   8.815554083333334  14.589630625000000 1

# Forces in Cartesian coordinates:
force Zr  -0.000000000000000   0.000000000000000   0.000000000000000 1
force Zr   0.000000000000000   0.000000000000000  -0.000000000000000 1
force Zr  -0.000000000000000  -0.000000000000000   0.000000000000000 1
force Zr   0.000000000000000   0.000000000000000   0.000000000000000 1
force Zr   0.000000000000000   0.000000000000000   0.000000000000000 1
force Zr   0.000000000000000  -0.000000000000000   0.000000000000000 1
force Zr   0.000000000000000   0.000000000000000  -0.000000000000000 1
force Zr   0.000000000000000  -0.000000000000000   0.000000000000000 1
force Zr  -0.000000000000000  -0.000000000000000  -0.000000000000000 1
force Zr   0.000000000000000   0.000000000000000  -0.000000000000000 1
force Zr  -0.000000000000000  -0.000000000000000  -0.000000000000000 1
force Zr  -0.000000000000000  -0.000000000000000   0.000000000000000 1
force Zr  -0.000000000000000  -0.000000000000000   0.000000000000000 1
force Zr   0.000000000000000   0.000000000000000  -0.000000000000000 1
force Zr  -0.000000000000000   0.000000000000000  -0.000000000000000 1
force Zr   0.000000000000000  -0.000000000000000   0.000000000000000 1

# Energy components:
   Eewald =     -616.5495054188861559
       EH =      108.8185975943050465
     Eloc =     -456.1986793499768282
      Enl =       89.9298835068936171
      Exc =     -142.1738786766157432
 Exc_core =       37.9097213736923564
       KE =      222.9650493343160065
-------------------------------------
     Etot =     -755.2988116362716937
       TS =        0.0248930785111306
-------------------------------------
        F =     -755.3237047147828207

LatticeMinimize: Iter:   0  F: -755.323704714782821  |grad|_K:  6.652e-03  t[s]:   1660.12

#--- Lowdin population analysis ---
# oxidation-state Zr +0.007 +0.007 +0.007 +0.007 +0.007 +0.007 +0.007 +0.007 +0.007 +0.007 +0.007 +0.007 +0.007 +0.007 +0.007 +0.007


-------- Electronic minimization -----------
	FillingsUpdate:  mu: +0.518723979  nElectrons: 192.000000
ElecMinimize: Iter:   0  F: -755.323745468293055  |grad|_K:  1.735e-07  alpha:  1.000e+00
	FillingsUpdate:  mu: +0.518730485  nElectrons: 192.000000
	SubspaceRotationAdjust: set factor to 2.22
ElecMinimize: Iter:   1  F: -755.323746433189513  |grad|_K:  2.834e-08  alpha:  5.072e-01  linmin: -2.019e-06  t[s]:   1872.79
	FillingsUpdate:  mu: +0.518727034  nElectrons: 192.000000
	SubspaceRotationAdjust: set factor to 1.36
ElecMinimize: Iter:   2  F: -755.323746453175886  |grad|_K:  1.069e-08  alpha:  3.933e-01  linmin:  3.790e-07  t[s]:   1974.95
	FillingsUpdate:  mu: +0.518727822  nElectrons: 192.000000
	SubspaceRotationAdjust: set factor to 1.08
ElecMinimize: Iter:   3  F: -755.323746459278709  |grad|_K:  4.446e-09  alpha:  8.185e-01  linmin: -2.157e-06  t[s]:   2071.70
	FillingsUpdate:  mu: +0.518727723  nElectrons: 192.000000
	SubspaceRotationAdjust: set factor to 1.14
ElecMinimize: Iter:   4  F: -755.323746460024495  |grad|_K:  2.270e-09  alpha:  6.289e-01  linmin: -1.197e-06  t[s]:   2171.57
ElecMinimize: Converged (|Delta F|<1.000000e-08 for 2 iters).
Setting wave functions to eigenvectors of Hamiltonian
# Lattice vectors:
R = 
[       12.217     -6.10849            0  ]
[            0      10.5802            0  ]
[            0            0      19.4615  ]
unit cell volume = 2515.55

# Strain tensor in Cartesian coordinates:
[    0.0001463            0            0  ]
[            0    0.0001463            0  ]
[            0            0  0.000443356  ]

# Stress tensor in Cartesian coordinates [Eh/a0^3]:
[ -8.68348e-06            0            0  ]
[            0 -8.68348e-06            0  ]
[            0            0 -2.94623e-05  ]

# Ionic positions in cartesian coordinates:
ion Zr   0.000000000000000  -0.000000083345525  -0.000000125055419 1
ion Zr   0.000000000000000   3.526737470766035   4.865366257373429 1
ion Zr   0.000000000000000  -0.000000083345525   9.730732639802275 1
ion Zr   0.000000000000000   3.526737470766035  14.596099022231124 1
ion Zr  -3.054244271614026   5.290106247821816  -0.000000125055419 1
ion Zr  -3.054244271614026   8.816843801933375   4.865366257373429 1
ion Zr  -3.054244271614026   5.290106247821816   9.730732639802275 1
ion Zr  -3.054244271614026   8.816843801933375  14.596099022231124 1
ion Zr   6.108488543228054  -0.000000083345525  -0.000000125055419 1
ion Zr   6.108488543228052   3.526737470766035   4.865366257373429 1
ion Zr   6.108488543228054  -0.000000083345525   9.730732639802275 1
ion Zr   6.108488543228052   3.526737470766035  14.596099022231124 1
ion Zr   3.054244271614027   5.290106247821816  -0.000000125055419 1
ion Zr   3.054244271614026   8.816843801933375   4.865366257373429 1
ion Zr   3.054244271614027   5.290106247821816   9.730732639802275 1
ion Zr   3.054244271614026   8.816843801933375  14.596099022231124 1

# Forces in Cartesian coordinates:
force Zr   0.000000000000000  -0.000000000000000   0.000000000000000 1
force Zr  -0.000000000000000   0.000000000000000  -0.000000000000000 1
force Zr   0.000000000000000  -0.000000000000000  -0.000000000000000 1
force Zr  -0.000000000000000   0.000000000000000   0.000000000000000 1
force Zr   0.000000000000000   0.000000000000000   0.000000000000000 1
force Zr  -0.000000000000000   0.000000000000000  -0.000000000000000 1
force Zr  -0.000000000000000   0.000000000000000  -0.000000000000000 1
force Zr  -0.000000000000000   0.000000000000000  -0.000000000000000 1
force Zr  -0.000000000000000  -0.000000000000000  -0.000000000000000 1
force Zr  -0.000000000000000   0.000000000000000   0.000000000000000 1
force Zr   0.000000000000000  -0.000000000000000  -0.000000000000000 1
force Zr  -0.000000000000000   0.000000000000000   0.000000000000000 1
force Zr   0.000000000000000  -0.000000000000000   0.000000000000000 1
force Zr   0.000000000000000   0.000000000000000  -0.000000000000000 1
force Zr   0.000000000000000  -0.000000000000000  -0.000000000000000 1
force Zr   0.000000000000000   0.000000000000000  -0.000000000000000 1

# Energy components:
   Eewald =     -616.3996056873738780
       EH =      108.8768539768798007
     Eloc =     -456.3968845660886586
      Enl =       89.9283437227256286
      Exc =     -142.1686145201709905
 Exc_core =       37.9097216058106739
       KE =      222.9513559402711564
-------------------------------------
     Etot =     -755.2988295279461681
       TS =        0.0249169320783520
-------------------------------------
        F =     -755.3237464600244948

LatticeMinimize: Iter:   1  F: -755.323746460024495  |grad|_K:  5.905e-03  alpha:  1.000e+00  linmin: -9.991e-01  t[s]:   2204.71

#--- Lowdin population analysis ---
# oxidation-state Zr +0.007 +0.007 +0.007 +0.007 +0.007 +0.007 +0.007 +0.007 +0.007 +0.007 +0.007 +0.007 +0.007 +0.007 +0.007 +0.007


-------- Electronic minimization -----------
	FillingsUpdate:  mu: +0.515642811  nElectrons: 192.000000
ElecMinimize: Iter:   0  F: -755.323852598461599  |grad|_K:  9.819e-07  alpha:  1.000e+00
	FillingsUpdate:  mu: +0.515700419  nElectrons: 192.000000
	SubspaceRotationAdjust: set factor to 2.07
ElecMinimize: Iter:   1  F: -755.323899783368802  |grad|_K:  3.267e-07  alpha:  7.737e-01  linmin:  4.604e-06  t[s]:   2416.43
	FillingsUpdate:  mu: +0.515667437  nElectrons: 192.000000
	SubspaceRotationAdjust: set factor to 2.18
ElecMinimize: Iter:   2  F: -755.323902757834503  |grad|_K:  7.129e-08  alpha:  4.415e-01  linmin: -4.226e-07  t[s]:   2517.72
	FillingsUpdate:  mu: +0.515667742  nElectrons: 192.000000
	SubspaceRotationAdjust: set factor to 2.01
ElecMinimize: Iter:   3  F: -755.323902917976625  |grad|_K:  3.152e-08  alpha:  4.988e-01  linmin:  1.381e-07  t[s]:   2616.60
	FillingsUpdate:  mu: +0.515668498  nElectrons: 192.000000
	SubspaceRotationAdjust: set factor to 1.85
ElecMinimize: Iter:   4  F: -755.323902959965835  |grad|_K:  2.043e-08  alpha:  6.705e-01  linmin:  5.221e-07  t[s]:   2714.41
	FillingsUpdate:  mu: +0.515668048  nElectrons: 192.000000
	SubspaceRotationAdjust: set factor to 1.91
ElecMinimize: Iter:   5  F: -755.323902974400767  |grad|_K:  8.913e-09  alpha:  5.473e-01  linmin: -3.767e-07  t[s]:   2814.79
	FillingsUpdate:  mu: +0.515668279  nElectrons: 192.000000
	SubspaceRotationAdjust: set factor to 2.01
ElecMinimize: Iter:   6  F: -755.323902976959289  |grad|_K:  3.463e-09  alpha:  5.157e-01  linmin: -8.355e-07  t[s]:   2911.64
	FillingsUpdate:  mu: +0.515668278  nElectrons: 192.000000
	SubspaceRotationAdjust: set factor to 1.87
ElecMinimize: Iter:   7  F: -755.323902977409716  |grad|_K:  2.137e-09  alpha:  6.481e-01  linmin:  4.135e-06  t[s]:   3012.07
ElecMinimize: Converged (|Delta F|<1.000000e-08 for 2 iters).
Setting wave functions to eigenvectors of Hamiltonian
# Lattice vectors:
R = 
[      12.2284      -6.1142            0  ]
[            0      10.5901            0  ]
[            0            0      19.5236  ]
unit cell volume = 2528.3

# Strain tensor in Cartesian coordinates:
[   0.00108149            0            0  ]
[            0   0.00108149            0  ]
[            0            0   0.00363506  ]

# Stress tensor in Cartesian coordinates [Eh/a0^3]:
[  5.10621e-06            0            0  ]
[            0  5.10621e-06            0  ]
[            0            0 -7.55898e-06  ]

# Ionic positions in cartesian coordinates:
ion Zr   0.000000000000000  -0.000000083423457  -0.000000125454382 1
ion Zr   0.000000000000000   3.530035169549170   4.880888182955911 1
ion Zr   0.000000000000000  -0.000000083423457   9.761776491366202 1
ion Zr   0.000000000000000   3.530035169549170  14.642664799776496 1
ion Zr  -3.057100162481885   5.295052796035484  -0.000000125454382 1
ion Zr  -3.057100162481885   8.825088049008111   4.880888182955911 1
ion Zr  -3.057100162481885   5.295052796035484   9.761776491366202 1
ion Zr  -3.057100162481885   8.825088049008111  14.642664799776496 1
ion Zr   6.114200324963770  -0.000000083423457  -0.000000125454382 1
ion Zr   6.114200324963770   3.530035169549170   4.880888182955911 1
ion Zr   6.114200324963770  -0.000000083423457   9.761776491366202 1
ion Zr   6.114200324963770   3.530035169549170  14.642664799776496 1
ion Zr   3.057100162481885   5.295052796035484  -0.000000125454382 1
ion Zr   3.057100162481885   8.825088049008111   4.880888182955911 1
ion Zr   3.057100162481885   5.295052796035484   9.761776491366202 1
ion Zr   3.057100162481885   8.825088049008111  14.642664799776496 1

# Forces in Cartesian coordinates:
force Zr   0.000000000000000   0.000000000000000   0.000000000000000 1
force Zr   0.000000000000000   0.000000000000000   0.000000000000000 1
force Zr  -0.000000000000000  -0.000000000000000   0.000000000000000 1
force Zr  -0.000000000000000  -0.000000000000000  -0.000000000000000 1
force Zr   0.000000000000000   0.000000000000000   0.000000000000000 1
force Zr   0.000000000000000   0.000000000000000   0.000000000000000 1
force Zr   0.000000000000000   0.000000000000000   0.000000000000000 1
force Zr  -0.000000000000000   0.000000000000000  -0.000000000000000 1
force Zr  -0.000000000000000  -0.000000000000000   0.000000000000000 1
force Zr   0.000000000000000  -0.000000000000000   0.000000000000000 1
force Zr  -0.000000000000000  -0.000000000000000  -0.000000000000000 1
force Zr   0.000000000000000  -0.000000000000000   0.000000000000000 1
force Zr  -0.000000000000000  -0.000000000000000  -0.000000000000000 1
force Zr   0.000000000000000  -0.000000000000000   0.000000000000000 1
force Zr  -0.000000000000000   0.000000000000000   0.000000000000000 1
force Zr  -0.000000000000000  -0.000000000000000   0.000000000000000 1

# Energy components:
   Eewald =     -615.3714055371101495
       EH =      109.2770830034211968
     Eloc =     -457.7574299809118656
      Enl =       89.9179728087572840
      Exc =     -142.1325907695175204
 Exc_core =       37.9097232284010559
       KE =      222.8578320185463610
-------------------------------------
     Etot =     -755.2988152284135595
       TS =        0.0250877489961987
-------------------------------------
        F =     -755.3239029774097162

LatticeMinimize: Iter:   2  F: -755.323902977409716  |grad|_K:  1.944e-03  alpha:  1.000e+00  linmin: -4.035e-01  t[s]:   3045.86

#--- Lowdin population analysis ---
# oxidation-state Zr +0.007 +0.007 +0.007 +0.007 +0.007 +0.007 +0.007 +0.007 +0.007 +0.007 +0.007 +0.007 +0.007 +0.007 +0.007 +0.007


-------- Electronic minimization -----------
	FillingsUpdate:  mu: +0.515827110  nElectrons: 192.000000
ElecMinimize: Iter:   0  F: -755.323919064466395  |grad|_K:  5.220e-07  alpha:  1.000e+00
	FillingsUpdate:  mu: +0.515825365  nElectrons: 192.000000
	SubspaceRotationAdjust: set factor to 0.936
ElecMinimize: Iter:   1  F: -755.323928359458932  |grad|_K:  5.180e-08  alpha:  5.390e-01  linmin: -5.392e-05  t[s]:   3254.65
	FillingsUpdate:  mu: +0.515827130  nElectrons: 192.000000
	SubspaceRotationAdjust: set factor to 0.652
ElecMinimize: Iter:   2  F: -755.323928481521421  |grad|_K:  2.969e-08  alpha:  7.193e-01  linmin:  7.882e-08  t[s]:   3353.42
	FillingsUpdate:  mu: +0.515826132  nElectrons: 192.000000
	SubspaceRotationAdjust: set factor to 1.06
ElecMinimize: Iter:   3  F: -755.323928518928938  |grad|_K:  1.330e-08  alpha:  6.717e-01  linmin: -8.334e-07  t[s]:   3452.51
	FillingsUpdate:  mu: +0.515826019  nElectrons: 192.000000
	SubspaceRotationAdjust: set factor to 1.4
ElecMinimize: Iter:   4  F: -755.323928526127816  |grad|_K:  7.583e-09  alpha:  6.393e-01  linmin:  7.295e-07  t[s]:   3549.74
	FillingsUpdate:  mu: +0.515825931  nElectrons: 192.000000
	SubspaceRotationAdjust: set factor to 1.34
ElecMinimize: Iter:   5  F: -755.323928527992734  |grad|_K:  3.011e-09  alpha:  5.154e-01  linmin: -2.555e-06  t[s]:   3647.30
ElecMinimize: Converged (|Delta F|<1.000000e-08 for 2 iters).
Setting wave functions to eigenvectors of Hamiltonian
# Lattice vectors:
R = 
[      12.2214      -6.1107            0  ]
[            0      10.5841            0  ]
[            0            0      19.5401  ]
unit cell volume = 2527.54

# Strain tensor in Cartesian coordinates:
[  0.000509145            0            0  ]
[            0  0.000509145            0  ]
[            0            0   0.00448311  ]

# Stress tensor in Cartesian coordinates [Eh/a0^3]:
[  2.98484e-06            0            0  ]
[            0  2.98484e-06            0  ]
[            0            0 -5.52795e-06  ]

# Ionic positions in cartesian coordinates:
ion Zr   0.000000000000000  -0.000000083375762  -0.000000125560389 1
ion Zr   0.000000000000000   3.528016940464517   4.885012452825833 1
ion Zr   0.000000000000000  -0.000000083375762   9.770025031212056 1
ion Zr   0.000000000000000   3.528016940464517  14.655037609598278 1
ion Zr  -3.055352324856103   5.292025452384657  -0.000000125560389 1
ion Zr  -3.055352324856103   8.820042476224934   4.885012452825833 1
ion Zr  -3.055352324856103   5.292025452384657   9.770025031212056 1
ion Zr  -3.055352324856103   8.820042476224934  14.655037609598278 1
ion Zr   6.110704649712209  -0.000000083375762  -0.000000125560389 1
ion Zr   6.110704649712208   3.528016940464517   4.885012452825833 1
ion Zr   6.110704649712209  -0.000000083375762   9.770025031212056 1
ion Zr   6.110704649712208   3.528016940464517  14.655037609598278 1
ion Zr   3.055352324856105   5.292025452384657  -0.000000125560389 1
ion Zr   3.055352324856104   8.820042476224934   4.885012452825833 1
ion Zr   3.055352324856105   5.292025452384657   9.770025031212056 1
ion Zr   3.055352324856104   8.820042476224934  14.655037609598278 1

# Forces in Cartesian coordinates:
force Zr  -0.000000000000000  -0.000000000000000   0.000000000000000 1
force Zr  -0.000000000000000  -0.000000000000000  -0.000000000000000 1
force Zr  -0.000000000000000   0.000000000000000  -0.000000000000000 1
force Zr   0.000000000000000   0.000000000000000  -0.000000000000000 1
force Zr   0.000000000000000   0.000000000000000  -0.000000000000000 1
force Zr   0.000000000000000   0.000000000000000  -0.000000000000000 1
force Zr  -0.000000000000000   0.000000000000000   0.000000000000000 1
force Zr   0.000000000000000  -0.000000000000000  -0.000000000000000 1
force Zr  -0.000000000000000  -0.000000000000000  -0.000000000000000 1
force Zr   0.000000000000000   0.000000000000000  -0.000000000000000 1
force Zr   0.000000000000000   0.000000000000000   0.000000000000000 1
force Zr  -0.000000000000000  -0.000000000000000   0.000000000000000 1
force Zr  -0.000000000000000   0.000000000000000  -0.000000000000000 1
force Zr  -0.000000000000000   0.000000000000000   0.000000000000000 1
force Zr   0.000000000000000   0.000000000000000   0.000000000000000 1
force Zr   0.000000000000000   0.000000000000000  -0.000000000000000 1

# Energy components:
   Eewald =     -615.4383072580751559
       EH =      109.2500201141388771
     Eloc =     -457.6679582337671377
      Enl =       89.9189706322074187
      Exc =     -142.1347408635625698
 Exc_core =       37.9097231017142988
       KE =      222.8634897130323793
-------------------------------------
     Etot =     -755.2988027943117686
       TS =        0.0251257336809361
-------------------------------------
        F =     -755.3239285279927344

LatticeMinimize: Iter:   3  F: -755.323928527992734  |grad|_K:  1.293e-03  alpha:  1.000e+00  linmin: -9.938e-01  t[s]:   3679.91

#--- Lowdin population analysis ---
# oxidation-state Zr +0.007 +0.007 +0.007 +0.007 +0.007 +0.007 +0.007 +0.007 +0.007 +0.007 +0.007 +0.007 +0.007 +0.007 +0.007 +0.007


-------- Electronic minimization -----------
	FillingsUpdate:  mu: +0.515877483  nElectrons: 192.000000
ElecMinimize: Iter:   0  F: -755.323915253591395  |grad|_K:  8.379e-07  alpha:  1.000e+00
	FillingsUpdate:  mu: +0.515877712  nElectrons: 192.000000
	SubspaceRotationAdjust: set factor to 2.45
ElecMinimize: Iter:   1  F: -755.323947842970369  |grad|_K:  1.219e-07  alpha:  7.336e-01  linmin:  4.096e-05  t[s]:   3886.51
	FillingsUpdate:  mu: +0.515877911  nElectrons: 192.000000
	SubspaceRotationAdjust: set factor to 2.33
ElecMinimize: Iter:   2  F: -755.323948320119825  |grad|_K:  4.395e-08  alpha:  5.083e-01  linmin: -1.558e-07  t[s]:   3984.51
	FillingsUpdate:  mu: +0.515877685  nElectrons: 192.000000
	SubspaceRotationAdjust: set factor to 2.26
ElecMinimize: Iter:   3  F: -755.323948409013724  |grad|_K:  2.672e-08  alpha:  7.284e-01  linmin: -9.464e-08  t[s]:   4083.45
	FillingsUpdate:  mu: +0.515877631  nElectrons: 192.000000
	SubspaceRotationAdjust: set factor to 1.96
ElecMinimize: Iter:   4  F: -755.323948434609974  |grad|_K:  1.140e-08  alpha:  5.664e-01  linmin: -7.795e-08  t[s]:   4181.33
	FillingsUpdate:  mu: +0.515877651  nElectrons: 192.000000
	SubspaceRotationAdjust: set factor to 1.54
ElecMinimize: Iter:   5  F: -755.323948438343109  |grad|_K:  4.680e-09  alpha:  4.586e-01  linmin: -2.314e-07  t[s]:   4280.18
	FillingsUpdate:  mu: +0.515877643  nElectrons: 192.000000
	SubspaceRotationAdjust: set factor to 1.49
ElecMinimize: Iter:   6  F: -755.323948439161541  |grad|_K:  2.766e-09  alpha:  5.838e-01  linmin:  3.141e-06  t[s]:   4377.38
ElecMinimize: Converged (|Delta F|<1.000000e-08 for 2 iters).
Setting wave functions to eigenvectors of Hamiltonian
# Lattice vectors:
R = 
[      12.2099     -6.10496            0  ]
[            0      10.5741            0  ]
[            0            0      19.5738  ]
unit cell volume = 2527.15

# Strain tensor in Cartesian coordinates:
[ -0.000431546            0            0  ]
[            0 -0.000431546            0  ]
[            0            0     0.006219  ]

# Stress tensor in Cartesian coordinates [Eh/a0^3]:
[  2.10883e-07            0            0  ]
[            0  2.10883e-07            0  ]
[            0            0 -2.43236e-07  ]

# Ionic positions in cartesian coordinates:
ion Zr   0.000000000000000  -0.000000083297371  -0.000000125777374 1
ion Zr  -0.000000000000000   3.524699855609897   4.893454413871594 1
ion Zr   0.000000000000000  -0.000000083297371   9.786908953520562 1
ion Zr  -0.000000000000000   3.524699855609897  14.680363493169532 1
ion Zr  -3.052479645158254   5.287049825063531  -0.000000125777374 1
ion Zr  -3.052479645158254   8.811749763970798   4.893454413871594 1
ion Zr  -3.052479645158254   5.287049825063531   9.786908953520562 1
ion Zr  -3.052479645158254   8.811749763970798  14.680363493169532 1
ion Zr   6.104959290316510  -0.000000083297371  -0.000000125777374 1
ion Zr   6.104959290316509   3.524699855609897   4.893454413871594 1
ion Zr   6.104959290316510  -0.000000083297371   9.786908953520562 1
ion Zr   6.104959290316509   3.524699855609897  14.680363493169532 1
ion Zr   3.052479645158255   5.287049825063531  -0.000000125777374 1
ion Zr   3.052479645158255   8.811749763970798   4.893454413871594 1
ion Zr   3.052479645158255   5.287049825063531   9.786908953520562 1
ion Zr   3.052479645158255   8.811749763970798  14.680363493169532 1

# Forces in Cartesian coordinates:
force Zr  -0.000000000000000  -0.000000000000000  -0.000000000000000 1
force Zr   0.000000000000000  -0.000000000000000   0.000000000000000 1
force Zr   0.000000000000000   0.000000000000000   0.000000000000000 1
force Zr   0.000000000000000  -0.000000000000000  -0.000000000000000 1
force Zr   0.000000000000000   0.000000000000000  -0.000000000000000 1
force Zr   0.000000000000000   0.000000000000000   0.000000000000000 1
force Zr   0.000000000000000  -0.000000000000000   0.000000000000000 1
force Zr  -0.000000000000000   0.000000000000000  -0.000000000000000 1
force Zr  -0.000000000000000  -0.000000000000000  -0.000000000000000 1
force Zr   0.000000000000000  -0.000000000000000   0.000000000000000 1
force Zr   0.000000000000000  -0.000000000000000   0.000000000000000 1
force Zr  -0.000000000000000   0.000000000000000   0.000000000000000 1
force Zr   0.000000000000000  -0.000000000000000  -0.000000000000000 1
force Zr   0.000000000000000   0.000000000000000  -0.000000000000000 1
force Zr   0.000000000000000   0.000000000000000   0.000000000000000 1
force Zr  -0.000000000000000  -0.000000000000000  -0.000000000000000 1

# Energy components:
   Eewald =     -615.4795856842820285
       EH =      109.2327078825475013
     Eloc =     -457.6124269165056262
      Enl =       89.9200409504458946
      Exc =     -142.1359266572659124
 Exc_core =       37.9097230087681396
       KE =      222.8667255445386672
-------------------------------------
     Etot =     -755.2987418717532364
       TS =        0.0252065674082601
-------------------------------------
        F =     -755.3239484391615406

LatticeMinimize: Iter:   4  F: -755.323948439161541  |grad|_K:  7.153e-05  alpha:  1.000e+00  linmin: -9.735e-01  t[s]:   4410.43

#--- Lowdin population analysis ---
# oxidation-state Zr +0.007 +0.007 +0.007 +0.007 +0.007 +0.007 +0.007 +0.007 +0.007 +0.007 +0.007 +0.007 +0.007 +0.007 +0.007 +0.007


-------- Electronic minimization -----------
	FillingsUpdate:  mu: +0.515910802  nElectrons: 192.000000
ElecMinimize: Iter:   0  F: -755.323948378480736  |grad|_K:  5.045e-08  alpha:  1.000e+00
	FillingsUpdate:  mu: +0.515910389  nElectrons: 192.000000
	SubspaceRotationAdjust: set factor to 2.25
ElecMinimize: Iter:   1  F: -755.323948484957896  |grad|_K:  6.751e-09  alpha:  6.625e-01  linmin:  3.173e-06  t[s]:   4616.58
	FillingsUpdate:  mu: +0.515910714  nElectrons: 192.000000
	SubspaceRotationAdjust: set factor to 2.12
ElecMinimize: Iter:   2  F: -755.323948486388872  |grad|_K:  3.296e-09  alpha:  4.992e-01  linmin:  4.810e-06  t[s]:   4713.00
	FillingsUpdate:  mu: +0.515910597  nElectrons: 192.000000
	SubspaceRotationAdjust: set factor to 2.09
ElecMinimize: Iter:   3  F: -755.323948486813379  |grad|_K:  2.365e-09  alpha:  6.658e-01  linmin:  2.229e-06  t[s]:   4809.12
ElecMinimize: Converged (|Delta F|<1.000000e-08 for 2 iters).
Setting wave functions to eigenvectors of Hamiltonian
# Lattice vectors:
R = 
[      12.2091     -6.10454            0  ]
[            0      10.5734            0  ]
[            0            0      19.5754  ]
unit cell volume = 2527

# Strain tensor in Cartesian coordinates:
[ -0.000500783            0            0  ]
[            0 -0.000500783            0  ]
[            0            0   0.00629904  ]

# Stress tensor in Cartesian coordinates [Eh/a0^3]:
[ -1.42797e-07            0            0  ]
[            0 -1.42797e-07            0  ]
[            0            0   -6.056e-08  ]

# Ionic positions in cartesian coordinates:
ion Zr   0.000000000000000  -0.000000083291601  -0.000000125787379 1
ion Zr   0.000000000000000   3.524455711435567   4.893843661944639 1
ion Zr   0.000000000000000  -0.000000083291601   9.787687449676657 1
ion Zr   0.000000000000000   3.524455711435567  14.681531237408675 1
ion Zr  -3.052268210104965   5.286683608799151  -0.000000125787379 1
ion Zr  -3.052268210104965   8.811139403526319   4.893843661944639 1
ion Zr  -3.052268210104965   5.286683608799151   9.787687449676657 1
ion Zr  -3.052268210104965   8.811139403526319  14.681531237408675 1
ion Zr   6.104536420209929  -0.000000083291601  -0.000000125787379 1
ion Zr   6.104536420209929   3.524455711435567   4.893843661944639 1
ion Zr   6.104536420209929  -0.000000083291601   9.787687449676657 1
ion Zr   6.104536420209929   3.524455711435567  14.681531237408675 1
ion Zr   3.052268210104965   5.286683608799151  -0.000000125787379 1
ion Zr   3.052268210104964   8.811139403526319   4.893843661944639 1
ion Zr   3.052268210104965   5.286683608799151   9.787687449676657 1
ion Zr   3.052268210104964   8.811139403526319  14.681531237408675 1

# Forces in Cartesian coordinates:
force Zr  -0.000000000000000   0.000000000000000  -0.000000000000000 1
force Zr  -0.000000000000000  -0.000000000000000   0.000000000000000 1
force Zr  -0.000000000000000   0.000000000000000   0.000000000000000 1
force Zr  -0.000000000000000   0.000000000000000  -0.000000000000000 1
force Zr  -0.000000000000000  -0.000000000000000   0.000000000000000 1
force Zr   0.000000000000000   0.000000000000000   0.000000000000000 1
force Zr  -0.000000000000000  -0.000000000000000  -0.000000000000000 1
force Zr  -0.000000000000000  -0.000000000000000   0.000000000000000 1
force Zr  -0.000000000000000  -0.000000000000000   0.000000000000000 1
force Zr  -0.000000000000000   0.000000000000000   0.000000000000000 1
force Zr   0.000000000000000   0.000000000000000  -0.000000000000000 1
force Zr  -0.000000000000000   0.000000000000000  -0.000000000000000 1
force Zr   0.000000000000000   0.000000000000000   0.000000000000000 1
force Zr   0.000000000000000   0.000000000000000   0.000000000000000 1
force Zr   0.000000000000000  -0.000000000000000   0.000000000000000 1
force Zr   0.000000000000000  -0.000000000000000  -0.000000000000000 1

# Energy components:
   Eewald =     -615.4921885664366528
       EH =      109.2277262337389345
     Eloc =     -457.5957039575554859
      Enl =       89.9202115190961706
      Exc =     -142.1363527549834203
 Exc_core =       37.9097229877515218
       KE =      222.8678461397422552
-------------------------------------
     Etot =     -755.2987383986467194
       TS =        0.0252100881666753
-------------------------------------
        F =     -755.3239484868133786

LatticeMinimize: Iter:   5  F: -755.323948486813379  |grad|_K:  3.918e-05  alpha:  1.000e+00  linmin:  5.625e-01  t[s]:   4841.81

#--- Lowdin population analysis ---
# oxidation-state Zr +0.007 +0.007 +0.007 +0.007 +0.007 +0.007 +0.007 +0.007 +0.007 +0.007 +0.007 +0.007 +0.007 +0.007 +0.007 +0.007


-------- Electronic minimization -----------
	FillingsUpdate:  mu: +0.515864930  nElectrons: 192.000000
ElecMinimize: Iter:   0  F: -755.323948477050408  |grad|_K:  1.647e-08  alpha:  1.000e+00
	FillingsUpdate:  mu: +0.515865489  nElectrons: 192.000000
	SubspaceRotationAdjust: set factor to 2.42
ElecMinimize: Iter:   1  F: -755.323948485044184  |grad|_K:  2.794e-09  alpha:  4.666e-01  linmin: -6.753e-06  t[s]:   5045.01
	FillingsUpdate:  mu: +0.515865233  nElectrons: 192.000000
	SubspaceRotationAdjust: set factor to 1.94
ElecMinimize: Iter:   2  F: -755.323948485182882  |grad|_K:  1.061e-09  alpha:  3.508e-01  linmin: -1.110e-05  t[s]:   5140.97
ElecMinimize: Converged (|Delta F|<1.000000e-08 for 2 iters).
Setting wave functions to eigenvectors of Hamiltonian
LatticeMinimize: 	Wolfe criterion not satisfied: alpha: 1  (E-E0)/|gdotd0|: 0.0657912  gdotd/gdotd0: -1.0555 (taking cubic step)

-------- Electronic minimization -----------
	FillingsUpdate:  mu: +0.515889982  nElectrons: 192.000000
ElecMinimize: Iter:   0  F: -755.323948489822101  |grad|_K:  8.518e-09  alpha:  1.000e+00
	FillingsUpdate:  mu: +0.515889674  nElectrons: 192.000000
	SubspaceRotationAdjust: set factor to 2
ElecMinimize: Iter:   1  F: -755.323948492029785  |grad|_K:  1.291e-09  alpha:  4.967e-01  linmin: -3.767e-06  t[s]:   5379.96
	FillingsUpdate:  mu: +0.515889866  nElectrons: 192.000000
	SubspaceRotationAdjust: set factor to 1.05
ElecMinimize: Iter:   2  F: -755.323948492063323  |grad|_K:  6.119e-10  alpha:  4.585e-01  linmin:  2.443e-05  t[s]:   5476.85
ElecMinimize: Converged (|Delta F|<1.000000e-08 for 2 iters).
Setting wave functions to eigenvectors of Hamiltonian
# Lattice vectors:
R = 
[      12.2092     -6.10462            0  ]
[            0      10.5735            0  ]
[            0            0      19.5755  ]
unit cell volume = 2527.09

# Strain tensor in Cartesian coordinates:
[  -0.00048632            0            0  ]
[            0  -0.00048632            0  ]
[            0            0   0.00630515  ]

# Stress tensor in Cartesian coordinates [Eh/a0^3]:
[ -9.18594e-09            0            0  ]
[            0 -9.18594e-09            0  ]
[            0            0 -6.65891e-09  ]

# Ionic positions in cartesian coordinates:
ion Zr   0.000000000000000  -0.000000083292806  -0.000000125788143 1
ion Zr   0.000000000000000   3.524506711890998   4.893873396674620 1
ion Zr   0.000000000000000  -0.000000083292806   9.787746919137382 1
ion Zr   0.000000000000000   3.524506711890998  14.681620441600145 1
ion Zr  -3.052312377794166   5.286760109482901  -0.000000125788143 1
ion Zr  -3.052312377794166   8.811266904666706   4.893873396674620 1
ion Zr  -3.052312377794166   5.286760109482901   9.787746919137382 1
ion Zr  -3.052312377794166   8.811266904666706  14.681620441600145 1
ion Zr   6.104624755588334  -0.000000083292806  -0.000000125788143 1
ion Zr   6.104624755588333   3.524506711890998   4.893873396674620 1
ion Zr   6.104624755588334  -0.000000083292806   9.787746919137382 1
ion Zr   6.104624755588333   3.524506711890998  14.681620441600145 1
ion Zr   3.052312377794167   5.286760109482901  -0.000000125788143 1
ion Zr   3.052312377794166   8.811266904666706   4.893873396674620 1
ion Zr   3.052312377794167   5.286760109482901   9.787746919137382 1
ion Zr   3.052312377794166   8.811266904666706  14.681620441600145 1

# Forces in Cartesian coordinates:
force Zr   0.000000000000000  -0.000000000000000   0.000000000000000 1
force Zr  -0.000000000000000  -0.000000000000000  -0.000000000000000 1
force Zr   0.000000000000000  -0.000000000000000  -0.000000000000000 1
force Zr   0.000000000000000  -0.000000000000000  -0.000000000000000 1
force Zr   0.000000000000000  -0.000000000000000  -0.000000000000000 1
force Zr  -0.000000000000000  -0.000000000000000  -0.000000000000000 1
force Zr   0.000000000000000  -0.000000000000000  -0.000000000000000 1
force Zr  -0.000000000000000  -0.000000000000000  -0.000000000000000 1
force Zr   0.000000000000000   0.000000000000000  -0.000000000000000 1
force Zr   0.000000000000000  -0.000000000000000   0.000000000000000 1
force Zr   0.000000000000000  -0.000000000000000  -0.000000000000000 1
force Zr  -0.000000000000000  -0.000000000000000   0.000000000000000 1
force Zr   0.000000000000000  -0.000000000000000  -0.000000000000000 1
force Zr   0.000000000000000  -0.000000000000000   0.000000000000000 1
force Zr   0.000000000000000  -0.000000000000000   0.000000000000000 1
force Zr  -0.000000000000000   0.000000000000000  -0.000000000000000 1

# Energy components:
   Eewald =     -615.4849764029620474
       EH =      109.2305924245503803
     Eloc =     -457.6053520436037729
      Enl =       89.9201645963129153
      Exc =     -142.1361125937375505
 Exc_core =       37.9097229992605236
       KE =      222.8672230539803820
-------------------------------------
     Etot =     -755.2987379661991554
       TS =        0.0252105258641617
-------------------------------------
        F =     -755.3239484920633231

LatticeMinimize: Iter:   6  F: -755.323948492063323  |grad|_K:  2.713e-06  alpha:  4.589e-01  linmin: -9.829e-01  t[s]:   5510.89
LatticeMinimize: Converged (|Delta F|<1.000000e-05 for 2 iters).

#--- Lowdin population analysis ---
# oxidation-state Zr +0.007 +0.007 +0.007 +0.007 +0.007 +0.007 +0.007 +0.007 +0.007 +0.007 +0.007 +0.007 +0.007 +0.007 +0.007 +0.007


Dumping 'Zr16.Ecomponents' ... done
End date and time: Sat Oct  7 18:23:19 2023  (Duration: 0-1:32:35.53)
Done!
