--------------------------------------------------------------------------
Initialization of PSM library failed.

  Error: PSM is in the finalized state
--------------------------------------------------------------------------

*************** JDFTx 1.7.0  ***************

Start date and time: Fri Oct 13 07:39:31 2023
Executable jdftx with command-line: -i /home/cam559/Valla_project/Zr/Zr16O_tet.in
Running on hosts (process indices):  node3103.physics.cornell.edu (0-31)
Divided in process groups (process indices):  0 (0)  1 (1)  2 (2)  3 (3)  4 (4)  5 (5)  6 (6)  7 (7)  8 (8)  9 (9)  10 (10)  11 (11)  12 (12)  13 (13)  14 (14)  15 (15)  16 (16)  17 (17)  18 (18)  19 (19)  20 (20)  21 (21)  22 (22)  23 (23)  24 (24)  25 (25)  26 (26)  27 (27)  28 (28)  29 (29)  30 (30)  31 (31)
Resource initialization completed at t[s]:      0.03
Run totals: 32 processes, 32 threads, 0 GPUs


Input parsed successfully to the following command list (including defaults):

basis kpoint-dependent
coords-type Cartesian
core-overlap-check vector
coulomb-interaction Periodic
davidson-band-ratio 1.1
dump End Ecomponents
dump-name Zr16O_tet.$VAR
elec-cutoff 20 100
elec-eigen-algo Davidson
elec-ex-corr gga-PBE
elec-smearing Fermi 0.004
electronic-minimize  \
	dirUpdateScheme      FletcherReeves \
	linminMethod         DirUpdateRecommended \
	nIterations          100 \
	history              15 \
	knormThreshold       0 \
	energyDiffThreshold  1e-08 \
	nEnergyDiff          2 \
	alphaTstart          1 \
	alphaTmin            1e-10 \
	updateTestStepSize   yes \
	alphaTreduceFactor   0.1 \
	alphaTincreaseFactor 3 \
	nAlphaAdjustMax      3 \
	wolfeEnergy          0.0001 \
	wolfeGradient        0.9 \
	fdTest               no
exchange-regularization WignerSeitzTruncated
fluid None
fluid-ex-corr lda-TF lda-PZ
fluid-gummel-loop 10 1.000000e-05
fluid-minimize  \
	dirUpdateScheme      PolakRibiere \
	linminMethod         DirUpdateRecommended \
	nIterations          100 \
	history              15 \
	knormThreshold       0 \
	energyDiffThreshold  0 \
	nEnergyDiff          2 \
	alphaTstart          1 \
	alphaTmin            1e-10 \
	updateTestStepSize   yes \
	alphaTreduceFactor   0.1 \
	alphaTincreaseFactor 3 \
	nAlphaAdjustMax      3 \
	wolfeEnergy          0.0001 \
	wolfeGradient        0.9 \
	fdTest               no
fluid-solvent H2O 55.338 ScalarEOS \
	epsBulk 78.4 \
	pMol 0.92466 \
	epsInf 1.77 \
	Pvap 1.06736e-10 \
	sigmaBulk 4.62e-05 \
	Rvdw 2.61727 \
	Res 1.42 \
	tauNuc 343133 \
	poleEl 15 7 1
forces-output-coords Positions
initial-state Zr16O_tet.$VAR
ion Zr   0.000000000000000   0.000000000000000   0.000000000000000 1
ion Zr   0.000000000000000   3.526222000000000   4.863210000000000 1
ion Zr   0.000000000000000   0.000000000000000   9.726420000000001 1
ion Zr   0.000000000000000   3.526222000000000  14.589631000000001 1
ion Zr  -3.053797000000000   5.289332000000001   0.000000000000000 1
ion Zr  -3.053797000000000   8.815554000000002   4.863210000000000 1
ion Zr  -3.053797000000000   5.289332000000001   9.726420000000001 1
ion Zr  -3.053797000000000   8.815554000000002  14.589631000000001 1
ion Zr   6.107595000000002   0.000000000000000   0.000000000000000 1
ion Zr   6.107595000000002   3.526222000000000   4.863210000000000 1
ion Zr   6.107595000000002   0.000000000000000   9.726420000000001 1
ion Zr   6.107595000000002   3.526222000000000  14.589631000000001 1
ion Zr   3.053797000000001   5.289332000000001   0.000000000000000 1
ion Zr   3.053796999999999   8.815554000000002   4.863210000000000 1
ion Zr   3.053797000000001   5.289332000000001   9.726420000000001 1
ion Zr   3.053796999999999   8.815554000000002  14.589631000000001 1
ion O   2.054762000000001   4.090627000000000   1.234700000000000 1
ion-species GBRV/$ID_pbe.uspp
ion-width 0
ionic-minimize  \
	dirUpdateScheme      L-BFGS \
	linminMethod         DirUpdateRecommended \
	nIterations          0 \
	history              15 \
	knormThreshold       0.0001 \
	energyDiffThreshold  1e-06 \
	nEnergyDiff          2 \
	alphaTstart          1 \
	alphaTmin            1e-10 \
	updateTestStepSize   yes \
	alphaTreduceFactor   0.1 \
	alphaTincreaseFactor 3 \
	nAlphaAdjustMax      3 \
	wolfeEnergy          0.0001 \
	wolfeGradient        0.9 \
	fdTest               no
kpoint   0.000000000000   0.000000000000   0.000000000000  1.00000000000000
kpoint-folding 6 6 6 
latt-move-scale 1 1 1
latt-scale 1 1 1 
lattice  \
	  12.215190000000000   -6.107595000000000    0.000000000000000  \
	   0.000000000000000   10.578665000000001    0.000000000000000  \
	   0.000000000000000    0.000000000000000   19.452840999999999 
lattice-minimize  \
	dirUpdateScheme      L-BFGS \
	linminMethod         DirUpdateRecommended \
	nIterations          30 \
	history              15 \
	knormThreshold       0 \
	energyDiffThreshold  1e-06 \
	nEnergyDiff          2 \
	alphaTstart          1 \
	alphaTmin            1e-10 \
	updateTestStepSize   yes \
	alphaTreduceFactor   0.1 \
	alphaTincreaseFactor 3 \
	nAlphaAdjustMax      3 \
	wolfeEnergy          0.0001 \
	wolfeGradient        0.9 \
	fdTest               no
lcao-params -1 1e-06 0.004
pcm-variant GLSSA13
spintype no-spin
subspace-rotation-factor 1 yes
symmetries automatic
symmetry-threshold 0.0001



---------- Setting up symmetries ----------

Found 24 point-group symmetries of the bravais lattice
Found 1 space-group symmetries with basis
Applied RMS atom displacement 0 bohrs to make symmetries exact.

---------- Initializing the Grid ----------
R = 
[      12.2152     -6.10759            0  ]
[            0      10.5787            0  ]
[            0            0      19.4528  ]
unit cell volume = 2513.7
G =
[   0.514375   0.296974         -0  ]
[          0   0.593949          0  ]
[          0         -0   0.322996  ]
Minimum fftbox size, Smin = [  56  56  88  ]
Chosen fftbox size, S = [  56  56  90  ]

---------- Initializing tighter grid for wavefunction operations ----------
R = 
[      12.2152     -6.10759            0  ]
[            0      10.5787            0  ]
[            0            0      19.4528  ]
unit cell volume = 2513.7
G =
[   0.514375   0.296974         -0  ]
[          0   0.593949          0  ]
[          0         -0   0.322996  ]
Minimum fftbox size, Smin = [  52  52  80  ]
Chosen fftbox size, S = [  54  54  80  ]

---------- Exchange Correlation functional ----------
Initalized PBE GGA exchange.
Initalized PBE GGA correlation.

---------- Setting up pseudopotentials ----------
Width of ionic core gaussian charges (only for fluid interactions / plotting) set to 0

Reading pseudopotential file '/home/cam559/JDFTx/build/pseudopotentials/GBRV/zr_pbe.uspp':
  Title: Zr.  Created by USPP 7.3.6 on 14-9-2013
  Reference state energy: -49.308156.  12 valence electrons in orbitals:
    |400>  occupation: 2  eigenvalue: -2.002953
    |410>  occupation: 6  eigenvalue: -1.192957
    |420>  occupation: 2  eigenvalue: -0.132269
    |500>  occupation: 2  eigenvalue: -0.163143
    |510>  occupation: 0  eigenvalue: -0.053997
  lMax: 2  lLocal: 3  QijEcut: 5
  6 projectors sampled on a log grid with 625 points:
    l: 0  eig: -2.002953  rCut: 1.8
    l: 0  eig: -0.132269  rCut: 1.8
    l: 1  eig: -1.192956  rCut: 2
    l: 1  eig: 0.150000  rCut: 2
    l: 2  eig: -0.163145  rCut: 2.2
    l: 2  eig: 0.150000  rCut: 2.2
  Partial core density with radius 1.2
  Transforming core density to a uniform radial grid of dG=0.02 with 1619 points.
  Transforming local potential to a uniform radial grid of dG=0.02 with 1619 points.
  Transforming nonlocal projectors to a uniform radial grid of dG=0.02 with 432 points.
  Transforming density augmentations to a uniform radial grid of dG=0.02 with 1619 points.
  Transforming atomic orbitals to a uniform radial grid of dG=0.02 with 432 points.
  Core radius for overlap checks: 2.20 bohrs.

Reading pseudopotential file '/home/cam559/JDFTx/build/pseudopotentials/GBRV/o_pbe.uspp':
  Title: O.  Created by USPP 7.3.6 on 3-2-2014
  Reference state energy: -15.894388.  6 valence electrons in orbitals:
    |200>  occupation: 2  eigenvalue: -0.878823
    |210>  occupation: 4  eigenvalue: -0.332131
  lMax: 2  lLocal: 2  QijEcut: 6
  5 projectors sampled on a log grid with 511 points:
    l: 0  eig: -0.878823  rCut: 1.25
    l: 0  eig: 0.000000  rCut: 1.25
    l: 1  eig: -0.332132  rCut: 1.25
    l: 1  eig: 0.000000  rCut: 1.25
    l: 2  eig: 1.000000  rCut: 1.25
  Partial core density with radius 0.7
  Transforming core density to a uniform radial grid of dG=0.02 with 1619 points.
  Transforming local potential to a uniform radial grid of dG=0.02 with 1619 points.
  Transforming nonlocal projectors to a uniform radial grid of dG=0.02 with 432 points.
  Transforming density augmentations to a uniform radial grid of dG=0.02 with 1619 points.
  Transforming atomic orbitals to a uniform radial grid of dG=0.02 with 432 points.
  Core radius for overlap checks: 1.25 bohrs.

Initialized 2 species with 17 total atoms.

WARNING: Zr #12 and O #0 are closer than the vector-sum of their core radii.
WARNING: O #0 and Zr #12 are closer than the vector-sum of their core radii.

Atoms are too close, have overlapping pseudopotential cores.

End date and time: Fri Oct 13 07:39:31 2023  (Duration: 0-0:00:00.29)
Failed.
-------------------------------------------------------
Primary job  terminated normally, but 1 process returned
a non-zero exit code.. Per user-direction, the job has been aborted.
-------------------------------------------------------
--------------------------------------------------------------------------
mpirun detected that one or more processes exited with non-zero status, thus causing
the job to be terminated. The first process to do so was:

  Process name: [[59758,1],29]
  Exit code:    1
--------------------------------------------------------------------------

*************** JDFTx 1.7.0  ***************

Start date and time: Fri Oct 13 12:21:17 2023
Executable jdftx with command-line: -i /home/cam559/Valla_project/Zr/Zr16O_tet.in -o /home/cam559/Valla_project/Zr/Zr16O_tet.out
Running on hosts (process indices):  node3103.physics.cornell.edu (0)
Divided in process groups (process indices):  0 (0)
Resource initialization completed at t[s]:      0.00
Run totals: 1 processes, 16 threads, 0 GPUs


Input parsed successfully to the following command list (including defaults):

basis kpoint-dependent
coords-type Cartesian
core-overlap-check vector
coulomb-interaction Periodic
davidson-band-ratio 1.1
dump End Ecomponents
dump-name Zr16O_tet.$VAR
elec-cutoff 20 100
elec-eigen-algo Davidson
elec-ex-corr gga-PBE
elec-smearing Fermi 0.004
electronic-minimize  \
	dirUpdateScheme      FletcherReeves \
	linminMethod         DirUpdateRecommended \
	nIterations          100 \
	history              15 \
	knormThreshold       0 \
	energyDiffThreshold  1e-08 \
	nEnergyDiff          2 \
	alphaTstart          1 \
	alphaTmin            1e-10 \
	updateTestStepSize   yes \
	alphaTreduceFactor   0.1 \
	alphaTincreaseFactor 3 \
	nAlphaAdjustMax      3 \
	wolfeEnergy          0.0001 \
	wolfeGradient        0.9 \
	fdTest               no
exchange-regularization WignerSeitzTruncated
fluid None
fluid-ex-corr lda-TF lda-PZ
fluid-gummel-loop 10 1.000000e-05
fluid-minimize  \
	dirUpdateScheme      PolakRibiere \
	linminMethod         DirUpdateRecommended \
	nIterations          100 \
	history              15 \
	knormThreshold       0 \
	energyDiffThreshold  0 \
	nEnergyDiff          2 \
	alphaTstart          1 \
	alphaTmin            1e-10 \
	updateTestStepSize   yes \
	alphaTreduceFactor   0.1 \
	alphaTincreaseFactor 3 \
	nAlphaAdjustMax      3 \
	wolfeEnergy          0.0001 \
	wolfeGradient        0.9 \
	fdTest               no
fluid-solvent H2O 55.338 ScalarEOS \
	epsBulk 78.4 \
	pMol 0.92466 \
	epsInf 1.77 \
	Pvap 1.06736e-10 \
	sigmaBulk 4.62e-05 \
	Rvdw 2.61727 \
	Res 1.42 \
	tauNuc 343133 \
	poleEl 15 7 1
forces-output-coords Positions
initial-state Zr16O_tet.$VAR
ion Zr   0.000000000000000   0.000000000000000   0.000000000000000 1
ion Zr   0.000000000000000   3.526222000000000   4.863210000000000 1
ion Zr   0.000000000000000   0.000000000000000   9.726420000000001 1
ion Zr   0.000000000000000   3.526222000000000  14.589631000000001 1
ion Zr  -3.053797000000000   5.289332000000001   0.000000000000000 1
ion Zr  -3.053797000000000   8.815554000000002   4.863210000000000 1
ion Zr  -3.053797000000000   5.289332000000001   9.726420000000001 1
ion Zr  -3.053797000000000   8.815554000000002  14.589631000000001 1
ion Zr   6.107595000000002   0.000000000000000   0.000000000000000 1
ion Zr   6.107595000000002   3.526222000000000   4.863210000000000 1
ion Zr   6.107595000000002   0.000000000000000   9.726420000000001 1
ion Zr   6.107595000000002   3.526222000000000  14.589631000000001 1
ion Zr   3.053797000000001   5.289332000000001   0.000000000000000 1
ion Zr   3.053796999999999   8.815554000000002   4.863210000000000 1
ion Zr   3.053797000000001   5.289332000000001   9.726420000000001 1
ion Zr   3.053796999999999   8.815554000000002  14.589631000000001 1
ion O   4.090627000000000   2.054762000000001   2.450502000000001 1
ion-species GBRV/$ID_pbe.uspp
ion-width 0
ionic-minimize  \
	dirUpdateScheme      L-BFGS \
	linminMethod         DirUpdateRecommended \
	nIterations          0 \
	history              15 \
	knormThreshold       0.0001 \
	energyDiffThreshold  1e-06 \
	nEnergyDiff          2 \
	alphaTstart          1 \
	alphaTmin            1e-10 \
	updateTestStepSize   yes \
	alphaTreduceFactor   0.1 \
	alphaTincreaseFactor 3 \
	nAlphaAdjustMax      3 \
	wolfeEnergy          0.0001 \
	wolfeGradient        0.9 \
	fdTest               no
kpoint   0.000000000000   0.000000000000   0.000000000000  1.00000000000000
kpoint-folding 6 6 6 
latt-move-scale 1 1 1
latt-scale 1 1 1 
lattice  \
	  12.215190000000000   -6.107595000000000    0.000000000000000  \
	   0.000000000000000   10.578665000000001    0.000000000000000  \
	   0.000000000000000    0.000000000000000   19.452840999999999 
lattice-minimize  \
	dirUpdateScheme      L-BFGS \
	linminMethod         DirUpdateRecommended \
	nIterations          30 \
	history              15 \
	knormThreshold       0 \
	energyDiffThreshold  1e-06 \
	nEnergyDiff          2 \
	alphaTstart          1 \
	alphaTmin            1e-10 \
	updateTestStepSize   yes \
	alphaTreduceFactor   0.1 \
	alphaTincreaseFactor 3 \
	nAlphaAdjustMax      3 \
	wolfeEnergy          0.0001 \
	wolfeGradient        0.9 \
	fdTest               no
lcao-params -1 1e-06 0.004
pcm-variant GLSSA13
spintype no-spin
subspace-rotation-factor 1 yes
symmetries automatic
symmetry-threshold 0.0001



---------- Setting up symmetries ----------

Found 24 point-group symmetries of the bravais lattice
Found 1 space-group symmetries with basis
Applied RMS atom displacement 0 bohrs to make symmetries exact.

---------- Initializing the Grid ----------
R = 
[      12.2152     -6.10759            0  ]
[            0      10.5787            0  ]
[            0            0      19.4528  ]
unit cell volume = 2513.7
G =
[   0.514375   0.296974         -0  ]
[          0   0.593949          0  ]
[          0         -0   0.322996  ]
Minimum fftbox size, Smin = [  56  56  88  ]
Chosen fftbox size, S = [  56  56  90  ]

---------- Initializing tighter grid for wavefunction operations ----------
R = 
[      12.2152     -6.10759            0  ]
[            0      10.5787            0  ]
[            0            0      19.4528  ]
unit cell volume = 2513.7
G =
[   0.514375   0.296974         -0  ]
[          0   0.593949          0  ]
[          0         -0   0.322996  ]
Minimum fftbox size, Smin = [  52  52  80  ]
Chosen fftbox size, S = [  54  54  80  ]

---------- Exchange Correlation functional ----------
Initalized PBE GGA exchange.
Initalized PBE GGA correlation.

---------- Setting up pseudopotentials ----------
Width of ionic core gaussian charges (only for fluid interactions / plotting) set to 0

Reading pseudopotential file '/home/cam559/JDFTx/build/pseudopotentials/GBRV/zr_pbe.uspp':
  Title: Zr.  Created by USPP 7.3.6 on 14-9-2013
  Reference state energy: -49.308156.  12 valence electrons in orbitals:
    |400>  occupation: 2  eigenvalue: -2.002953
    |410>  occupation: 6  eigenvalue: -1.192957
    |420>  occupation: 2  eigenvalue: -0.132269
    |500>  occupation: 2  eigenvalue: -0.163143
    |510>  occupation: 0  eigenvalue: -0.053997
  lMax: 2  lLocal: 3  QijEcut: 5
  6 projectors sampled on a log grid with 625 points:
    l: 0  eig: -2.002953  rCut: 1.8
    l: 0  eig: -0.132269  rCut: 1.8
    l: 1  eig: -1.192956  rCut: 2
    l: 1  eig: 0.150000  rCut: 2
    l: 2  eig: -0.163145  rCut: 2.2
    l: 2  eig: 0.150000  rCut: 2.2
  Partial core density with radius 1.2
  Transforming core density to a uniform radial grid of dG=0.02 with 1619 points.
  Transforming local potential to a uniform radial grid of dG=0.02 with 1619 points.
  Transforming nonlocal projectors to a uniform radial grid of dG=0.02 with 432 points.
  Transforming density augmentations to a uniform radial grid of dG=0.02 with 1619 points.
  Transforming atomic orbitals to a uniform radial grid of dG=0.02 with 432 points.
  Core radius for overlap checks: 2.20 bohrs.

Reading pseudopotential file '/home/cam559/JDFTx/build/pseudopotentials/GBRV/o_pbe.uspp':
  Title: O.  Created by USPP 7.3.6 on 3-2-2014
  Reference state energy: -15.894388.  6 valence electrons in orbitals:
    |200>  occupation: 2  eigenvalue: -0.878823
    |210>  occupation: 4  eigenvalue: -0.332131
  lMax: 2  lLocal: 2  QijEcut: 6
  5 projectors sampled on a log grid with 511 points:
    l: 0  eig: -0.878823  rCut: 1.25
    l: 0  eig: 0.000000  rCut: 1.25
    l: 1  eig: -0.332132  rCut: 1.25
    l: 1  eig: 0.000000  rCut: 1.25
    l: 2  eig: 1.000000  rCut: 1.25
  Partial core density with radius 0.7
  Transforming core density to a uniform radial grid of dG=0.02 with 1619 points.
  Transforming local potential to a uniform radial grid of dG=0.02 with 1619 points.
  Transforming nonlocal projectors to a uniform radial grid of dG=0.02 with 432 points.
  Transforming density augmentations to a uniform radial grid of dG=0.02 with 1619 points.
  Transforming atomic orbitals to a uniform radial grid of dG=0.02 with 432 points.
  Core radius for overlap checks: 1.25 bohrs.

Initialized 2 species with 17 total atoms.

Folded 1 k-points by 6x6x6 to 216 k-points.

---------- Setting up k-points, bands, fillings ----------
Adding inversion symmetry to k-mesh for non-inversion-symmetric unit cell.
Reduced to 112 k-points under symmetry. 
Computing the number of bands and number of electrons
Calculating initial fillings.
nElectrons: 198.000000   nBands: 212   nStates: 112

----- Setting up reduced wavefunction bases (one per k-point) -----
average nbasis = 10739.449 , ideal nbasis = 10738.735

---------- Setting up ewald sum ----------
Optimum gaussian width for ewald sums = 3.382776 bohr.
Real space sum over 847 unit cells with max indices [  5  5  3  ]
Reciprocal space sum over 4725 terms with max indices [  7  7  10  ]

---------- Allocating electronic variables ----------
Initializing wave functions:  linear combination of atomic orbitals
Zr pseudo-atom occupations:   s ( 2 2 )  p ( 6 0 )  d ( 2 )
O pseudo-atom occupations:   s ( 2 )  p ( 4 )
	FillingsUpdate:  mu: +0.529045869  nElectrons: 198.000000
LCAOMinimize: Iter:   0  F: -771.2108574411040536  |grad|_K:  4.182e-04  alpha:  1.000e+00
	FillingsUpdate:  mu: +0.529936903  nElectrons: 198.000000
LCAOMinimize: Iter:   1  F: -771.3097276914061240  |grad|_K:  2.530e-04  alpha:  1.458e-01  linmin: -2.432e-01  cgtest:  6.620e-01  t[s]:    592.91
LCAOMinimize: Encountered beta<0, resetting CG.
	FillingsUpdate:  mu: +0.530945342  nElectrons: 198.000000
LCAOMinimize: Iter:   2  F: -771.3293624244707871  |grad|_K:  2.696e-04  alpha:  1.200e-01  linmin:  1.799e-03  cgtest: -2.745e-02  t[s]:    797.97
	FillingsUpdate:  mu: +0.532230651  nElectrons: 198.000000
LCAOMinimize: Iter:   3  F: -771.3472624704747886  |grad|_K:  6.902e-05  alpha:  9.639e-02  linmin:  1.103e-02  cgtest:  4.089e-01  t[s]:   1004.78
LCAOMinimize: Encountered beta<0, resetting CG.
	FillingsUpdate:  mu: +0.532108350  nElectrons: 198.000000
LCAOMinimize: Iter:   4  F: -771.3486875406662193  |grad|_K:  7.044e-05  alpha:  1.178e-01  linmin:  5.111e-04  cgtest: -2.160e-03  t[s]:   1210.09
	FillingsUpdate:  mu: +0.532720114  nElectrons: 198.000000
LCAOMinimize: Iter:   5  F: -771.3500650563034924  |grad|_K:  3.890e-05  alpha:  1.095e-01  linmin:  1.069e-03  cgtest:  3.619e-03  t[s]:   1418.38
	FillingsUpdate:  mu: +0.532883330  nElectrons: 198.000000
LCAOMinimize: Iter:   6  F: -771.3507515824027223  |grad|_K:  1.855e-05  alpha:  1.795e-01  linmin:  1.706e-03  cgtest:  1.093e-02  t[s]:   1625.70
	FillingsUpdate:  mu: +0.533087894  nElectrons: 198.000000
LCAOMinimize: Iter:   7  F: -771.3509655221512276  |grad|_K:  1.588e-05  alpha:  2.459e-01  linmin:  5.611e-04  cgtest:  1.902e-03  t[s]:   1833.90
	FillingsUpdate:  mu: +0.533167771  nElectrons: 198.000000
LCAOMinimize: Iter:   8  F: -771.3509988153632548  |grad|_K:  4.451e-06  alpha:  5.187e-02  linmin: -2.634e-03  cgtest:  2.565e-02  t[s]:   2041.07
LCAOMinimize: 	Predicted alpha/alphaT>3.000000, increasing alphaT to 1.556066e-01.
	FillingsUpdate:  mu: +0.533184851  nElectrons: 198.000000
LCAOMinimize: Iter:   9  F: -771.3510137327390339  |grad|_K:  3.064e-06  alpha:  2.954e-01  linmin: -5.925e-05  cgtest: -7.671e-03  t[s]:   2304.22
	FillingsUpdate:  mu: +0.533199801  nElectrons: 198.000000
LCAOMinimize: Iter:  10  F: -771.3510169320244358  |grad|_K:  2.711e-06  alpha:  1.341e-01  linmin: -3.410e-05  cgtest:  8.989e-04  t[s]:   2511.21
	FillingsUpdate:  mu: +0.533196226  nElectrons: 198.000000
LCAOMinimize: Iter:  11  F: -771.3510181821421838  |grad|_K:  7.866e-07  alpha:  6.695e-02  linmin: -5.672e-05  cgtest: -3.512e-04  t[s]:   2718.16
LCAOMinimize: 	Predicted alpha/alphaT>3.000000, increasing alphaT to 2.008445e-01.
	FillingsUpdate:  mu: +0.533196095  nElectrons: 198.000000
LCAOMinimize: Iter:  12  F: -771.3510185294779831  |grad|_K:  6.218e-07  alpha:  2.210e-01  linmin:  2.871e-05  cgtest: -1.065e-04  t[s]:   2980.01
	FillingsUpdate:  mu: +0.533196913  nElectrons: 198.000000
LCAOMinimize: Iter:  13  F: -771.3510188061433155  |grad|_K:  2.559e-07  alpha:  2.817e-01  linmin: -2.530e-05  cgtest:  6.599e-04  t[s]:   3188.78
LCAOMinimize: Converged (|Delta F|<1.000000e-06 for 2 iters).


---- Citations for features of the code used in this run ----

   Software package:
      R. Sundararaman, K. Letchworth-Weaver, K.A. Schwarz, D. Gunceler, Y. Ozhabes and T.A. Arias, 'JDFTx: software for joint density-functional theory', SoftwareX 6, 278 (2017)

   gga-PBE exchange-correlation functional:
      J.P. Perdew, K. Burke and M. Ernzerhof, Phys. Rev. Lett. 77, 3865 (1996)

   Pseudopotentials:
      KF Garrity, JW Bennett, KM Rabe and D Vanderbilt, Comput. Mater. Sci. 81, 446 (2014)

   Total energy minimization with Auxiliary Hamiltonian:
      C. Freysoldt, S. Boeck, and J. Neugebauer, Phys. Rev. B 79, 241103(R) (2009)

This list may not be complete. Please suggest additional citations or
report any other bugs at https://github.com/shankar1729/jdftx/issues

Initialization completed successfully at t[s]:   3310.79


--------- Lattice Minimization ---------

-------- Electronic minimization -----------
	FillingsUpdate:  mu: +0.533196913  nElectrons: 198.000000
ElecMinimize: Iter:   0  F: -771.351018806143202  |grad|_K:  2.222e-05  alpha:  1.000e+00
	FillingsUpdate:  mu: +0.528983642  nElectrons: 198.000000
	SubspaceRotationAdjust: set factor to 1
ElecMinimize: Iter:   1  F: -771.443894486737463  |grad|_K:  1.331e-05  alpha:  7.300e-01  linmin:  8.623e-04  t[s]:   4232.57
	FillingsUpdate:  mu: +0.528162051  nElectrons: 198.000000
	SubspaceRotationAdjust: set factor to 0.654
ElecMinimize: Iter:   2  F: -771.463510064348952  |grad|_K:  1.211e-05  alpha:  4.349e-01  linmin:  3.233e-05  t[s]:   4868.32
	FillingsUpdate:  mu: +0.527680980  nElectrons: 198.000000
	SubspaceRotationAdjust: set factor to 0.448
ElecMinimize: Iter:   3  F: -771.466215342316104  |grad|_K:  7.970e-06  alpha:  6.971e-02  linmin: -3.473e-04  t[s]:   5504.51
ElecMinimize: 	Predicted alpha/alphaT>3.000000, increasing alphaT to 2.091184e-01.
	FillingsUpdate:  mu: +0.527440647  nElectrons: 198.000000
	SubspaceRotationAdjust: set factor to 0.308
ElecMinimize: Iter:   4  F: -771.472003873864765  |grad|_K:  5.387e-06  alpha:  3.464e-01  linmin:  2.594e-04  t[s]:   6299.04
	FillingsUpdate:  mu: +0.527793212  nElectrons: 198.000000
	SubspaceRotationAdjust: set factor to 0.249
ElecMinimize: Iter:   5  F: -771.472967053125330  |grad|_K:  3.389e-06  alpha:  1.303e-01  linmin: -4.225e-05  t[s]:   6937.55
	FillingsUpdate:  mu: +0.527867976  nElectrons: 198.000000
	SubspaceRotationAdjust: set factor to 0.17
ElecMinimize: Iter:   6  F: -771.474096258636564  |grad|_K:  2.692e-06  alpha:  3.816e-01  linmin:  1.292e-04  t[s]:   7573.64
	FillingsUpdate:  mu: +0.527743459  nElectrons: 198.000000
	SubspaceRotationAdjust: set factor to 0.192
ElecMinimize: Iter:   7  F: -771.474454289538471  |grad|_K:  1.479e-06  alpha:  1.933e-01  linmin:  1.041e-05  t[s]:   8209.33
	FillingsUpdate:  mu: +0.527657666  nElectrons: 198.000000
	SubspaceRotationAdjust: set factor to 0.129
	SubspaceRotationAdjust: resetting CG because factor has changed by 0.129053
ElecMinimize: 	State modified externally: resetting search direction.
ElecMinimize: Iter:   8  F: -771.474687962801795  |grad|_K:  1.211e-06  alpha:  4.155e-01
	FillingsUpdate:  mu: +0.527778301  nElectrons: 198.000000
	SubspaceRotationAdjust: set factor to 0.116
ElecMinimize: Iter:   9  F: -771.474826165228023  |grad|_K:  5.033e-07  alpha:  3.661e-01  linmin: -2.041e-05  t[s]:   9732.87
	FillingsUpdate:  mu: +0.527749712  nElectrons: 198.000000
	SubspaceRotationAdjust: set factor to 0.148
ElecMinimize: Iter:  10  F: -771.474884430708471  |grad|_K:  3.266e-07  alpha:  8.918e-01  linmin: -4.189e-05  t[s]:  10368.65
	FillingsUpdate:  mu: +0.527748741  nElectrons: 198.000000
	SubspaceRotationAdjust: set factor to 0.182
ElecMinimize: Iter:  11  F: -771.474911583336393  |grad|_K:  2.842e-07  alpha:  9.821e-01  linmin: -1.760e-05  t[s]:  11013.96
	FillingsUpdate:  mu: +0.527760493  nElectrons: 198.000000
	SubspaceRotationAdjust: set factor to 0.221
ElecMinimize: Iter:  12  F: -771.474934052038066  |grad|_K:  2.670e-07  alpha:  1.073e+00  linmin: -4.349e-06  t[s]:  11650.54
	FillingsUpdate:  mu: +0.527751276  nElectrons: 198.000000
	SubspaceRotationAdjust: set factor to 0.238
ElecMinimize: Iter:  13  F: -771.474948938998182  |grad|_K:  2.213e-07  alpha:  8.080e-01  linmin: -2.930e-06  t[s]:  12284.68
	FillingsUpdate:  mu: +0.527755419  nElectrons: 198.000000
	SubspaceRotationAdjust: set factor to 0.186
ElecMinimize: Iter:  14  F: -771.474955352221968  |grad|_K:  1.800e-07  alpha:  5.069e-01  linmin: -2.719e-06  t[s]:  12919.85
	FillingsUpdate:  mu: +0.527741179  nElectrons: 198.000000
	SubspaceRotationAdjust: set factor to 0.133
ElecMinimize: Iter:  15  F: -771.474958238738964  |grad|_K:  1.001e-07  alpha:  3.451e-01  linmin: -2.578e-07  t[s]:  13555.51
	FillingsUpdate:  mu: +0.527742536  nElectrons: 198.000000
	SubspaceRotationAdjust: set factor to 0.18
ElecMinimize: Iter:  16  F: -771.474959809042389  |grad|_K:  6.145e-08  alpha:  6.069e-01  linmin:  1.090e-07  t[s]:  14191.55
	FillingsUpdate:  mu: +0.527744174  nElectrons: 198.000000
	SubspaceRotationAdjust: set factor to 0.199
ElecMinimize: Iter:  17  F: -771.474960401691533  |grad|_K:  4.421e-08  alpha:  6.097e-01  linmin:  3.482e-06  t[s]:  14828.20
	FillingsUpdate:  mu: +0.527742393  nElectrons: 198.000000
	SubspaceRotationAdjust: set factor to 0.172
ElecMinimize: Iter:  18  F: -771.474960676908154  |grad|_K:  3.490e-08  alpha:  5.500e-01  linmin:  3.427e-06  t[s]:  15464.19
	FillingsUpdate:  mu: +0.527745056  nElectrons: 198.000000
	SubspaceRotationAdjust: set factor to 0.182
ElecMinimize: Iter:  19  F: -771.474960835344632  |grad|_K:  2.584e-08  alpha:  5.090e-01  linmin:  1.669e-06  t[s]:  16100.80
	FillingsUpdate:  mu: +0.527745454  nElectrons: 198.000000
	SubspaceRotationAdjust: set factor to 0.242
ElecMinimize: Iter:  20  F: -771.474960956358245  |grad|_K:  1.943e-08  alpha:  7.084e-01  linmin:  3.030e-08  t[s]:  16736.93
	FillingsUpdate:  mu: +0.527745370  nElectrons: 198.000000
	SubspaceRotationAdjust: set factor to 0.245
ElecMinimize: Iter:  21  F: -771.474961029217525  |grad|_K:  1.790e-08  alpha:  7.501e-01  linmin: -1.334e-06  t[s]:  17373.25
	FillingsUpdate:  mu: +0.527745982  nElectrons: 198.000000
	SubspaceRotationAdjust: set factor to 0.196
ElecMinimize: Iter:  22  F: -771.474961061393856  |grad|_K:  1.468e-08  alpha:  3.876e-01  linmin: -3.447e-07  t[s]:  18010.68
	FillingsUpdate:  mu: +0.527745469  nElectrons: 198.000000
	SubspaceRotationAdjust: set factor to 0.227
ElecMinimize: Iter:  23  F: -771.474961086579583  |grad|_K:  8.685e-09  alpha:  4.517e-01  linmin: -7.813e-07  t[s]:  18645.75
	FillingsUpdate:  mu: +0.527745632  nElectrons: 198.000000
	SubspaceRotationAdjust: set factor to 0.287
ElecMinimize: Iter:  24  F: -771.474961099907205  |grad|_K:  6.431e-09  alpha:  6.849e-01  linmin:  5.126e-08  t[s]:  19281.83
	FillingsUpdate:  mu: +0.527745598  nElectrons: 198.000000
	SubspaceRotationAdjust: set factor to 0.204
ElecMinimize: Iter:  25  F: -771.474961105511170  |grad|_K:  6.312e-09  alpha:  5.215e-01  linmin:  2.683e-07  t[s]:  19917.28
	FillingsUpdate:  mu: +0.527745673  nElectrons: 198.000000
	SubspaceRotationAdjust: set factor to 0.175
ElecMinimize: Iter:  26  F: -771.474961108718958  |grad|_K:  4.041e-09  alpha:  3.136e-01  linmin:  1.433e-08  t[s]:  20552.88
ElecMinimize: Converged (|Delta F|<1.000000e-08 for 2 iters).
Setting wave functions to eigenvectors of Hamiltonian
# Lattice vectors:
R = 
[      12.2152     -6.10759            0  ]
[            0      10.5787            0  ]
[            0            0      19.4528  ]
unit cell volume = 2513.7

# Strain tensor in Cartesian coordinates:
[            0            0            0  ]
[            0            0            0  ]
[            0            0            0  ]

# Stress tensor in Cartesian coordinates [Eh/a0^3]:
[ -0.000125155 -1.65253e-05 -3.18892e-05  ]
[ -1.65253e-05 -0.000101905 -4.61826e-05  ]
[ -3.18892e-05 -4.61826e-05 -0.000169412  ]

# Ionic positions in cartesian coordinates:
ion Zr   0.000000000000000   0.000000000000000   0.000000000000000 1
ion Zr   0.000000000000000   3.526222000000000   4.863210000000000 1
ion Zr   0.000000000000000   0.000000000000000   9.726420000000001 1
ion Zr   0.000000000000000   3.526222000000000  14.589631000000001 1
ion Zr  -3.053797000000000   5.289332000000001   0.000000000000000 1
ion Zr  -3.053797000000000   8.815554000000002   4.863210000000000 1
ion Zr  -3.053797000000000   5.289332000000001   9.726420000000001 1
ion Zr  -3.053797000000000   8.815554000000002  14.589631000000001 1
ion Zr   6.107595000000002   0.000000000000000   0.000000000000000 1
ion Zr   6.107595000000002   3.526222000000000   4.863210000000000 1
ion Zr   6.107595000000002   0.000000000000000   9.726420000000001 1
ion Zr   6.107595000000002   3.526222000000000  14.589631000000001 1
ion Zr   3.053797000000001   5.289332000000001   0.000000000000000 1
ion Zr   3.053796999999999   8.815554000000002   4.863210000000000 1
ion Zr   3.053797000000001   5.289332000000001   9.726420000000001 1
ion Zr   3.053796999999999   8.815554000000002  14.589631000000001 1
ion O   4.090627000000000   2.054762000000001   2.450502000000001 1

# Forces in Cartesian coordinates:
force Zr  -0.002506215546713  -0.001530658188972  -0.000249367109815 1
force Zr  -0.000534975128226   0.000296286909354   0.000156270711033 1
force Zr  -0.001884349669165  -0.001601385141394  -0.000393165710212 1
force Zr  -0.000695496085923   0.001646483878872   0.000354711105697 1
force Zr   0.012464104115189   0.006276467268753  -0.006092692828460 1
force Zr  -0.000420951737772  -0.001343925321189   0.002544910566173 1
force Zr   0.002779436390625   0.001034056056890   0.001378872316094 1
force Zr   0.000869797969447  -0.000442283160574   0.000065880682054 1
force Zr   0.028415069432122  -0.024704259106838  -0.034702357988066 1
force Zr   0.065935942030012   0.045483199902003   0.081059776805052 1
force Zr  -0.000075972824357  -0.000309980288804  -0.002269521795058 1
force Zr  -0.000488652249538  -0.000303210222011   0.005024153041362 1
force Zr  -0.002456326151175   0.011392946544174  -0.010910837517501 1
force Zr   0.008045764522012  -0.000599326104701   0.005280825917262 1
force Zr  -0.000029524144849   0.000222556251787  -0.000172159003543 1
force Zr   0.002488133769812   0.000507920200356  -0.001825436911640 1
force O  -0.111795803326896  -0.036037445227263  -0.039221029699236 1

# Energy components:
   Eewald =     -628.0094680065787998
       EH =      116.5248213221027527
     Eloc =     -475.0861838105290076
      Enl =       92.3338204040985460
      Exc =     -146.0269252302418863
 Exc_core =       37.9747712523287788
       KE =      230.8388997590125484
-------------------------------------
     Etot =     -771.4502643098071530
       TS =        0.0246967989117646
-------------------------------------
        F =     -771.4749611087189578

LatticeMinimize: Iter:   0  F: -771.474961108718958  |grad|_K:  1.836e-01  t[s]:  20842.24

#--- Lowdin population analysis ---
# oxidation-state Zr +0.038 +0.039 +0.012 +0.010 +0.011 +0.039 -0.011 +0.007 +0.066 +0.081 +0.007 +0.010 +0.049 +0.011 +0.005 -0.008
# oxidation-state O -0.222


-------- Electronic minimization -----------
	FillingsUpdate:  mu: +0.523645390  nElectrons: 198.000000
ElecMinimize: Iter:   0  F: -771.242832887206418  |grad|_K:  4.007e-05  alpha:  1.000e+00
	FillingsUpdate:  mu: +0.525207809  nElectrons: 198.000000
	SubspaceRotationAdjust: set factor to 0.186
ElecMinimize: Iter:   1  F: -771.422658369979331  |grad|_K:  1.668e-05  alpha:  4.429e-01  linmin:  2.207e-03  t[s]:  22187.09
	FillingsUpdate:  mu: +0.524116336  nElectrons: 198.000000
	SubspaceRotationAdjust: set factor to 0.125
ElecMinimize: Iter:   2  F: -771.453551470374919  |grad|_K:  9.952e-06  alpha:  4.365e-01  linmin: -2.972e-04  t[s]:  22823.13
	FillingsUpdate:  mu: +0.525310653  nElectrons: 198.000000
	SubspaceRotationAdjust: set factor to 0.121
ElecMinimize: Iter:   3  F: -771.468847578561963  |grad|_K:  8.158e-06  alpha:  5.985e-01  linmin:  2.848e-05  t[s]:  23468.24
	FillingsUpdate:  mu: +0.525189886  nElectrons: 198.000000
	SubspaceRotationAdjust: set factor to 0.162
ElecMinimize: Iter:   4  F: -771.483486609186912  |grad|_K:  6.474e-06  alpha:  8.539e-01  linmin: -9.270e-05  t[s]:  24111.08
	FillingsUpdate:  mu: +0.524673299  nElectrons: 198.000000
	SubspaceRotationAdjust: set factor to 0.138
ElecMinimize: Iter:   5  F: -771.491151195858038  |grad|_K:  4.941e-06  alpha:  7.080e-01  linmin: -5.353e-05  t[s]:  24748.38
	FillingsUpdate:  mu: +0.525251174  nElectrons: 198.000000
	SubspaceRotationAdjust: set factor to 0.0935
ElecMinimize: Iter:   6  F: -771.494252116798293  |grad|_K:  3.090e-06  alpha:  4.921e-01  linmin:  4.669e-07  t[s]:  25382.86
	FillingsUpdate:  mu: +0.525140018  nElectrons: 198.000000
	SubspaceRotationAdjust: set factor to 0.152
ElecMinimize: Iter:   7  F: -771.495606017791260  |grad|_K:  1.561e-06  alpha:  5.505e-01  linmin: -5.057e-06  t[s]:  26016.54
	FillingsUpdate:  mu: +0.525025274  nElectrons: 198.000000
	SubspaceRotationAdjust: set factor to 0.142
ElecMinimize: Iter:   8  F: -771.496027537197051  |grad|_K:  1.278e-06  alpha:  6.718e-01  linmin: -2.692e-05  t[s]:  26651.62
	FillingsUpdate:  mu: +0.525123899  nElectrons: 198.000000
	SubspaceRotationAdjust: set factor to 0.125
ElecMinimize: Iter:   9  F: -771.496316606208552  |grad|_K:  1.009e-06  alpha:  6.869e-01  linmin:  1.495e-05  t[s]:  27286.96
	FillingsUpdate:  mu: +0.525049810  nElectrons: 198.000000
	SubspaceRotationAdjust: set factor to 0.136
ElecMinimize: Iter:  10  F: -771.496487558708850  |grad|_K:  7.009e-07  alpha:  6.530e-01  linmin: -4.883e-06  t[s]:  27921.86
	FillingsUpdate:  mu: +0.525038176  nElectrons: 198.000000
	SubspaceRotationAdjust: set factor to 0.18
ElecMinimize: Iter:  11  F: -771.496568104781090  |grad|_K:  4.419e-07  alpha:  6.366e-01  linmin:  6.099e-07  t[s]:  28556.66
	FillingsUpdate:  mu: +0.525078971  nElectrons: 198.000000
	SubspaceRotationAdjust: set factor to 0.14
ElecMinimize: Iter:  12  F: -771.496598815508150  |grad|_K:  3.599e-07  alpha:  6.106e-01  linmin:  1.398e-06  t[s]:  29191.22
	FillingsUpdate:  mu: +0.525050332  nElectrons: 198.000000
	SubspaceRotationAdjust: set factor to 0.137
ElecMinimize: Iter:  13  F: -771.496618187844774  |grad|_K:  2.730e-07  alpha:  5.809e-01  linmin:  4.469e-07  t[s]:  29826.89
	FillingsUpdate:  mu: +0.525061095  nElectrons: 198.000000
	SubspaceRotationAdjust: set factor to 0.177
ElecMinimize: Iter:  14  F: -771.496634072702818  |grad|_K:  2.091e-07  alpha:  8.278e-01  linmin: -9.413e-07  t[s]:  30462.32
	FillingsUpdate:  mu: +0.525073375  nElectrons: 198.000000
	SubspaceRotationAdjust: set factor to 0.187
ElecMinimize: Iter:  15  F: -771.496641176402136  |grad|_K:  1.595e-07  alpha:  6.306e-01  linmin: -2.798e-07  t[s]:  31097.27
	FillingsUpdate:  mu: +0.525063249  nElectrons: 198.000000
	SubspaceRotationAdjust: set factor to 0.142
ElecMinimize: Iter:  16  F: -771.496644394691202  |grad|_K:  9.938e-08  alpha:  4.911e-01  linmin:  9.605e-09  t[s]:  31732.53
	FillingsUpdate:  mu: +0.525070809  nElectrons: 198.000000
	SubspaceRotationAdjust: set factor to 0.131
ElecMinimize: Iter:  17  F: -771.496645594476604  |grad|_K:  6.281e-08  alpha:  4.717e-01  linmin:  1.592e-07  t[s]:  32368.65
	FillingsUpdate:  mu: +0.525069437  nElectrons: 198.000000
	SubspaceRotationAdjust: set factor to 0.181
ElecMinimize: Iter:  18  F: -771.496646222272943  |grad|_K:  4.394e-08  alpha:  6.178e-01  linmin: -4.483e-07  t[s]:  33003.72
	FillingsUpdate:  mu: +0.525067156  nElectrons: 198.000000
	SubspaceRotationAdjust: set factor to 0.166
ElecMinimize: Iter:  19  F: -771.496646527565645  |grad|_K:  3.265e-08  alpha:  6.139e-01  linmin: -7.288e-07  t[s]:  33638.44
	FillingsUpdate:  mu: +0.525070070  nElectrons: 198.000000
	SubspaceRotationAdjust: set factor to 0.141
ElecMinimize: Iter:  20  F: -771.496646684075245  |grad|_K:  2.720e-08  alpha:  5.700e-01  linmin: -7.987e-07  t[s]:  34275.33
	FillingsUpdate:  mu: +0.525068129  nElectrons: 198.000000
	SubspaceRotationAdjust: set factor to 0.155
ElecMinimize: Iter:  21  F: -771.496646791220883  |grad|_K:  1.726e-08  alpha:  5.622e-01  linmin: -6.573e-07  t[s]:  34910.74
	FillingsUpdate:  mu: +0.525067491  nElectrons: 198.000000
	SubspaceRotationAdjust: set factor to 0.182
ElecMinimize: Iter:  22  F: -771.496646838143761  |grad|_K:  1.103e-08  alpha:  6.118e-01  linmin:  2.408e-06  t[s]:  35547.38
	FillingsUpdate:  mu: +0.525068424  nElectrons: 198.000000
	SubspaceRotationAdjust: set factor to 0.134
ElecMinimize: Iter:  23  F: -771.496646853412926  |grad|_K:  7.194e-09  alpha:  4.880e-01  linmin:  4.667e-07  t[s]:  36183.10
	FillingsUpdate:  mu: +0.525067911  nElectrons: 198.000000
	SubspaceRotationAdjust: set factor to 0.133
ElecMinimize: Iter:  24  F: -771.496646859302928  |grad|_K:  3.936e-09  alpha:  4.463e-01  linmin:  3.881e-06  t[s]:  36818.52
	FillingsUpdate:  mu: +0.525067913  nElectrons: 198.000000
	SubspaceRotationAdjust: set factor to 0.191
ElecMinimize: Iter:  25  F: -771.496646862136345  |grad|_K:  2.910e-09  alpha:  7.207e-01  linmin:  4.991e-06  t[s]:  37453.78
ElecMinimize: Converged (|Delta F|<1.000000e-08 for 2 iters).
Setting wave functions to eigenvectors of Hamiltonian
# Lattice vectors:
R = 
[       12.232     -6.11407   0.00681077  ]
[   0.00221626      10.5894   0.00986353  ]
[   0.00427675   0.00322552       19.489  ]
unit cell volume = 2524.66

# Strain tensor in Cartesian coordinates:
[    0.0013741  0.000181434  0.000350117  ]
[  0.000181434   0.00111883  0.000507048  ]
[  0.000350117  0.000507048   0.00186001  ]

# Stress tensor in Cartesian coordinates [Eh/a0^3]:
[  -7.9939e-05 -5.87484e-06 -1.29115e-05  ]
[ -5.87484e-06 -6.50249e-05 -2.43631e-05  ]
[ -1.29115e-05 -2.43631e-05  -0.00011218  ]

# Ionic positions in cartesian coordinates:
ion Zr  -0.002032028999774  -0.001237234412109  -0.000204442610582 1
ion Zr   0.001904751643153   3.532873223789522   4.874168591069541 1
ion Zr   0.001876142068114   0.003637385789965   9.744190593892583 1
ion Zr   0.005180597230884   3.538896523053867  14.618841855581007 1
ion Zr  -3.046961223610439   5.299769533181983  -0.003311406940111 1
ion Zr  -3.055036163510229   8.826244102735291   4.877713079772339 1
ion Zr  -3.051385424992996   5.300465051345632   9.747239298993751 1
ion Zr  -3.050587656558241   8.831903913564364  14.620220542681421 1
ion Zr   6.138944932482201  -0.018871865312836  -0.025938702450250 1
ion Zr   6.171669444812409   3.570552620265031   4.941793828648614 1
ion Zr   6.119325469406990   0.005788962189884   9.744812067653353 1
ion Zr   6.121336315539005   3.538430490309344  14.624756989622810 1
ion Zr   3.056960072373854   5.305009585449009  -0.005072954179631 1
ion Zr   3.067797257956292   8.827956513573067   4.882067461410401 1
ion Zr   3.062329148563742   5.300916128501862   9.748121788268307 1
ion Zr   3.066706949758363   8.833779633774494  14.620829719058239 1
ion O   4.007060036359317   2.029881676657746   2.425757130372960 1

# Forces in Cartesian coordinates:
force Zr   0.000428486082431  -0.000312366096614   0.000482753232302 1
force Zr   0.002664917414854  -0.000041689563308  -0.000213557440296 1
force Zr  -0.001585093652740  -0.001329367353201  -0.000652144358497 1
force Zr  -0.000616659622414   0.001243542064686   0.000339992211680 1
force Zr   0.010777512211142   0.005070835179076  -0.005937295111553 1
force Zr   0.001413750449607   0.001783300947544   0.001550126740650 1
force Zr   0.003245604395927   0.001260225587036   0.002544076783856 1
force Zr   0.000556518371397  -0.000283335168410  -0.000058447733634 1
force Zr   0.020494505490830  -0.015531400233483  -0.024042167626114 1
force Zr   0.034347084259023   0.022394752868960   0.042554340520153 1
force Zr  -0.000307835061848  -0.000107857852633  -0.002307991668338 1
force Zr  -0.000516701515637  -0.000245856380430   0.005038137128965 1
force Zr  -0.000113424731365   0.007067964929587  -0.007829017337211 1
force Zr   0.007582990224433  -0.000096769327458   0.005132699148699 1
force Zr  -0.000073355771906  -0.000036958621572  -0.000202187013746 1
force Zr   0.002687964349117   0.000456195130839  -0.002458767453018 1
force O  -0.081086041467820  -0.021364944414703  -0.013775435641796 1

# Energy components:
   Eewald =     -628.0188079181123157
       EH =      116.0270187466047958
     Eloc =     -474.4207208224567012
      Enl =       92.2936323707897657
      Exc =     -145.9607579293041226
 Exc_core =       37.9747719782689188
       KE =      230.6327217266418472
-------------------------------------
     Etot =     -771.4721418475677410
       TS =        0.0245050145686420
-------------------------------------
        F =     -771.4966468621363447

LatticeMinimize: Iter:   1  F: -771.496646862136345  |grad|_K:  1.152e-01  alpha:  8.075e-01  linmin: -2.829e-01  t[s]:  37743.72

#--- Lowdin population analysis ---
# oxidation-state Zr +0.043 +0.046 +0.013 +0.010 +0.011 +0.048 -0.014 +0.007 +0.072 +0.078 +0.007 +0.009 +0.058 +0.011 +0.006 -0.011
# oxidation-state O -0.255


-------- Electronic minimization -----------
	FillingsUpdate:  mu: +0.521499601  nElectrons: 198.000000
ElecMinimize: Iter:   0  F: -771.346018951334258  |grad|_K:  3.272e-05  alpha:  1.000e+00
	FillingsUpdate:  mu: +0.522987497  nElectrons: 198.000000
	SubspaceRotationAdjust: set factor to 0.184
ElecMinimize: Iter:   1  F: -771.469176791770906  |grad|_K:  1.364e-05  alpha:  4.533e-01  linmin:  1.751e-03  t[s]:  39084.66
	FillingsUpdate:  mu: +0.521975910  nElectrons: 198.000000
	SubspaceRotationAdjust: set factor to 0.127
ElecMinimize: Iter:   2  F: -771.486428066270832  |grad|_K:  7.477e-06  alpha:  3.635e-01  linmin: -1.378e-04  t[s]:  39723.16
	FillingsUpdate:  mu: +0.522888870  nElectrons: 198.000000
	SubspaceRotationAdjust: set factor to 0.146
ElecMinimize: Iter:   3  F: -771.494240113430465  |grad|_K:  5.477e-06  alpha:  5.420e-01  linmin: -9.734e-06  t[s]:  40358.73
	FillingsUpdate:  mu: +0.522824166  nElectrons: 198.000000
	SubspaceRotationAdjust: set factor to 0.195
ElecMinimize: Iter:   4  F: -771.501239598210418  |grad|_K:  4.849e-06  alpha:  9.052e-01  linmin: -5.754e-05  t[s]:  40995.22
	FillingsUpdate:  mu: +0.522299951  nElectrons: 198.000000
	SubspaceRotationAdjust: set factor to 0.142
ElecMinimize: Iter:   5  F: -771.505466557293175  |grad|_K:  4.232e-06  alpha:  6.971e-01  linmin: -2.561e-05  t[s]:  41637.21
	FillingsUpdate:  mu: +0.522847334  nElectrons: 198.000000
	SubspaceRotationAdjust: set factor to 0.0923
ElecMinimize: Iter:   6  F: -771.507317256829310  |grad|_K:  2.497e-06  alpha:  4.003e-01  linmin: -1.467e-05  t[s]:  42274.25
	FillingsUpdate:  mu: +0.522794512  nElectrons: 198.000000
	SubspaceRotationAdjust: set factor to 0.15
ElecMinimize: Iter:   7  F: -771.508259828430596  |grad|_K:  1.180e-06  alpha:  5.868e-01  linmin:  1.191e-05  t[s]:  42910.46
	FillingsUpdate:  mu: +0.522674657  nElectrons: 198.000000
	SubspaceRotationAdjust: set factor to 0.131
ElecMinimize: Iter:   8  F: -771.508470341257521  |grad|_K:  7.869e-07  alpha:  5.873e-01  linmin: -1.486e-05  t[s]:  43546.38
	FillingsUpdate:  mu: +0.522737400  nElectrons: 198.000000
	SubspaceRotationAdjust: set factor to 0.134
ElecMinimize: Iter:   9  F: -771.508592612227403  |grad|_K:  5.948e-07  alpha:  7.667e-01  linmin:  1.327e-05  t[s]:  44182.26
	FillingsUpdate:  mu: +0.522683958  nElectrons: 198.000000
	SubspaceRotationAdjust: set factor to 0.145
ElecMinimize: Iter:  10  F: -771.508669009975847  |grad|_K:  4.786e-07  alpha:  8.387e-01  linmin:  1.687e-07  t[s]:  44826.44
	FillingsUpdate:  mu: +0.522690413  nElectrons: 198.000000
	SubspaceRotationAdjust: set factor to 0.188
ElecMinimize: Iter:  11  F: -771.508711412975345  |grad|_K:  2.972e-07  alpha:  7.189e-01  linmin: -5.268e-07  t[s]:  45464.00
	FillingsUpdate:  mu: +0.522706675  nElectrons: 198.000000
	SubspaceRotationAdjust: set factor to 0.173
ElecMinimize: Iter:  12  F: -771.508728043110295  |grad|_K:  2.250e-07  alpha:  7.312e-01  linmin: -1.650e-06  t[s]:  46100.01
	FillingsUpdate:  mu: +0.522679832  nElectrons: 198.000000
	SubspaceRotationAdjust: set factor to 0.123
ElecMinimize: Iter:  13  F: -771.508736042535361  |grad|_K:  2.086e-07  alpha:  6.138e-01  linmin:  1.114e-06  t[s]:  46736.28
	FillingsUpdate:  mu: +0.522700465  nElectrons: 198.000000
	SubspaceRotationAdjust: set factor to 0.119
ElecMinimize: Iter:  14  F: -771.508742242884978  |grad|_K:  1.246e-07  alpha:  5.533e-01  linmin: -1.093e-06  t[s]:  47373.56
	FillingsUpdate:  mu: +0.522704025  nElectrons: 198.000000
	SubspaceRotationAdjust: set factor to 0.154
ElecMinimize: Iter:  15  F: -771.508745194022822  |grad|_K:  8.687e-08  alpha:  7.383e-01  linmin:  4.539e-08  t[s]:  48009.68
	FillingsUpdate:  mu: +0.522697166  nElectrons: 198.000000
	SubspaceRotationAdjust: set factor to 0.133
ElecMinimize: Iter:  16  F: -771.508746303500175  |grad|_K:  5.302e-08  alpha:  5.709e-01  linmin:  3.056e-07  t[s]:  48645.16
	FillingsUpdate:  mu: +0.522702184  nElectrons: 198.000000
	SubspaceRotationAdjust: set factor to 0.125
ElecMinimize: Iter:  17  F: -771.508746733394105  |grad|_K:  3.561e-08  alpha:  5.937e-01  linmin: -1.377e-06  t[s]:  49280.01
	FillingsUpdate:  mu: +0.522700694  nElectrons: 198.000000
	SubspaceRotationAdjust: set factor to 0.165
ElecMinimize: Iter:  18  F: -771.508746972026415  |grad|_K:  2.431e-08  alpha:  7.305e-01  linmin: -7.317e-07  t[s]:  49916.49
	FillingsUpdate:  mu: +0.522700115  nElectrons: 198.000000
	SubspaceRotationAdjust: set factor to 0.204
ElecMinimize: Iter:  19  F: -771.508747086426524  |grad|_K:  2.017e-08  alpha:  7.517e-01  linmin: -1.910e-06  t[s]:  50550.76
	FillingsUpdate:  mu: +0.522701680  nElectrons: 198.000000
	SubspaceRotationAdjust: set factor to 0.187
ElecMinimize: Iter:  20  F: -771.508747151777243  |grad|_K:  1.624e-08  alpha:  6.236e-01  linmin:  9.160e-07  t[s]:  51187.51
	FillingsUpdate:  mu: +0.522699943  nElectrons: 198.000000
	SubspaceRotationAdjust: set factor to 0.135
ElecMinimize: Iter:  21  F: -771.508747183538730  |grad|_K:  1.115e-08  alpha:  4.680e-01  linmin:  1.725e-06  t[s]:  51822.09
	FillingsUpdate:  mu: +0.522700548  nElectrons: 198.000000
	SubspaceRotationAdjust: set factor to 0.133
ElecMinimize: Iter:  22  F: -771.508747199882350  |grad|_K:  6.070e-09  alpha:  5.106e-01  linmin:  3.238e-06  t[s]:  52457.27
	FillingsUpdate:  mu: +0.522700567  nElectrons: 198.000000
	SubspaceRotationAdjust: set factor to 0.174
ElecMinimize: Iter:  23  F: -771.508747204958581  |grad|_K:  3.297e-09  alpha:  5.339e-01  linmin: -1.961e-05  t[s]:  53093.72
	FillingsUpdate:  mu: +0.522700328  nElectrons: 198.000000
	SubspaceRotationAdjust: set factor to 0.156
ElecMinimize: Iter:  24  F: -771.508747206615453  |grad|_K:  2.437e-09  alpha:  6.175e-01  linmin:  3.309e-05  t[s]:  53729.86
ElecMinimize: Converged (|Delta F|<1.000000e-08 for 2 iters).
Setting wave functions to eigenvectors of Hamiltonian
# Lattice vectors:
R = 
[      12.2464     -6.12109   0.00832057  ]
[   0.00240996      10.5994    0.0153435  ]
[   0.00522716   0.00573232      19.5224  ]
unit cell volume = 2534.37

# Strain tensor in Cartesian coordinates:
[   0.00255186  0.000197269   0.00042773  ]
[  0.000197292   0.00207577  0.000788754  ]
[  0.000427923  0.000788937   0.00357399  ]

# Stress tensor in Cartesian coordinates [Eh/a0^3]:
[  -4.8166e-05 -3.22297e-06 -6.97272e-06  ]
[ -3.22297e-06 -3.84445e-05 -1.25764e-05  ]
[ -6.97272e-06 -1.25764e-05 -7.37972e-05  ]

# Ionic positions in cartesian coordinates:
ion Zr   0.000705801490452  -0.000822869782746   0.001009862014018 1
ion Zr   0.008568860715423   3.537324565649397   4.882899577528739 1
ion Zr   0.000519068537069   0.004615768437810   9.759691689282564 1
ion Zr   0.005531240154131   3.547940258255178  14.645315102053031 1
ion Zr  -3.035732517718106   5.311420700313377  -0.010742382470431 1
ion Zr  -3.054704210882296   8.840869908027255   4.889862013749908 1
ion Zr  -3.048998339420386   5.310251162661077   9.769735684520626 1
ion Zr  -3.052295462255378   8.844104919480635  14.647279246152896 1
ion Zr   6.170799695699157  -0.035197913633420  -0.053462391193178 1
ion Zr   6.207606009715096   3.592089742802627   4.987145268340616 1
ion Zr   6.126670960554978   0.008617717595347   9.758497545127872 1
ion Zr   6.128952720587623   3.545701529554502  14.658672490097770 1
ion Zr   3.062155493218540   5.317487222014655  -0.012745619851912 1
ion Zr   3.082804583729088   8.838037921461410   4.900591568862898 1
ion Zr   3.066642302393201   5.308535780634745   9.766180820078256 1
ion Zr   3.075706357693311   8.847018541473073  14.644452921304303 1
ion O   3.914145307643817   2.011477715139319   2.428530869105408 1

# Forces in Cartesian coordinates:
force Zr   0.002786033063612   0.000633891336987   0.000706327742217 1
force Zr   0.004592821363430  -0.000278139195385  -0.000491654321155 1
force Zr  -0.001204040879049  -0.000979372422689  -0.000719360992750 1
force Zr  -0.000428292193849   0.000888596817814   0.000310293845759 1
force Zr   0.008834433798934   0.003900612116124  -0.005029833212646 1
force Zr   0.002534019416372   0.003433275202999   0.000675384754087 1
force Zr   0.003168619993894   0.001284241273378   0.002927642708119 1
force Zr   0.000385942804559  -0.000117969003317  -0.000157406803069 1
force Zr   0.012359410001323  -0.007488626170664  -0.014240170824581 1
force Zr   0.019887224602121   0.012034070976307   0.024103604977013 1
force Zr  -0.000323341184887  -0.000028378807489  -0.002051491192908 1
force Zr  -0.000410045629737  -0.000183682681818   0.004287727455632 1
force Zr   0.001608319871796   0.003602958745016  -0.005429201722229 1
force Zr   0.006647889667348   0.000414703067875   0.004735001269034 1
force Zr  -0.000058256641173  -0.000190660629749  -0.000187756458242 1
force Zr   0.002606830495877   0.000351725150461  -0.002736404457123 1
force O  -0.063037675601214  -0.017289599155784  -0.006462943337032 1

# Energy components:
   Eewald =     -627.7707419973276046
       EH =      115.8178228954814557
     Eloc =     -474.3442540033058776
      Enl =       92.2672003132790053
      Exc =     -145.9110419822529252
 Exc_core =       37.9747701822050914
       KE =      230.4818655156824718
-------------------------------------
     Etot =     -771.4843790762383833
       TS =        0.0243681303770985
-------------------------------------
        F =     -771.5087472066154533

LatticeMinimize: Iter:   2  F: -771.508747206615453  |grad|_K:  8.077e-02  alpha:  4.553e-01  linmin: -3.168e-01  t[s]:  54044.06

#--- Lowdin population analysis ---
# oxidation-state Zr +0.047 +0.050 +0.013 +0.010 +0.011 +0.054 -0.016 +0.008 +0.072 +0.076 +0.007 +0.009 +0.063 +0.011 +0.006 -0.013
# oxidation-state O -0.274


-------- Electronic minimization -----------
	FillingsUpdate:  mu: +0.520598347  nElectrons: 198.000000
ElecMinimize: Iter:   0  F: -771.397768351188347  |grad|_K:  2.794e-05  alpha:  1.000e+00
	FillingsUpdate:  mu: +0.521537637  nElectrons: 198.000000
	SubspaceRotationAdjust: set factor to 0.167
ElecMinimize: Iter:   1  F: -771.494261828323829  |grad|_K:  9.392e-06  alpha:  4.848e-01  linmin:  1.740e-03  t[s]:  55391.00
	FillingsUpdate:  mu: +0.520928916  nElectrons: 198.000000
	SubspaceRotationAdjust: set factor to 0.121
ElecMinimize: Iter:   2  F: -771.504046793855196  |grad|_K:  4.674e-06  alpha:  4.336e-01  linmin: -2.577e-04  t[s]:  56027.77
	FillingsUpdate:  mu: +0.521421584  nElectrons: 198.000000
	SubspaceRotationAdjust: set factor to 0.109
ElecMinimize: Iter:   3  F: -771.508247856444200  |grad|_K:  4.158e-06  alpha:  7.458e-01  linmin: -4.671e-06  t[s]:  56664.87
	FillingsUpdate:  mu: +0.521111106  nElectrons: 198.000000
	SubspaceRotationAdjust: set factor to 0.118
ElecMinimize: Iter:   4  F: -771.512335683962533  |grad|_K:  3.586e-06  alpha:  9.176e-01  linmin: -3.773e-05  t[s]:  57300.72
	FillingsUpdate:  mu: +0.521044232  nElectrons: 198.000000
	SubspaceRotationAdjust: set factor to 0.143
ElecMinimize: Iter:   5  F: -771.514767772024129  |grad|_K:  2.585e-06  alpha:  7.332e-01  linmin: -4.575e-06  t[s]:  57936.87
	FillingsUpdate:  mu: +0.521302023  nElectrons: 198.000000
	SubspaceRotationAdjust: set factor to 0.115
ElecMinimize: Iter:   6  F: -771.515906207684452  |grad|_K:  1.497e-06  alpha:  6.613e-01  linmin:  2.512e-05  t[s]:  58571.58
	FillingsUpdate:  mu: +0.521159544  nElectrons: 198.000000
	SubspaceRotationAdjust: set factor to 0.0941
ElecMinimize: Iter:   7  F: -771.516183973303214  |grad|_K:  8.132e-07  alpha:  4.818e-01  linmin: -4.963e-06  t[s]:  59207.20
	FillingsUpdate:  mu: +0.521189577  nElectrons: 198.000000
	SubspaceRotationAdjust: set factor to 0.137
ElecMinimize: Iter:   8  F: -771.516314952497964  |grad|_K:  5.674e-07  alpha:  7.692e-01  linmin:  7.930e-06  t[s]:  59842.33
	FillingsUpdate:  mu: +0.521228554  nElectrons: 198.000000
	SubspaceRotationAdjust: set factor to 0.146
ElecMinimize: Iter:   9  F: -771.516375016078086  |grad|_K:  4.765e-07  alpha:  7.245e-01  linmin:  2.929e-07  t[s]:  60488.65
	FillingsUpdate:  mu: +0.521169542  nElectrons: 198.000000
	SubspaceRotationAdjust: set factor to 0.133
ElecMinimize: Iter:  10  F: -771.516426989504225  |grad|_K:  4.100e-07  alpha:  8.891e-01  linmin:  3.585e-06  t[s]:  61135.37
	FillingsUpdate:  mu: +0.521205511  nElectrons: 198.000000
	SubspaceRotationAdjust: set factor to 0.123
ElecMinimize: Iter:  11  F: -771.516454070461009  |grad|_K:  2.697e-07  alpha:  6.257e-01  linmin: -1.195e-06  t[s]:  61783.37
	FillingsUpdate:  mu: +0.521196012  nElectrons: 198.000000
	SubspaceRotationAdjust: set factor to 0.166
ElecMinimize: Iter:  12  F: -771.516466945067123  |grad|_K:  1.710e-07  alpha:  6.873e-01  linmin:  1.619e-07  t[s]:  62420.46
	FillingsUpdate:  mu: +0.521186411  nElectrons: 198.000000
	SubspaceRotationAdjust: set factor to 0.162
ElecMinimize: Iter:  13  F: -771.516472879785510  |grad|_K:  1.366e-07  alpha:  7.881e-01  linmin:  8.751e-07  t[s]:  63055.63
	FillingsUpdate:  mu: +0.521203372  nElectrons: 198.000000
	SubspaceRotationAdjust: set factor to 0.145
ElecMinimize: Iter:  14  F: -771.516476001198384  |grad|_K:  1.202e-07  alpha:  6.492e-01  linmin: -1.096e-06  t[s]:  63692.44
	FillingsUpdate:  mu: +0.521192529  nElectrons: 198.000000
	SubspaceRotationAdjust: set factor to 0.125
ElecMinimize: Iter:  15  F: -771.516478274497103  |grad|_K:  7.807e-08  alpha:  6.111e-01  linmin:  9.440e-07  t[s]:  64327.66
	FillingsUpdate:  mu: +0.521194192  nElectrons: 198.000000
	SubspaceRotationAdjust: set factor to 0.162
ElecMinimize: Iter:  16  F: -771.516479238705870  |grad|_K:  4.445e-08  alpha:  6.144e-01  linmin: -9.505e-07  t[s]:  64963.02
	FillingsUpdate:  mu: +0.521197334  nElectrons: 198.000000
	SubspaceRotationAdjust: set factor to 0.159
ElecMinimize: Iter:  17  F: -771.516479570427691  |grad|_K:  3.027e-08  alpha:  6.518e-01  linmin:  3.349e-06  t[s]:  65598.07
	FillingsUpdate:  mu: +0.521194409  nElectrons: 198.000000
	SubspaceRotationAdjust: set factor to 0.143
ElecMinimize: Iter:  18  F: -771.516479693720839  |grad|_K:  2.076e-08  alpha:  5.226e-01  linmin:  7.095e-07  t[s]:  66233.50
	FillingsUpdate:  mu: +0.521196213  nElectrons: 198.000000
	SubspaceRotationAdjust: set factor to 0.159
ElecMinimize: Iter:  19  F: -771.516479767408782  |grad|_K:  1.435e-08  alpha:  6.631e-01  linmin: -7.514e-06  t[s]:  66870.04
	FillingsUpdate:  mu: +0.521195921  nElectrons: 198.000000
	SubspaceRotationAdjust: set factor to 0.199
ElecMinimize: Iter:  20  F: -771.516479805548784  |grad|_K:  1.063e-08  alpha:  7.186e-01  linmin: -2.153e-06  t[s]:  67507.83
	FillingsUpdate:  mu: +0.521195364  nElectrons: 198.000000
	SubspaceRotationAdjust: set factor to 0.212
ElecMinimize: Iter:  21  F: -771.516479823618511  |grad|_K:  7.761e-09  alpha:  6.189e-01  linmin: -9.971e-06  t[s]:  68163.40
	FillingsUpdate:  mu: +0.521196097  nElectrons: 198.000000
	SubspaceRotationAdjust: set factor to 0.161
ElecMinimize: Iter:  22  F: -771.516479831397874  |grad|_K:  5.523e-09  alpha:  4.994e-01  linmin: -1.545e-05  t[s]:  68800.24
	FillingsUpdate:  mu: +0.521195614  nElectrons: 198.000000
	SubspaceRotationAdjust: set factor to 0.128
ElecMinimize: Iter:  23  F: -771.516479834457868  |grad|_K:  3.211e-09  alpha:  3.815e-01  linmin: -3.011e-05  t[s]:  69438.52
ElecMinimize: Converged (|Delta F|<1.000000e-08 for 2 iters).
Setting wave functions to eigenvectors of Hamiltonian
# Lattice vectors:
R = 
[      12.2547     -6.12528   0.00855585  ]
[   0.00236261       10.605    0.0168739  ]
[   0.00537788   0.00649395      19.5464  ]
unit cell volume = 2540.54

# Strain tensor in Cartesian coordinates:
[    0.0032313  0.000193401  0.000439825  ]
[  0.000193416    0.0025985  0.000867426  ]
[  0.000440262  0.000868057   0.00481024  ]

# Stress tensor in Cartesian coordinates [Eh/a0^3]:
[ -2.83907e-05 -1.91786e-06 -4.04211e-06  ]
[ -1.91786e-06 -2.27285e-05 -6.47926e-06  ]
[ -4.04211e-06 -6.47926e-06 -4.94408e-05  ]

# Ionic positions in cartesian coordinates:
ion Zr   0.009600920490708   0.001793298246738   0.002889855878958 1
ion Zr   0.020842358733474   3.538643249203942   4.887770843349685 1
ion Zr  -0.001294258754205   0.003851370285025   9.770074697173248 1
ion Zr   0.005048391620180   3.552220361937198  14.664183054160969 1
ion Zr  -3.022616755619858   5.320434627583113  -0.019574758893798 1
ion Zr  -3.049924530647795   8.855496458923101   4.896655968519782 1
ion Zr  -3.044516561455555   5.316472188881447   9.788784045666720 1
ion Zr  -3.053731307547728   8.849850613376018  14.665485420421533 1
ion Zr   6.189078684871701  -0.039181386514902  -0.068715591917201 1
ion Zr   6.225500228735642   3.599488404747059   5.009220930894202 1
ion Zr   6.130191058184112   0.009456421472085   9.766673956893097 1
ion Zr   6.132538903513436   3.548382874407813  14.684934425392662 1
ion Zr   3.069939416667836   5.322538565073163  -0.019755023054025 1
ion Zr   3.097158429313208   8.844511401783864   4.916352571960732 1
ion Zr   3.068701742065158   5.311428119298777   9.778250906271419 1
ion Zr   3.083147002705596   8.853348555147045  14.657208657187784 1
ion O   3.819952949185045   1.987941178727687   2.435889649278995 1

# Forces in Cartesian coordinates:
force Zr   0.004178937261455   0.001296981533470   0.000740547699066 1
force Zr   0.005363430912211  -0.000310843807680  -0.000601667096186 1
force Zr  -0.000816873490521  -0.000663485369655  -0.000663425246721 1
force Zr  -0.000235251115149   0.000611156298424   0.000262603999973 1
force Zr   0.006989497116300   0.002880520605019  -0.003911022836245 1
force Zr   0.003024944165811   0.003681451751103   0.000280685318650 1
force Zr   0.002713747629278   0.001131142618258   0.002626563326985 1
force Zr   0.000329257098853   0.000011723235725  -0.000173178980769 1
force Zr   0.007714284053487  -0.003197589879835  -0.008441294581321 1
force Zr   0.012386706646554   0.006950870024098   0.014056221610687 1
force Zr  -0.000202968269284   0.000071432771339  -0.001615408205638 1
force Zr  -0.000191809620580  -0.000106239943014   0.003287027945677 1
force Zr   0.002476056874410   0.001715988340356  -0.003708938948405 1
force Zr   0.005615407923016   0.000695799847453   0.003980264807491 1
force Zr   0.000077263695265  -0.000260672951995  -0.000174177271016 1
force Zr   0.002243656383611   0.000267490638946  -0.002472147564280 1
force O  -0.051779179676264  -0.014851864466832  -0.003215213541346 1

# Energy components:
   Eewald =     -627.5150578674047210
       EH =      115.7739334826672746
     Eloc =     -474.4840732411487352
      Enl =       92.2516586967672936
      Exc =     -145.8801961795781210
 Exc_core =       37.9747715721160972
       KE =      230.3867615168762484
-------------------------------------
     Etot =     -771.4922020197046777
       TS =        0.0242778147531926
-------------------------------------
        F =     -771.5164798344578685

LatticeMinimize: Iter:   3  F: -771.516479834457868  |grad|_K:  6.201e-02  alpha:  3.057e-01  linmin: -3.654e-01  t[s]:  69732.52

#--- Lowdin population analysis ---
# oxidation-state Zr +0.051 +0.054 +0.012 +0.010 +0.011 +0.058 -0.016 +0.008 +0.071 +0.074 +0.007 +0.009 +0.065 +0.011 +0.007 -0.014
# oxidation-state O -0.284


-------- Electronic minimization -----------
	FillingsUpdate:  mu: +0.520338645  nElectrons: 198.000000
ElecMinimize: Iter:   0  F: -771.414741667466387  |grad|_K:  2.640e-05  alpha:  1.000e+00
	FillingsUpdate:  mu: +0.520731448  nElectrons: 198.000000
	SubspaceRotationAdjust: set factor to 0.15
ElecMinimize: Iter:   1  F: -771.503951887611038  |grad|_K:  8.051e-06  alpha:  5.004e-01  linmin:  1.842e-03  t[s]:  71086.12
	FillingsUpdate:  mu: +0.520476921  nElectrons: 198.000000
	SubspaceRotationAdjust: set factor to 0.137
ElecMinimize: Iter:   2  F: -771.511652120680765  |grad|_K:  3.852e-06  alpha:  4.636e-01  linmin: -2.347e-04  t[s]:  71721.99
	FillingsUpdate:  mu: +0.520544432  nElectrons: 198.000000
	SubspaceRotationAdjust: set factor to 0.19
ElecMinimize: Iter:   3  F: -771.515621744957912  |grad|_K:  3.662e-06  alpha:  1.038e+00  linmin:  1.325e-05  t[s]:  72356.74
	FillingsUpdate:  mu: +0.520251388  nElectrons: 198.000000
	SubspaceRotationAdjust: set factor to 0.205
ElecMinimize: Iter:   4  F: -771.519357249463610  |grad|_K:  3.174e-06  alpha:  1.082e+00  linmin: -5.053e-05  t[s]:  72993.39
	FillingsUpdate:  mu: +0.520589086  nElectrons: 198.000000
	SubspaceRotationAdjust: set factor to 0.162
ElecMinimize: Iter:   5  F: -771.521060043211151  |grad|_K:  2.842e-06  alpha:  6.539e-01  linmin: -8.312e-06  t[s]:  73630.92
	FillingsUpdate:  mu: +0.520359157  nElectrons: 198.000000
	SubspaceRotationAdjust: set factor to 0.0955
ElecMinimize: Iter:   6  F: -771.521843139789439  |grad|_K:  1.252e-06  alpha:  3.767e-01  linmin:  8.407e-06  t[s]:  74267.21
	FillingsUpdate:  mu: +0.520432649  nElectrons: 198.000000
	SubspaceRotationAdjust: set factor to 0.127
ElecMinimize: Iter:   7  F: -771.522061825197284  |grad|_K:  6.604e-07  alpha:  5.418e-01  linmin: -9.125e-06  t[s]:  74902.06
	FillingsUpdate:  mu: +0.520453130  nElectrons: 198.000000
	SubspaceRotationAdjust: set factor to 0.146
ElecMinimize: Iter:   8  F: -771.522135689511856  |grad|_K:  4.251e-07  alpha:  6.575e-01  linmin:  5.469e-06  t[s]:  75539.35
	FillingsUpdate:  mu: +0.520413440  nElectrons: 198.000000
	SubspaceRotationAdjust: set factor to 0.153
ElecMinimize: Iter:   9  F: -771.522170319227257  |grad|_K:  3.824e-07  alpha:  7.444e-01  linmin: -3.815e-06  t[s]:  76177.94
	FillingsUpdate:  mu: +0.520450480  nElectrons: 198.000000
	SubspaceRotationAdjust: set factor to 0.16
ElecMinimize: Iter:  10  F: -771.522201755906281  |grad|_K:  3.098e-07  alpha:  8.348e-01  linmin: -2.788e-06  t[s]:  76812.78
	FillingsUpdate:  mu: +0.520435911  nElectrons: 198.000000
	SubspaceRotationAdjust: set factor to 0.175
ElecMinimize: Iter:  11  F: -771.522218878452577  |grad|_K:  2.019e-07  alpha:  6.929e-01  linmin: -1.218e-06  t[s]:  77449.20
	FillingsUpdate:  mu: +0.520440416  nElectrons: 198.000000
	SubspaceRotationAdjust: set factor to 0.228
ElecMinimize: Iter:  12  F: -771.522225948868368  |grad|_K:  1.386e-07  alpha:  6.735e-01  linmin: -6.053e-07  t[s]:  78084.36
	FillingsUpdate:  mu: +0.520438694  nElectrons: 198.000000
	SubspaceRotationAdjust: set factor to 0.313
ElecMinimize: Iter:  13  F: -771.522229533030895  |grad|_K:  1.057e-07  alpha:  7.243e-01  linmin:  4.837e-07  t[s]:  78719.41
	FillingsUpdate:  mu: +0.520435522  nElectrons: 198.000000
	SubspaceRotationAdjust: set factor to 0.397
ElecMinimize: Iter:  14  F: -771.522231493218214  |grad|_K:  7.784e-08  alpha:  6.818e-01  linmin: -8.890e-07  t[s]:  79355.97
	FillingsUpdate:  mu: +0.520440586  nElectrons: 198.000000
	SubspaceRotationAdjust: set factor to 0.278
ElecMinimize: Iter:  15  F: -771.522232229557289  |grad|_K:  7.807e-08  alpha:  4.718e-01  linmin:  7.224e-07  t[s]:  79992.73
	FillingsUpdate:  mu: +0.520435223  nElectrons: 198.000000
	SubspaceRotationAdjust: set factor to 0.162
ElecMinimize: Iter:  16  F: -771.522232505887928  |grad|_K:  3.795e-08  alpha:  1.761e-01  linmin:  9.269e-07  t[s]:  80630.50
ElecMinimize: 	Predicted alpha/alphaT>3.000000, increasing alphaT to 5.283243e-01.
	FillingsUpdate:  mu: +0.520436197  nElectrons: 198.000000
	SubspaceRotationAdjust: set factor to 0.228
ElecMinimize: Iter:  17  F: -771.522232711338120  |grad|_K:  2.418e-08  alpha:  5.541e-01  linmin:  8.474e-06  t[s]:  81426.06
	FillingsUpdate:  mu: +0.520437641  nElectrons: 198.000000
	SubspaceRotationAdjust: set factor to 0.218
ElecMinimize: Iter:  18  F: -771.522232782520064  |grad|_K:  1.635e-08  alpha:  4.726e-01  linmin:  2.553e-06  t[s]:  82062.30
	FillingsUpdate:  mu: +0.520436689  nElectrons: 198.000000
	SubspaceRotationAdjust: set factor to 0.191
ElecMinimize: Iter:  19  F: -771.522232808907916  |grad|_K:  1.123e-08  alpha:  3.835e-01  linmin: -2.455e-05  t[s]:  82697.09
	FillingsUpdate:  mu: +0.520437493  nElectrons: 198.000000
	SubspaceRotationAdjust: set factor to 0.228
ElecMinimize: Iter:  20  F: -771.522232825265633  |grad|_K:  7.387e-09  alpha:  5.038e-01  linmin:  2.902e-05  t[s]:  83334.20
	FillingsUpdate:  mu: +0.520437391  nElectrons: 198.000000
	SubspaceRotationAdjust: set factor to 0.274
ElecMinimize: Iter:  21  F: -771.522232834133206  |grad|_K:  5.673e-09  alpha:  6.301e-01  linmin: -1.807e-05  t[s]:  83973.83
	FillingsUpdate:  mu: +0.520437365  nElectrons: 198.000000
	SubspaceRotationAdjust: set factor to 0.24
ElecMinimize: Iter:  22  F: -771.522232838513787  |grad|_K:  5.334e-09  alpha:  5.266e-01  linmin: -1.169e-05  t[s]:  84611.54
ElecMinimize: Converged (|Delta F|<1.000000e-08 for 2 iters).
Setting wave functions to eigenvectors of Hamiltonian
# Lattice vectors:
R = 
[      12.2576     -6.12684   0.00827942  ]
[   0.00225622       10.607    0.0160904  ]
[    0.0052075   0.00615952      19.5617  ]
unit cell volume = 2543.6

# Strain tensor in Cartesian coordinates:
[   0.00347042  0.000184713  0.000425615  ]
[  0.000184706   0.00278165  0.000827149  ]
[  0.000426314  0.000828391   0.00559751  ]

# Stress tensor in Cartesian coordinates [Eh/a0^3]:
[ -1.68417e-05 -1.01477e-06 -2.18636e-06  ]
[ -1.01477e-06 -1.42485e-05 -3.05462e-06  ]
[ -2.18636e-06 -3.05462e-06 -3.40005e-05  ]

# Ionic positions in cartesian coordinates:
ion Zr   0.023606457015535   0.006634260475677   0.004984778619317 1
ion Zr   0.036650818587547   3.538105165809054   4.889565981020455 1
ion Zr  -0.002631922794965   0.002512057250848   9.776043962355518 1
ion Zr   0.004629918053514   3.553148892891965  14.676049220263168 1
ion Zr  -3.010071160224370   5.326274745636629  -0.027389993281784 1
ion Zr  -3.041719860236289   8.867852471672647   4.899623652439864 1
ion Zr  -3.039301066415339   5.319720419199387   9.802731997963763 1
ion Zr  -3.054147320299208   8.851242334320366  14.676096476117399 1
ion Zr   6.197303697958314  -0.035132075069678  -0.074407266105781 1
ion Zr   6.232938882954777   3.599803133780609   5.016022823802094 1
ion Zr   6.131141704019355   0.009420199305208   9.770943823973257 1
ion Zr   6.133655118982209   3.548289648041579  14.702499685509220 1
ion Zr   3.079287485616296   5.322437250095217  -0.024948288515203 1
ion Zr   3.109570314763279   8.848376613493693   4.928277186184806 1
ion Zr   3.069639704817726   5.311124225653351   9.785204700013953 1
ion Zr   3.088634688997169   8.854841713189268  14.662256794103294 1
ion O   3.724925233335070   1.960270240092397   2.443314561535623 1

# Forces in Cartesian coordinates:
force Zr   0.004652075307009   0.001628701195628   0.000685284834193 1
force Zr   0.005233465822164  -0.000189645301547  -0.000490095457034 1
force Zr  -0.000475599470854  -0.000407599012371  -0.000592918021995 1
force Zr  -0.000073664063494   0.000409975637608   0.000202106154217 1
force Zr   0.005310618523366   0.002008294370464  -0.002824114534056 1
force Zr   0.003072933162787   0.003065477742771   0.000288199324341 1
force Zr   0.002103163759874   0.000878748403674   0.001947678694430 1
force Zr   0.000339085541415   0.000083765952377  -0.000124585555754 1
force Zr   0.005249897786067  -0.001147490189145  -0.005012473059930 1
force Zr   0.008069431087704   0.004200249779749   0.008145768732084 1
force Zr  -0.000018504705954   0.000178809876754  -0.001188867740151 1
force Zr   0.000049109225574  -0.000046617413561   0.002250137555282 1
force Zr   0.002720278256551   0.000943006972532  -0.002445240305563 1
force Zr   0.004559078393879   0.000785396665881   0.003114465939457 1
force Zr   0.000251969264443  -0.000241931010255  -0.000215033579137 1
force Zr   0.001738671268901   0.000211949947290  -0.001913536593754 1
force O  -0.043438872862387  -0.012488864800351  -0.001537278358362 1

# Energy components:
   Eewald =     -627.3328605095339299
       EH =      115.8009418718015269
     Eloc =     -474.6517421975768229
      Enl =       92.2430392511506057
      Exc =     -145.8631451855137016
 Exc_core =       37.9747744031931163
       KE =      230.3309821506396702
-------------------------------------
     Etot =     -771.4980102158395994
       TS =        0.0242226226741373
-------------------------------------
        F =     -771.5222328385137871

LatticeMinimize: Iter:   4  F: -771.522232838513787  |grad|_K:  4.987e-02  alpha:  2.100e-01  linmin: -4.215e-01  t[s]:  84901.79

#--- Lowdin population analysis ---
# oxidation-state Zr +0.054 +0.057 +0.012 +0.010 +0.011 +0.060 -0.015 +0.008 +0.070 +0.073 +0.008 +0.008 +0.066 +0.012 +0.007 -0.015
# oxidation-state O -0.290


-------- Electronic minimization -----------
	FillingsUpdate:  mu: +0.520439455  nElectrons: 198.000000
ElecMinimize: Iter:   0  F: -771.422661903922517  |grad|_K:  2.638e-05  alpha:  1.000e+00
	FillingsUpdate:  mu: +0.520443505  nElectrons: 198.000000
	SubspaceRotationAdjust: set factor to 0.281
ElecMinimize: Iter:   1  F: -771.511287157330230  |grad|_K:  8.324e-06  alpha:  4.968e-01  linmin:  8.297e-04  t[s]:  86248.47
	FillingsUpdate:  mu: +0.520144507  nElectrons: 198.000000
	SubspaceRotationAdjust: set factor to 0.227
ElecMinimize: Iter:   2  F: -771.519731515257149  |grad|_K:  4.362e-06  alpha:  4.751e-01  linmin: -1.052e-04  t[s]:  86883.68
	FillingsUpdate:  mu: +0.520357516  nElectrons: 198.000000
	SubspaceRotationAdjust: set factor to 0.136
ElecMinimize: Iter:   3  F: -771.522313997691640  |grad|_K:  4.629e-06  alpha:  5.266e-01  linmin:  4.269e-05  t[s]:  87521.13
	FillingsUpdate:  mu: +0.520077100  nElectrons: 198.000000
	SubspaceRotationAdjust: set factor to 0.13
ElecMinimize: Iter:   4  F: -771.524617016656634  |grad|_K:  2.721e-06  alpha:  4.179e-01  linmin: -1.720e-05  t[s]:  88167.23
	FillingsUpdate:  mu: +0.520033076  nElectrons: 198.000000
	SubspaceRotationAdjust: set factor to 0.15
ElecMinimize: Iter:   5  F: -771.525923854910616  |grad|_K:  1.886e-06  alpha:  6.845e-01  linmin: -2.881e-05  t[s]:  88802.68
	FillingsUpdate:  mu: +0.520254525  nElectrons: 198.000000
	SubspaceRotationAdjust: set factor to 0.107
ElecMinimize: Iter:   6  F: -771.526429545540850  |grad|_K:  1.286e-06  alpha:  5.517e-01  linmin:  9.597e-06  t[s]:  89439.33
	FillingsUpdate:  mu: +0.520189346  nElectrons: 198.000000
	SubspaceRotationAdjust: set factor to 0.136
ElecMinimize: Iter:   7  F: -771.526647332917605  |grad|_K:  6.172e-07  alpha:  5.116e-01  linmin: -6.067e-06  t[s]:  90077.50
	FillingsUpdate:  mu: +0.520178364  nElectrons: 198.000000
	SubspaceRotationAdjust: set factor to 0.166
ElecMinimize: Iter:   8  F: -771.526712373430883  |grad|_K:  4.745e-07  alpha:  6.630e-01  linmin:  1.553e-06  t[s]:  90715.69
	FillingsUpdate:  mu: +0.520220683  nElectrons: 198.000000
	SubspaceRotationAdjust: set factor to 0.158
ElecMinimize: Iter:   9  F: -771.526750758619414  |grad|_K:  3.769e-07  alpha:  6.620e-01  linmin:  5.338e-06  t[s]:  91362.04
	FillingsUpdate:  mu: +0.520188793  nElectrons: 198.000000
	SubspaceRotationAdjust: set factor to 0.151
ElecMinimize: Iter:  10  F: -771.526775696372169  |grad|_K:  3.294e-07  alpha:  6.818e-01  linmin:  3.148e-08  t[s]:  92001.09
	FillingsUpdate:  mu: +0.520208737  nElectrons: 198.000000
	SubspaceRotationAdjust: set factor to 0.181
ElecMinimize: Iter:  11  F: -771.526795125108151  |grad|_K:  2.075e-07  alpha:  6.952e-01  linmin: -1.371e-06  t[s]:  92639.15
	FillingsUpdate:  mu: +0.520211166  nElectrons: 198.000000
	SubspaceRotationAdjust: set factor to 0.176
ElecMinimize: Iter:  12  F: -771.526802612109122  |grad|_K:  1.484e-07  alpha:  6.752e-01  linmin:  9.089e-07  t[s]:  93275.06
	FillingsUpdate:  mu: +0.520202030  nElectrons: 198.000000
	SubspaceRotationAdjust: set factor to 0.151
ElecMinimize: Iter:  13  F: -771.526805495235294  |grad|_K:  1.158e-07  alpha:  5.085e-01  linmin:  2.495e-07  t[s]:  93911.56
	FillingsUpdate:  mu: +0.520206853  nElectrons: 198.000000
	SubspaceRotationAdjust: set factor to 0.156
ElecMinimize: Iter:  14  F: -771.526807572230155  |grad|_K:  7.463e-08  alpha:  6.013e-01  linmin:  7.033e-07  t[s]:  94548.17
	FillingsUpdate:  mu: +0.520202958  nElectrons: 198.000000
	SubspaceRotationAdjust: set factor to 0.188
ElecMinimize: Iter:  15  F: -771.526808504677888  |grad|_K:  5.226e-08  alpha:  6.502e-01  linmin:  1.476e-06  t[s]:  95185.31
	FillingsUpdate:  mu: +0.520202778  nElectrons: 198.000000
	SubspaceRotationAdjust: set factor to 0.167
ElecMinimize: Iter:  16  F: -771.526808894216060  |grad|_K:  3.472e-08  alpha:  5.539e-01  linmin:  1.265e-06  t[s]:  95821.74
	FillingsUpdate:  mu: +0.520203550  nElectrons: 198.000000
	SubspaceRotationAdjust: set factor to 0.126
ElecMinimize: Iter:  17  F: -771.526809038012971  |grad|_K:  2.142e-08  alpha:  4.633e-01  linmin:  4.644e-06  t[s]:  96457.35
	FillingsUpdate:  mu: +0.520202588  nElectrons: 198.000000
	SubspaceRotationAdjust: set factor to 0.144
ElecMinimize: Iter:  18  F: -771.526809102844595  |grad|_K:  1.369e-08  alpha:  5.490e-01  linmin:  1.340e-05  t[s]:  97098.29
	FillingsUpdate:  mu: +0.520203145  nElectrons: 198.000000
	SubspaceRotationAdjust: set factor to 0.19
ElecMinimize: Iter:  19  F: -771.526809130929678  |grad|_K:  8.749e-09  alpha:  5.826e-01  linmin:  2.816e-05  t[s]:  97734.88
	FillingsUpdate:  mu: +0.520203566  nElectrons: 198.000000
	SubspaceRotationAdjust: set factor to 0.154
ElecMinimize: Iter:  20  F: -771.526809144013328  |grad|_K:  7.661e-09  alpha:  6.628e-01  linmin: -2.723e-05  t[s]:  98371.24
	FillingsUpdate:  mu: +0.520203359  nElectrons: 198.000000
	SubspaceRotationAdjust: set factor to 0.136
ElecMinimize: Iter:  21  F: -771.526809151772227  |grad|_K:  5.439e-09  alpha:  5.132e-01  linmin: -2.741e-05  t[s]:  99006.86
	FillingsUpdate:  mu: +0.520203737  nElectrons: 198.000000
	SubspaceRotationAdjust: set factor to 0.163
ElecMinimize: Iter:  22  F: -771.526809156975787  |grad|_K:  3.639e-09  alpha:  6.717e-01  linmin: -3.218e-06  t[s]:  99640.54
ElecMinimize: Converged (|Delta F|<1.000000e-08 for 2 iters).
Setting wave functions to eigenvectors of Hamiltonian
# Lattice vectors:
R = 
[      12.2566     -6.12661   0.00738265  ]
[   0.00196727       10.607    0.0136596  ]
[   0.00464815   0.00512478        19.57  ]
unit cell volume = 2544.47

# Strain tensor in Cartesian coordinates:
[   0.00339175  0.000161076  0.000379515  ]
[  0.000161051   0.00277527  0.000702188  ]
[  0.000380522  0.000704139   0.00602454  ]

# Stress tensor in Cartesian coordinates [Eh/a0^3]:
[ -1.08702e-05  -4.4823e-07 -1.04279e-06  ]
[  -4.4823e-07 -1.02288e-05 -1.12378e-06  ]
[ -1.04279e-06 -1.12378e-06  -2.4535e-05  ]

# Ionic positions in cartesian coordinates:
ion Zr   0.041359802834859   0.013435299691539   0.007029997388278 1
ion Zr   0.053706762243380   3.537124512395897   4.889725154533140 1
ion Zr  -0.003009920187591   0.001114602899922   9.778505551685626 1
ion Zr   0.004487117284912   3.551724437672776  14.682199060083027 1
ion Zr  -2.999918299703333   5.329031231171636  -0.032682842708280 1
ion Zr  -3.031287578167373   8.875996473188776   4.900957313340339 1
ion Zr  -3.034907365050534   5.320520243901790   9.810484262511437 1
ion Zr  -3.053627725626709   8.850077678592736  14.681004654813446 1
ion Zr   6.200259345365331  -0.027138758529329  -0.073193737750417 1
ion Zr   6.233774674309756   3.596305225149391   5.011238835463904 1
ion Zr   6.130919808216458   0.009043813026891   9.772627934331409 1
ion Zr   6.133607414196968   3.546426661431545  14.711174107049155 1
ion Zr   3.089479848135689   5.320482187822272  -0.027798180524521 1
ion Zr   3.119262134711724   8.850724838696658   4.935671334145297 1
ion Zr   3.070374950672480   5.309021791196807   9.787747381992764 1
ion Zr   3.091452125197564   8.853333216711048  14.662840891704459 1
ion O   3.628726697439947   1.931668471347703   2.449902856252712 1

# Forces in Cartesian coordinates:
force Zr   0.004625733108997   0.001711976573049   0.000468936392480 1
force Zr   0.004742294506550  -0.000017970214087  -0.000294807662077 1
force Zr  -0.000215573279673  -0.000228988499044  -0.000432814688039 1
force Zr   0.000041964730272   0.000304183924746   0.000247559316335 1
force Zr   0.004093639113917   0.001401861822758  -0.002181965649988 1
force Zr   0.002985341057864   0.002317342336542   0.000387344985134 1
force Zr   0.001608593655930   0.000649660870779   0.001445866663246 1
force Zr   0.000382735663851   0.000076729169452   0.000055714532114 1
force Zr   0.003864315879641  -0.000082033909895  -0.003003629618974 1
force Zr   0.005462001562121   0.002539973470716   0.004586756414111 1
force Zr   0.000189749488165   0.000242127560633  -0.000810627891673 1
force Zr   0.000259767025462   0.000008142959233   0.001542994959267 1
force Zr   0.002751235247266   0.000682651393161  -0.001721056348584 1
[...]
ion Zr   0.058032250314888   3.555372525734623  14.718584977374967 1
ion Zr  -3.001838193554984   5.324508984931342  -0.059760721798889 1
ion Zr  -3.001364986421466   8.870196531068229   4.929460268807514 1
ion Zr  -2.999897242312731   5.325495537599350   9.826542313627909 1
ion Zr  -3.002996101936725   8.858711487117496  14.717132238885341 1
ion Zr   6.180225361184683   0.021188792042223  -0.026759654737505 1
ion Zr   6.181109725625552   3.551484893106628   4.933501592811707 1
ion Zr   6.189717612679798   0.017799411388591   9.796090464327500 1
ion Zr   6.188588179630115   3.555195505435285  14.719154585808148 1
ion Zr   3.124263255550680   5.314686100469095  -0.024750355368057 1
ion Zr   3.123008835958613   8.859749204198643   4.964947470849283 1
ion Zr   3.124835146160825   5.325939220237973   9.797581408999525 1
ion Zr   3.123710379789184   8.860044775765918  14.687281477488298 1
ion O   3.123831597424337   1.786384983933425   2.450313773069498 1

# Forces in Cartesian coordinates:
force Zr  -0.000026943742295  -0.000015658437320   0.000022731100872 1
force Zr  -0.000015149300210   0.000000867377576   0.000033106001586 1
force Zr   0.000027408030928   0.000008988279658   0.000082360444348 1
force Zr   0.000006715439582   0.000002512725745  -0.000005451341088 1
force Zr   0.000037387461964  -0.000012903539729   0.000103371472074 1
force Zr   0.000004268330558  -0.000027718113092   0.000039254303924 1
force Zr  -0.000042976135078  -0.000015065165956  -0.000009260233146 1
force Zr  -0.000003493669265  -0.000019266952192   0.000052640110744 1
force Zr   0.000005772945261   0.000074111332011   0.000155673909182 1
force Zr  -0.000145255050208  -0.000125770109392  -0.000251123938377 1
force Zr  -0.000017095589787  -0.000034304762279  -0.000018553663361 1
force Zr  -0.000028078896472   0.000003775463778   0.000040463226750 1
force Zr   0.000042449560909   0.000056169862525   0.000034653242901 1
force Zr   0.000058259802118   0.000032190261933  -0.000043525730365 1
force Zr  -0.000026904450096   0.000032374818611  -0.000042948230614 1
force Zr  -0.000035549940742  -0.000011047028014   0.000054581284827 1
force O   0.000133834875432   0.000045683929170   0.000170061951094 1

# Energy components:
   Eewald =     -626.5187175761051321
       EH =      116.2865614082006971
     Eloc =     -475.8763511910297552
      Enl =       92.2289154401193656
      Exc =     -145.8333623857582495
 Exc_core =       37.9747752923973323
       KE =      230.2252795446443088
-------------------------------------
     Etot =     -771.5128994675313834
       TS =        0.0242334717854659
-------------------------------------
        F =     -771.5371329393168480

LatticeMinimize: Iter:  15  F: -771.537132939316848  |grad|_K:  4.860e-04  alpha:  1.000e+00  linmin: -1.376e-01  t[s]: 222456.04

#--- Lowdin population analysis ---
# oxidation-state Zr +0.064 +0.064 +0.008 +0.008 +0.013 +0.064 -0.014 +0.008 +0.064 +0.064 +0.008 +0.008 +0.064 +0.013 +0.008 -0.013
# oxidation-state O -0.295


-------- Electronic minimization -----------
	FillingsUpdate:  mu: +0.519064646  nElectrons: 198.000000
ElecMinimize: Iter:   0  F: -771.537081832387571  |grad|_K:  3.089e-07  alpha:  1.000e+00
	FillingsUpdate:  mu: +0.519048319  nElectrons: 198.000000
	SubspaceRotationAdjust: set factor to 0.139
ElecMinimize: Iter:   1  F: -771.537100110511801  |grad|_K:  2.386e-07  alpha:  7.436e-01  linmin:  7.263e-07  t[s]: 223847.23
	FillingsUpdate:  mu: +0.519069042  nElectrons: 198.000000
	SubspaceRotationAdjust: set factor to 0.11
ElecMinimize: Iter:   2  F: -771.537107275813128  |grad|_K:  2.023e-07  alpha:  4.887e-01  linmin: -6.524e-09  t[s]: 224483.52
	FillingsUpdate:  mu: +0.519060625  nElectrons: 198.000000
	SubspaceRotationAdjust: set factor to 0.141
ElecMinimize: Iter:   3  F: -771.537117710647522  |grad|_K:  1.820e-07  alpha:  9.897e-01  linmin:  7.572e-07  t[s]: 225121.41
	FillingsUpdate:  mu: +0.519052941  nElectrons: 198.000000
	SubspaceRotationAdjust: set factor to 0.138
ElecMinimize: Iter:   4  F: -771.537123440107507  |grad|_K:  1.310e-07  alpha:  6.717e-01  linmin: -8.897e-08  t[s]: 225756.58
	FillingsUpdate:  mu: +0.519061442  nElectrons: 198.000000
	SubspaceRotationAdjust: set factor to 0.101
ElecMinimize: Iter:   5  F: -771.537125735065388  |grad|_K:  7.545e-08  alpha:  5.191e-01  linmin: -4.593e-07  t[s]: 226393.71
	FillingsUpdate:  mu: +0.519058618  nElectrons: 198.000000
	SubspaceRotationAdjust: set factor to 0.117
ElecMinimize: Iter:   6  F: -771.537126568733356  |grad|_K:  4.091e-08  alpha:  5.687e-01  linmin: -2.491e-06  t[s]: 227045.00
	FillingsUpdate:  mu: +0.519058305  nElectrons: 198.000000
	SubspaceRotationAdjust: set factor to 0.137
ElecMinimize: Iter:   7  F: -771.537126785635564  |grad|_K:  2.230e-08  alpha:  5.033e-01  linmin: -4.049e-06  t[s]: 227682.00
	FillingsUpdate:  mu: +0.519059603  nElectrons: 198.000000
	SubspaceRotationAdjust: set factor to 0.153
ElecMinimize: Iter:   8  F: -771.537126870040879  |grad|_K:  1.532e-08  alpha:  6.586e-01  linmin: -5.342e-05  t[s]: 228319.05
	FillingsUpdate:  mu: +0.519058607  nElectrons: 198.000000
	SubspaceRotationAdjust: set factor to 0.177
ElecMinimize: Iter:   9  F: -771.537126912491317  |grad|_K:  1.318e-08  alpha:  7.020e-01  linmin: -8.421e-06  t[s]: 228976.88
	FillingsUpdate:  mu: +0.519059105  nElectrons: 198.000000
	SubspaceRotationAdjust: set factor to 0.218
ElecMinimize: Iter:  10  F: -771.537126946435706  |grad|_K:  9.602e-09  alpha:  7.582e-01  linmin:  2.443e-06  t[s]: 229633.18
	FillingsUpdate:  mu: +0.519059238  nElectrons: 198.000000
	SubspaceRotationAdjust: set factor to 0.217
ElecMinimize: Iter:  11  F: -771.537126962814796  |grad|_K:  8.373e-09  alpha:  6.914e-01  linmin:  2.570e-05  t[s]: 230289.01
	FillingsUpdate:  mu: +0.519058849  nElectrons: 198.000000
	SubspaceRotationAdjust: set factor to 0.159
ElecMinimize: Iter:  12  F: -771.537126970300278  |grad|_K:  6.088e-09  alpha:  4.162e-01  linmin:  1.457e-05  t[s]: 230944.63
	FillingsUpdate:  mu: +0.519059156  nElectrons: 198.000000
	SubspaceRotationAdjust: set factor to 0.163
ElecMinimize: Iter:  13  F: -771.537126974884245  |grad|_K:  3.425e-09  alpha:  4.865e-01  linmin:  2.723e-04  t[s]: 231600.86
ElecMinimize: Converged (|Delta F|<1.000000e-08 for 2 iters).
Setting wave functions to eigenvectors of Hamiltonian
LatticeMinimize: 	Wolfe criterion not satisfied: alpha: 1  (E-E0)/|gdotd0|: 0.886666  gdotd/gdotd0: -2.48021 (taking cubic step)

-------- Electronic minimization -----------
	FillingsUpdate:  mu: +0.518991375  nElectrons: 198.000000
ElecMinimize: Iter:   0  F: -771.537107128391767  |grad|_K:  2.340e-07  alpha:  1.000e+00
	FillingsUpdate:  mu: +0.519014297  nElectrons: 198.000000
	SubspaceRotationAdjust: set factor to 0.102
ElecMinimize: Iter:   1  F: -771.537116416338563  |grad|_K:  1.735e-07  alpha:  6.590e-01  linmin:  5.872e-07  t[s]: 233285.48
	FillingsUpdate:  mu: +0.518990585  nElectrons: 198.000000
	SubspaceRotationAdjust: set factor to 0.0914
ElecMinimize: Iter:   2  F: -771.537120775245739  |grad|_K:  1.309e-07  alpha:  5.626e-01  linmin:  2.174e-06  t[s]: 233923.00
	FillingsUpdate:  mu: +0.518994843  nElectrons: 198.000000
	SubspaceRotationAdjust: set factor to 0.118
ElecMinimize: Iter:   3  F: -771.537126493360347  |grad|_K:  1.382e-07  alpha:  1.296e+00  linmin: -1.299e-06  t[s]: 234560.39
	FillingsUpdate:  mu: +0.519008026  nElectrons: 198.000000
	SubspaceRotationAdjust: set factor to 0.111
ElecMinimize: Iter:   4  F: -771.537130552511030  |grad|_K:  1.068e-07  alpha:  8.250e-01  linmin: -1.172e-07  t[s]: 235201.36
	FillingsUpdate:  mu: +0.518998334  nElectrons: 198.000000
	SubspaceRotationAdjust: set factor to 0.0974
ElecMinimize: Iter:   5  F: -771.537132414279995  |grad|_K:  6.252e-08  alpha:  6.333e-01  linmin: -2.034e-08  t[s]: 235839.30
	FillingsUpdate:  mu: +0.518999513  nElectrons: 198.000000
	SubspaceRotationAdjust: set factor to 0.126
ElecMinimize: Iter:   6  F: -771.537133056317998  |grad|_K:  3.002e-08  alpha:  6.379e-01  linmin:  1.085e-06  t[s]: 236477.64
	FillingsUpdate:  mu: +0.519001170  nElectrons: 198.000000
	SubspaceRotationAdjust: set factor to 0.143
ElecMinimize: Iter:   7  F: -771.537133206024237  |grad|_K:  1.906e-08  alpha:  6.453e-01  linmin: -8.667e-07  t[s]: 237113.44
	FillingsUpdate:  mu: +0.518999853  nElectrons: 198.000000
	SubspaceRotationAdjust: set factor to 0.174
ElecMinimize: Iter:   8  F: -771.537133267558715  |grad|_K:  1.391e-08  alpha:  6.573e-01  linmin: -3.889e-05  t[s]: 237754.94
	FillingsUpdate:  mu: +0.519000405  nElectrons: 198.000000
	SubspaceRotationAdjust: set factor to 0.209
ElecMinimize: Iter:   9  F: -771.537133312757987  |grad|_K:  1.095e-08  alpha:  9.076e-01  linmin:  5.628e-05  t[s]: 238391.63
	FillingsUpdate:  mu: +0.519000051  nElectrons: 198.000000
	SubspaceRotationAdjust: set factor to 0.239
ElecMinimize: Iter:  10  F: -771.537133335044132  |grad|_K:  8.122e-09  alpha:  7.220e-01  linmin: -2.668e-05  t[s]: 239029.84
	FillingsUpdate:  mu: +0.519000487  nElectrons: 198.000000
	SubspaceRotationAdjust: set factor to 0.249
ElecMinimize: Iter:  11  F: -771.537133346394626  |grad|_K:  5.975e-09  alpha:  6.653e-01  linmin: -4.050e-05  t[s]: 239668.06
	FillingsUpdate:  mu: +0.518999925  nElectrons: 198.000000
	SubspaceRotationAdjust: set factor to 0.193
ElecMinimize: Iter:  12  F: -771.537133350314321  |grad|_K:  4.903e-09  alpha:  4.261e-01  linmin: -9.953e-05  t[s]: 240306.27
	FillingsUpdate:  mu: +0.519000321  nElectrons: 198.000000
	SubspaceRotationAdjust: set factor to 0.159
ElecMinimize: Iter:  13  F: -771.537133352637966  |grad|_K:  2.812e-09  alpha:  3.802e-01  linmin:  1.048e-04  t[s]: 240944.66
ElecMinimize: Converged (|Delta F|<1.000000e-08 for 2 iters).
Setting wave functions to eigenvectors of Hamiltonian
# Lattice vectors:
R = 
[      12.2518     -6.12616  0.000407819  ]
[ -0.000320162      10.6122   0.00108688  ]
[  0.000285089  0.000493918      19.6075  ]
unit cell volume = 2549.28

# Strain tensor in Cartesian coordinates:
[   0.00299412 -2.61823e-05  2.09645e-05  ]
[ -2.62102e-05   0.00315293  5.58725e-05  ]
[  2.33389e-05  6.01647e-05    0.0079493  ]

# Stress tensor in Cartesian coordinates [Eh/a0^3]:
[  7.56721e-08  4.55404e-08  1.13554e-07  ]
[  4.55404e-08  1.25881e-08  1.76155e-07  ]
[  1.13554e-07  1.76155e-07  1.47759e-07  ]

# Ionic positions in cartesian coordinates:
ion Zr   0.070148101225843   0.022366593214258  -0.026534614979183 1
ion Zr   0.070432675034827   3.550529342453804   4.929863510643591 1
ion Zr   0.057310017300973   0.016455237077921   9.793776891792103 1
ion Zr   0.055993423918330   3.554855186909623  14.717668539854158 1
ion Zr  -2.999850290373272   5.324903968817567  -0.059080734333629 1
ion Zr  -3.000010254672167   8.870296301850281   4.929212523810479 1
ion Zr  -3.002195524610598   5.324632946557694   9.825895790784788 1
ion Zr  -3.004871497194042   8.857540456209319  14.716805520491732 1
ion Zr   6.182229667562156   0.022040896685749  -0.026149750493805 1
ion Zr   6.182260506868632   3.551228275026948   4.932097573730488 1
ion Zr   6.187618564021484   0.016903944144151   9.795200528218480 1
ion Zr   6.186293364544904   3.554393581817820  14.718287830540190 1
ion Zr   3.126161638565308   5.315634891988553  -0.024724835651532 1
ion Zr   3.125130350043966   8.860297396539432   4.963915922324504 1
ion Zr   3.122813966827666   5.325635806840177   9.796194740459708 1
ion Zr   3.121580956974473   8.859263707792527  14.686596114233728 1
ion O   3.125954766680081   1.786962983269809   2.450851893450397 1

# Forces in Cartesian coordinates:
force Zr  -0.000023200105678  -0.000001969691070   0.000084227057536 1
force Zr  -0.000050542988962  -0.000004497188059   0.000012484404785 1
force Zr   0.000068978506385   0.000022373576770   0.000041964163877 1
force Zr   0.000056579357149   0.000010023509443  -0.000004408062035 1
force Zr  -0.000036535405556  -0.000031015352370   0.000086495437390 1
force Zr  -0.000031470612734  -0.000034940796212   0.000040072446280 1
force Zr   0.000010529091471   0.000006776970066   0.000013548736453 1
force Zr   0.000039847389558   0.000006368363080   0.000015085117775 1
force Zr  -0.000048315814607   0.000045128255179   0.000105342984453 1
force Zr  -0.000106778924701  -0.000074369261529  -0.000139387933986 1
force Zr   0.000037831359747  -0.000012933122260  -0.000001514321125 1
force Zr   0.000042482596729   0.000024692802417   0.000032874979256 1
force Zr  -0.000009023763522  -0.000004933704643   0.000027363126069 1
force Zr  -0.000014481089272   0.000017293000721  -0.000005146646768 1
force Zr   0.000024396413712   0.000019815941987   0.000002245312050 1
force Zr   0.000011209704170   0.000002924893723   0.000015984137093 1
force O   0.000014251649353   0.000009787060873   0.000084652603628 1

# Energy components:
   Eewald =     -626.5194797873728021
       EH =      116.2894985727944572
     Eloc =     -475.8790168751435772
      Enl =       92.2289908904568563
      Exc =     -145.8336155733053658
 Exc_core =       37.9747753097144027
       KE =      230.2259471590484736
-------------------------------------
     Etot =     -771.5129003038075552
       TS =        0.0242330488303955
-------------------------------------
        F =     -771.5371333526379658

LatticeMinimize: Iter:  16  F: -771.537133352637966  |grad|_K:  3.129e-04  alpha:  2.411e-01  linmin:  7.368e-02  t[s]: 241238.43

#--- Lowdin population analysis ---
# oxidation-state Zr +0.064 +0.064 +0.008 +0.008 +0.013 +0.064 -0.014 +0.008 +0.064 +0.064 +0.008 +0.008 +0.064 +0.013 +0.008 -0.014
# oxidation-state O -0.295


-------- Electronic minimization -----------
	FillingsUpdate:  mu: +0.518946422  nElectrons: 198.000000
ElecMinimize: Iter:   0  F: -771.537132376898057  |grad|_K:  5.773e-08  alpha:  1.000e+00
	FillingsUpdate:  mu: +0.518949116  nElectrons: 198.000000
	SubspaceRotationAdjust: set factor to 0.115
ElecMinimize: Iter:   1  F: -771.537132985781454  |grad|_K:  3.926e-08  alpha:  7.095e-01  linmin:  3.491e-07  t[s]: 242636.40
	FillingsUpdate:  mu: +0.518945649  nElectrons: 198.000000
	SubspaceRotationAdjust: set factor to 0.0927
ElecMinimize: Iter:   2  F: -771.537133253159368  |grad|_K:  3.501e-08  alpha:  6.734e-01  linmin: -3.111e-06  t[s]: 243274.51
	FillingsUpdate:  mu: +0.518947098  nElectrons: 198.000000
	SubspaceRotationAdjust: set factor to 0.105
ElecMinimize: Iter:   3  F: -771.537133625373485  |grad|_K:  3.188e-08  alpha:  1.179e+00  linmin:  3.025e-07  t[s]: 243913.77
	FillingsUpdate:  mu: +0.518948004  nElectrons: 198.000000
	SubspaceRotationAdjust: set factor to 0.12
ElecMinimize: Iter:   4  F: -771.537133840371098  |grad|_K:  2.260e-08  alpha:  8.215e-01  linmin:  3.574e-07  t[s]: 244550.44
	FillingsUpdate:  mu: +0.518946781  nElectrons: 198.000000
	SubspaceRotationAdjust: set factor to 0.111
ElecMinimize: Iter:   5  F: -771.537133926654860  |grad|_K:  1.383e-08  alpha:  6.561e-01  linmin:  3.087e-06  t[s]: 245186.50
	FillingsUpdate:  mu: +0.518947254  nElectrons: 198.000000
	SubspaceRotationAdjust: set factor to 0.143
ElecMinimize: Iter:   6  F: -771.537133958082336  |grad|_K:  7.742e-09  alpha:  6.384e-01  linmin: -2.425e-05  t[s]: 245822.67
	FillingsUpdate:  mu: +0.518947325  nElectrons: 198.000000
	SubspaceRotationAdjust: set factor to 0.185
ElecMinimize: Iter:   7  F: -771.537133971084472  |grad|_K:  5.814e-09  alpha:  8.405e-01  linmin: -1.326e-05  t[s]: 246459.90
	FillingsUpdate:  mu: +0.518947112  nElectrons: 198.000000
	SubspaceRotationAdjust: set factor to 0.19
ElecMinimize: Iter:   8  F: -771.537133977500616  |grad|_K:  4.905e-09  alpha:  7.376e-01  linmin: -3.642e-05  t[s]: 247096.11
	FillingsUpdate:  mu: +0.518947371  nElectrons: 198.000000
	SubspaceRotationAdjust: set factor to 0.142
ElecMinimize: Iter:   9  F: -771.537133980844260  |grad|_K:  3.344e-09  alpha:  5.353e-01  linmin: -9.085e-06  t[s]: 247733.15
ElecMinimize: Converged (|Delta F|<1.000000e-08 for 2 iters).
Setting wave functions to eigenvectors of Hamiltonian
# Lattice vectors:
R = 
[      12.2523     -6.12646  -0.00010652  ]
[ -0.000389493      10.6125  0.000410057  ]
[ -3.62865e-05  0.000288298      19.6078  ]
unit cell volume = 2549.51

# Strain tensor in Cartesian coordinates:
[    0.0030344   -3.186e-05 -5.47581e-06  ]
[  -3.1886e-05   0.00318283  2.10796e-05  ]
[ -2.97061e-06  2.55377e-05   0.00796833  ]

# Stress tensor in Cartesian coordinates [Eh/a0^3]:
[  3.70462e-07  1.02458e-08  9.28012e-09  ]
[  1.02458e-08  3.24933e-07  5.26058e-08  ]
[  9.28012e-09  5.26058e-08  4.10063e-07  ]

# Ionic positions in cartesian coordinates:
ion Zr   0.069090979948836   0.022137657049785  -0.025880648489864 1
ion Zr   0.068623487199257   3.550182588509272   4.929703936053730 1
ion Zr   0.058744966903578   0.016506902671956   9.794325684002766 1
ion Zr   0.057111270135654   3.554990829607208  14.717570174025958 1
ion Zr  -3.000340872999713   5.324721305441355  -0.058361223713083 1
ion Zr  -3.001659273823669   8.869716728848239   4.929301499734633 1
ion Zr  -3.001979601498933   5.324671278062410   9.825928993963542 1
ion Zr  -3.003941514897919   8.857417652253433  14.717128038993787 1
ion Zr   6.181520864678856   0.021998697850539  -0.025816724308983 1
ion Zr   6.180998526446444   3.550419752705272   4.930400180054395 1
ion Zr   6.188954845674758   0.016419492724602   9.794694542781578 1
ion Zr   6.187397283180212   3.554483120274612  14.718599357107978 1
ion Zr   3.125249384195671   5.315496906746560  -0.025237365734754 1
ion Zr   3.124861994100542   8.860529575333075   4.963410871635603 1
ion Zr   3.123764771538634   5.326211394473393   9.795424064576927 1
ion Zr   3.121925886074766   8.859170510769355  14.686192070861598 1
ion O   3.124263288042113   1.786729304559990   2.451497107994925 1

# Forces in Cartesian coordinates:
force Zr   0.000013359991117  -0.000004013715513  -0.000011699778995 1
force Zr  -0.000005774256499   0.000006966359587   0.000040971780988 1
force Zr   0.000042956294279   0.000029359848010   0.000056356200343 1
force Zr   0.000025195730271  -0.000017145722563   0.000037251290419 1
force Zr  -0.000035759904971  -0.000008674013652   0.000016638912565 1
force Zr  -0.000009197978012  -0.000007181346222   0.000029714441098 1
force Zr  -0.000017997010376  -0.000020319870267   0.000018559952884 1
force Zr   0.000008201317275   0.000010230163620   0.000068044617696 1
force Zr  -0.000061679277086   0.000029670520834   0.000055997993165 1
force Zr  -0.000074865615314  -0.000040154278414  -0.000029841245762 1
force Zr   0.000022900461535   0.000015637118300   0.000022924432639 1
force Zr   0.000027784123112   0.000007912377675   0.000008706041324 1
force Zr  -0.000006224131578  -0.000012779964074   0.000012328796024 1
force Zr  -0.000035819089791  -0.000003983483228   0.000001124478242 1
force Zr   0.000024052593477  -0.000006867533443  -0.000002039539038 1
force Zr   0.000011922959390   0.000021576392560   0.000050738477409 1
force O   0.000061273414578  -0.000002758907343   0.000044765071934 1

# Energy components:
   Eewald =     -626.4953101605340180
       EH =      116.3020902445470455
     Eloc =     -475.9145573277308472
      Enl =       92.2288006509641889
      Exc =     -145.8329783260420811
 Exc_core =       37.9747753480871779
       KE =      230.2242815437573995
-------------------------------------
     Etot =     -771.5128980269512340
       TS =        0.0242359538929787
-------------------------------------
        F =     -771.5371339808442599

LatticeMinimize: Iter:  17  F: -771.537133980844260  |grad|_K:  2.290e-04  alpha:  1.000e+00  linmin: -3.969e-02  t[s]: 248021.05
LatticeMinimize: Converged (|Delta F|<1.000000e-06 for 2 iters).

#--- Lowdin population analysis ---
# oxidation-state Zr +0.064 +0.064 +0.008 +0.008 +0.013 +0.064 -0.014 +0.008 +0.064 +0.064 +0.008 +0.008 +0.064 +0.013 +0.008 -0.013
# oxidation-state O -0.295


Dumping 'Zr16O_tet.Ecomponents' ... done
End date and time: Mon Oct 16 09:20:28 2023  (Duration: 2-20:59:11.72)
Done!
