--------------------------------------------------------------------------
[[22707,1],3]: A high-performance Open MPI point-to-point messaging module
was unable to find any relevant network interfaces:

Module: OpenFabrics (openib)
  Host: node3217

Another transport will be used instead, although this may result in
lower performance.
--------------------------------------------------------------------------

*************** JDFTx 1.7.0 (git hash 3664913) ***************

Start date and time: Mon Jul  1 04:13:13 2024
Executable jdftx with command-line: -i TcO2_ion.in
Running on hosts (process indices):  node3217.physics.cornell.edu (0-15)
Divided in process groups (process indices):  0 (0)  1 (1)  2 (2)  3 (3)  4 (4)  5 (5)  6 (6)  7 (7)  8 (8)  9 (9)  10 (10)  11 (11)  12 (12)  13 (13)  14 (14)  15 (15)
Resource initialization completed at t[s]:      0.00
Run totals: 16 processes, 32 threads, 0 GPUs


Input parsed successfully to the following command list (including defaults):

basis kpoint-dependent
coords-type Lattice
core-overlap-check vector
coulomb-interaction Periodic
davidson-band-ratio 1.1
dump End Ecomponents
dump-name /data/rc652/TcO2/ion/TcO2_ion.$VAR
elec-cutoff 20 100
elec-eigen-algo Davidson
elec-ex-corr gga-PBEsol
elec-smearing Fermi 0.01
electronic-minimize  \
	dirUpdateScheme      FletcherReeves \
	linminMethod         DirUpdateRecommended \
	nIterations          100 \
	history              15 \
	knormThreshold       0 \
	maxThreshold         no \
	energyDiffThreshold  1e-08 \
	nEnergyDiff          2 \
	alphaTstart          1 \
	alphaTmin            1e-10 \
	updateTestStepSize   yes \
	alphaTreduceFactor   0.1 \
	alphaTincreaseFactor 3 \
	nAlphaAdjustMax      3 \
	wolfeEnergy          0.0001 \
	wolfeGradient        0.9 \
	fdTest               no
electronic-scf  \
	nIterations	50 \
	energyDiffThreshold	1e-08 \
	residualThreshold	1e-07 \
	mixFraction	0.5 \
	qMetric	0.8 \
	history	10 \
	nEigSteps	2 \
	eigDiffThreshold	1e-08 \
	mixedVariable	Density \
	qKerker	0.8 \
	qKappa	-1 \
	verbose	no \
	mixFractionMag	1.5
exchange-regularization WignerSeitzTruncated
fluid None
fluid-ex-corr lda-TF lda-PZ
fluid-gummel-loop 10 1.000000e-05
fluid-minimize  \
	dirUpdateScheme      PolakRibiere \
	linminMethod         DirUpdateRecommended \
	nIterations          100 \
	history              15 \
	knormThreshold       0 \
	maxThreshold         no \
	energyDiffThreshold  0 \
	nEnergyDiff          2 \
	alphaTstart          1 \
	alphaTmin            1e-10 \
	updateTestStepSize   yes \
	alphaTreduceFactor   0.1 \
	alphaTincreaseFactor 3 \
	nAlphaAdjustMax      3 \
	wolfeEnergy          0.0001 \
	wolfeGradient        0.9 \
	fdTest               no
fluid-solvent H2O 55.338 ScalarEOS \
	epsBulk 78.4 \
	pMol 0.92466 \
	epsInf 1.77 \
	Pvap 1.06736e-10 \
	sigmaBulk 4.62e-05 \
	Rvdw 2.61727 \
	Res 1.42 \
	tauNuc 343133 \
	poleEl 15 7 1
forces-output-coords Positions
ion O   0.388600000000000   0.306230000000000   0.193200000000000 1
ion O   0.144930000000000   0.178630000000000   0.077670000000000 1
ion O   0.099540000000000   0.428090000000000   0.063860000000000 1
ion O   0.161970000000000   0.448130000000000   0.292330000000000 1
ion O   0.326940000000000   0.055140000000000   0.197160000000000 1
ion O   0.352280000000000   0.289920000000000   0.433650000000000 1
ion O   0.405860000000000   0.066750000000000   0.443510000000000 1
ion O   0.100830000000000   0.193350000000000   0.308880000000000 1
ion O   0.387100000000000   0.304950000000000   0.679630000000000 1
ion O   0.150730000000000   0.204510000000000   0.563900000000000 1
ion O   0.084630000000000   0.456630000000000   0.548720000000000 1
ion O   0.144430000000000   0.441330000000000   0.794620000000000 1
ion O   0.336320000000000   0.069540000000000   0.695800000000000 1
ion O   0.351470000000000   0.302800000000000   0.933590000000000 1
ion O   0.405670000000000   0.054450000000000   0.954200000000000 1
ion O   0.117830000000000   0.188830000000000   0.804410000000000 1
ion O   0.413430000000000   0.794200000000000   0.190940000000000 1
ion O   0.133740000000000   0.676970000000000   0.060290000000000 1
ion O   0.099450000000000   0.945890000000000   0.059760000000000 1
ion O   0.146360000000000   0.934390000000000   0.310800000000000 1
ion O   0.323610000000000   0.560080000000000   0.198250000000000 1
ion O   0.364310000000000   0.800550000000000   0.440560000000000 1
ion O   0.399860000000000   0.556190000000000   0.467680000000000 1
ion O   0.079290000000000   0.686330000000000   0.299550000000000 1
ion O   0.387480000000000   0.809040000000000   0.691960000000000 1
ion O   0.143550000000000   0.706580000000000   0.557350000000000 1
ion O   0.076170000000000   0.940830000000000   0.539330000000000 1
ion O   0.164700000000000   0.934560000000000   0.775750000000000 1
ion O   0.343280000000000   0.547950000000000   0.706510000000000 1
ion O   0.355100000000000   0.802340000000000   0.936370000000000 1
ion O   0.404220000000000   0.541090000000000   0.957870000000000 1
ion O   0.091440000000000   0.683900000000000   0.815050000000000 1
ion O   0.888930000000000   0.307770000000000   0.181660000000000 1
ion O   0.638770000000000   0.203400000000000   0.060250000000000 1
ion O   0.570170000000000   0.444700000000000   0.045250000000000 1
ion O   0.658340000000000   0.440740000000000   0.294810000000000 1
ion O   0.858210000000000   0.037230000000000   0.225260000000000 1
ion O   0.854010000000000   0.315520000000000   0.428900000000000 1
ion O   0.910130000000000   0.062150000000000   0.452520000000000 1
ion O   0.601140000000000   0.193330000000000   0.297380000000000 1
ion O   0.897210000000000   0.309740000000000   0.694020000000000 1
ion O   0.659730000000000   0.183240000000000   0.550400000000000 1
ion O   0.602300000000000   0.446560000000000   0.525260000000000 1
ion O   0.660220000000000   0.433720000000000   0.789920000000000 1
ion O   0.854690000000000   0.058510000000000   0.692700000000000 1
ion O   0.840680000000000   0.319480000000000   0.932830000000000 1
ion O   0.916370000000000   0.049110000000000   0.947730000000000 1
ion O   0.602690000000000   0.191520000000000   0.806570000000000 1
ion O   0.890000000000000   0.792000000000000   0.199570000000000 1
ion O   0.655930000000000   0.702170000000000   0.047620000000000 1
ion O   0.587190000000000   0.944820000000000   0.043730000000000 1
ion O   0.654540000000000   0.935940000000000   0.279350000000000 1
ion O   0.844400000000000   0.555000000000000   0.214130000000000 1
ion O   0.848380000000000   0.793160000000000   0.432220000000000 1
ion O   0.899730000000000   0.540530000000000   0.456920000000000 1
ion O   0.593440000000000   0.693920000000000   0.311640000000000 1
ion O   0.914030000000000   0.793490000000000   0.686810000000000 1
ion O   0.656520000000000   0.681310000000000   0.562320000000000 1
ion O   0.586640000000000   0.943180000000000   0.541750000000000 1
ion O   0.668410000000000   0.953840000000000   0.786250000000000 1
ion O   0.850330000000000   0.561790000000000   0.688900000000000 1
ion O   0.851900000000000   0.802090000000000   0.931060000000000 1
ion O   0.901920000000000   0.560110000000000   0.961640000000000 1
ion O   0.610530000000000   0.695400000000000   0.817820000000000 1
ion Tc   0.271290000000000   0.365110000000000   0.120770000000000 1
ion Tc   0.492980000000000   0.140920000000000   0.153850000000000 1
ion Tc   0.000110000000000   0.381480000000000   0.362390000000000 1
ion Tc   0.270940000000000   0.137260000000000   0.371020000000000 1
ion Tc   0.251560000000000   0.376780000000000   0.614740000000000 1
ion Tc   0.486560000000000   0.119680000000000   0.635690000000000 1
ion Tc   0.010370000000000   0.369420000000000   0.855940000000000 1
ion Tc   0.247040000000000   0.132170000000000   0.887630000000000 1
ion Tc   0.215980000000000   0.866800000000000   0.111280000000000 1
ion Tc   0.503530000000000   0.614050000000000   0.150310000000000 1
ion Tc  -0.000350000000000   0.876450000000000   0.370160000000000 1
ion Tc   0.248750000000000   0.636980000000000   0.386800000000000 1
ion Tc   0.247140000000000   0.872350000000000   0.607680000000000 1
ion Tc   0.484320000000000   0.625590000000000   0.643090000000000 1
ion Tc   0.009730000000000   0.865550000000000   0.857520000000000 1
ion Tc   0.256630000000000   0.637760000000000   0.895190000000000 1
ion Tc   0.741800000000000   0.361230000000000   0.118430000000000 1
ion Tc   0.997540000000000   0.133320000000000   0.150080000000000 1
ion Tc   0.502330000000000   0.387830000000000   0.353960000000000 1
ion Tc   0.752610000000000   0.137300000000000   0.377750000000000 1
ion Tc   0.752050000000000   0.386590000000000   0.614550000000000 1
ion Tc   0.994830000000000   0.127040000000000   0.629490000000000 1
ion Tc   0.527980000000000   0.376890000000000   0.872760000000000 1
ion Tc   0.750050000000000   0.137710000000000   0.899650000000000 1
ion Tc   0.746770000000000   0.862800000000000   0.116450000000000 1
ion Tc   0.982830000000000   0.629340000000000   0.166820000000000 1
ion Tc   0.504760000000000   0.887240000000000   0.352730000000000 1
ion Tc   0.746550000000000   0.613420000000000   0.384590000000000 1
ion Tc   0.747700000000000   0.882370000000000   0.602110000000000 1
ion Tc   0.994150000000000   0.614160000000000   0.649630000000000 1
ion Tc   0.505040000000000   0.840220000000000   0.862370000000000 1
ion Tc   0.758410000000000   0.607730000000000   0.879620000000000 1
ion-species GBRV/$ID_pbesol.uspp
ion-width 0
ionic-minimize  \
	dirUpdateScheme      L-BFGS \
	linminMethod         DirUpdateRecommended \
	nIterations          30 \
	history              15 \
	knormThreshold       0.0001 \
	maxThreshold         no \
	energyDiffThreshold  1e-06 \
	nEnergyDiff          2 \
	alphaTstart          1 \
	alphaTmin            1e-10 \
	updateTestStepSize   yes \
	alphaTreduceFactor   0.1 \
	alphaTincreaseFactor 3 \
	nAlphaAdjustMax      3 \
	wolfeEnergy          0.0001 \
	wolfeGradient        0.9 \
	fdTest               no
kpoint   0.500000000000   0.500000000000   0.500000000000  1.00000000000000
kpoint-folding 3 3 3 
latt-move-scale 1 1 1
latt-scale 1 1 1 
lattice  \
	  18.030928184321727    0.000267607094778   -0.000854123896533  \
	  -0.000659002487015   20.612862791535630   -9.788819170443009  \
	   0.001911667159465   -0.293849722060337   18.404179481686104 
lattice-minimize  \
	dirUpdateScheme      L-BFGS \
	linminMethod         DirUpdateRecommended \
	nIterations          0 \
	history              15 \
	knormThreshold       0 \
	maxThreshold         no \
	energyDiffThreshold  1e-06 \
	nEnergyDiff          2 \
	alphaTstart          1 \
	alphaTmin            1e-10 \
	updateTestStepSize   yes \
	alphaTreduceFactor   0.1 \
	alphaTincreaseFactor 3 \
	nAlphaAdjustMax      3 \
	wolfeEnergy          0.0001 \
	wolfeGradient        0.9 \
	fdTest               no
lcao-params -1 1e-06 0.01
pcm-variant GLSSA13
perturb-minimize  \
	nIterations            0 \
	algorithm              MINRES \
	residualTol            0.0001 \
	residualDiffThreshold  0.0001 \
	CGBypass               no \
	recomputeResidual      no
spintype no-spin
subspace-rotation-factor 1 yes
symmetries automatic
symmetry-threshold 0.0001



---------- Setting up symmetries ----------

Found 2 point-group symmetries of the bravais lattice
Found 1 space-group symmetries with basis
Applied RMS atom displacement 0 bohrs to make symmetries exact.

---------- Initializing the Grid ----------
R = 
[      18.0309  0.000267607 -0.000854124  ]
[ -0.000659002      20.6129     -9.78882  ]
[   0.00191167     -0.29385      18.4042  ]
unit cell volume = 6788.4
G =
[   0.348467 -4.32624e-06 1.3871e-05  ]
[ -6.09452e-06   0.307148   0.163366  ]
[ -3.62931e-05 0.00490406   0.344008  ]
Minimum fftbox size, Smin = [  84  96  96  ]
Chosen fftbox size, S = [  84  96  96  ]

---------- Initializing tighter grid for wavefunction operations ----------
R = 
[      18.0309  0.000267607 -0.000854124  ]
[ -0.000659002      20.6129     -9.78882  ]
[   0.00191167     -0.29385      18.4042  ]
unit cell volume = 6788.4
G =
[   0.348467 -4.32624e-06 1.3871e-05  ]
[ -6.09452e-06   0.307148   0.163366  ]
[ -3.62931e-05 0.00490406   0.344008  ]
Minimum fftbox size, Smin = [  76  84  84  ]
Chosen fftbox size, S = [  80  84  84  ]

---------- Exchange Correlation functional ----------
Initalized PBEsol GGA exchange.
Initalized PBEsol GGA correlation.

---------- Setting up pseudopotentials ----------
Width of ionic core gaussian charges (only for fluid interactions / plotting) set to 0

Reading pseudopotential file '/home/rc652/build/pseudopotentials/GBRV/o_pbesol.uspp':
  Title: O.  Created by USPP 7.3.6 on 3-2-2014
  Reference state energy: -15.849885.  6 valence electrons in orbitals:
    |200>  occupation: 2  eigenvalue: -0.873214
    |210>  occupation: 4  eigenvalue: -0.330058
  lMax: 2  lLocal: 2  QijEcut: 6
  5 projectors sampled on a log grid with 511 points:
    l: 0  eig: -0.873214  rCut: 1.25
    l: 0  eig: 0.000000  rCut: 1.25
    l: 1  eig: -0.330058  rCut: 1.25
    l: 1  eig: 0.000000  rCut: 1.25
    l: 2  eig: 1.000000  rCut: 1.25
  Partial core density with radius 0.7
  Transforming core density to a uniform radial grid of dG=0.02 with 1612 points.
  Transforming local potential to a uniform radial grid of dG=0.02 with 1612 points.
  Transforming nonlocal projectors to a uniform radial grid of dG=0.02 with 432 points.
  Transforming density augmentations to a uniform radial grid of dG=0.02 with 1612 points.
  Transforming atomic orbitals to a uniform radial grid of dG=0.02 with 432 points.
  Core radius for overlap checks: 1.25 bohrs.

Reading pseudopotential file '/home/rc652/build/pseudopotentials/GBRV/tc_pbesol.uspp':
  Title: Tc.  Created by USPP 7.3.6 on 23-7-2013
  Reference state energy: -86.345700.  15 valence electrons in orbitals:
    |400>  occupation: 2  eigenvalue: -2.972801
    |410>  occupation: 6  eigenvalue: -1.943789
    |420>  occupation: 5  eigenvalue: -0.518764
    |500>  occupation: 1  eigenvalue: -0.420062
    |510>  occupation: 0  eigenvalue: -0.251266
  lMax: 2  lLocal: 3  QijEcut: 5
  6 projectors sampled on a log grid with 713 points:
    l: 0  eig: -0.420062  rCut: 1.5
    l: 0  eig: -2.972801  rCut: 1.5
    l: 1  eig: -1.943789  rCut: 1.6
    l: 1  eig: -0.251266  rCut: 1.6
    l: 2  eig: -0.518764  rCut: 1.8
    l: 2  eig: 0.000000  rCut: 1.8
  Partial core density with radius 0.9
  Transforming core density to a uniform radial grid of dG=0.02 with 1612 points.
  Transforming local potential to a uniform radial grid of dG=0.02 with 1612 points.
  Transforming nonlocal projectors to a uniform radial grid of dG=0.02 with 432 points.
  Transforming density augmentations to a uniform radial grid of dG=0.02 with 1612 points.
  Transforming atomic orbitals to a uniform radial grid of dG=0.02 with 432 points.
  Core radius for overlap checks: 1.80 bohrs.

Initialized 2 species with 96 total atoms.

Folded 1 k-points by 3x3x3 to 27 k-points.

---------- Setting up k-points, bands, fillings ----------
Adding inversion symmetry to k-mesh for non-inversion-symmetric unit cell.
Reduced to 14 k-points under symmetry. 
Computing the number of bands and number of electrons
Calculating initial fillings.
nElectrons: 864.000000   nBands: 672   nStates: 14

----- Setting up reduced wavefunction bases (one per k-point) -----
average nbasis = 28996.667 , ideal nbasis = 29000.558

---------- Setting up ewald sum ----------
Optimum gaussian width for ewald sums = 3.530102 bohr.
Real space sum over 343 unit cells with max indices [  3  3  3  ]
Reciprocal space sum over 8379 terms with max indices [  9  10  10  ]

---------- Allocating electronic variables ----------
Initializing wave functions:  linear combination of atomic orbitals
O pseudo-atom occupations:   s ( 2 )  p ( 4 )
Tc pseudo-atom occupations:   s ( 2 0 )  p ( 6 0 )  d ( 7 )
	FillingsUpdate:  mu: +0.703275919  nElectrons: 864.000000
LCAOMinimize: Iter:   0  F: -3562.7158355324777403  |grad|_K:  6.992e-03  alpha:  1.000e+00
	FillingsUpdate:  mu: +0.570435228  nElectrons: 864.000000
LCAOMinimize: Iter:   1  F: -3609.7525443928452660  |grad|_K:  4.914e-03  alpha:  2.857e-01  linmin: -5.186e-02  cgtest:  1.762e-01  t[s]:    211.97
	FillingsUpdate:  mu: +0.530385120  nElectrons: 864.000000
LCAOMinimize: Iter:   2  F: -3613.2407644325853653  |grad|_K:  3.190e-03  alpha:  6.419e-02  linmin:  1.144e-01  cgtest: -8.116e-01  t[s]:    281.62
	FillingsUpdate:  mu: +0.529432185  nElectrons: 864.000000
LCAOMinimize: Iter:   3  F: -3613.2696974232940192  |grad|_K:  3.224e-03  alpha:  7.340e-03  linmin: -9.837e-04  cgtest:  1.002e+00  t[s]:    350.98
LCAOMinimize: 	Predicted alpha/alphaT>3.000000, increasing alphaT to 2.202140e-02.
	FillingsUpdate:  mu: +0.518723736  nElectrons: 864.000000
LCAOMinimize: Iter:   4  F: -3614.4830429290536813  |grad|_K:  4.506e-04  alpha:  3.714e-02  linmin:  5.585e-02  cgtest: -1.286e-01  t[s]:    438.23
LCAOMinimize: 	Predicted alpha/alphaT>3.000000, increasing alphaT to 1.114148e-01.
	FillingsUpdate:  mu: +0.521530451  nElectrons: 864.000000
LCAOMinimize: Iter:   5  F: -3614.5675509922925812  |grad|_K:  5.023e-04  alpha:  1.359e-01  linmin:  8.289e-04  cgtest:  1.596e-02  t[s]:    523.61
	FillingsUpdate:  mu: +0.530012224  nElectrons: 864.000000
LCAOMinimize: Iter:   6  F: -3614.6448506940282641  |grad|_K:  3.258e-04  alpha:  9.544e-02  linmin:  5.495e-04  cgtest:  6.745e-02  t[s]:    592.93
	FillingsUpdate:  mu: +0.532929616  nElectrons: 864.000000
LCAOMinimize: Iter:   7  F: -3614.6703403901319689  |grad|_K:  2.304e-04  alpha:  7.592e-02  linmin:  5.223e-05  cgtest:  9.223e-03  t[s]:    662.30
	FillingsUpdate:  mu: +0.535772620  nElectrons: 864.000000
LCAOMinimize: Iter:   8  F: -3614.6994446513649564  |grad|_K:  2.384e-04  alpha:  1.745e-01  linmin:  2.408e-03  cgtest: -1.603e-03  t[s]:    732.34
	FillingsUpdate:  mu: +0.536606227  nElectrons: 864.000000
LCAOMinimize: Iter:   9  F: -3614.7107834567282225  |grad|_K:  1.079e-04  alpha:  6.328e-02  linmin: -2.429e-03  cgtest:  7.309e-02  t[s]:    801.72
	FillingsUpdate:  mu: +0.536556124  nElectrons: 864.000000
LCAOMinimize: Iter:  10  F: -3614.7135866140210965  |grad|_K:  5.822e-05  alpha:  7.553e-02  linmin:  1.599e-03  cgtest: -2.215e-02  t[s]:    870.65
	FillingsUpdate:  mu: +0.536448028  nElectrons: 864.000000
LCAOMinimize: Iter:  11  F: -3614.7144975374208116  |grad|_K:  3.774e-05  alpha:  8.507e-02  linmin:  2.065e-04  cgtest:  1.107e-02  t[s]:    940.62
	FillingsUpdate:  mu: +0.536436801  nElectrons: 864.000000
LCAOMinimize: Iter:  12  F: -3614.7148146582267145  |grad|_K:  1.456e-05  alpha:  7.027e-02  linmin:  1.376e-04  cgtest: -2.971e-03  t[s]:   1009.74
	FillingsUpdate:  mu: +0.536451314  nElectrons: 864.000000
LCAOMinimize: Iter:  13  F: -3614.7148680108193730  |grad|_K:  1.080e-05  alpha:  7.937e-02  linmin:  9.593e-05  cgtest:  3.538e-04  t[s]:   1079.80
	FillingsUpdate:  mu: +0.536526450  nElectrons: 864.000000
LCAOMinimize: Iter:  14  F: -3614.7149203824533288  |grad|_K:  1.167e-05  alpha:  1.417e-01  linmin:  1.249e-04  cgtest:  1.910e-04  t[s]:   1149.42
	FillingsUpdate:  mu: +0.536614897  nElectrons: 864.000000
LCAOMinimize: Iter:  15  F: -3614.7149577499062616  |grad|_K:  6.648e-06  alpha:  8.662e-02  linmin: -2.379e-05  cgtest:  3.192e-03  t[s]:   1219.57
	FillingsUpdate:  mu: +0.536647049  nElectrons: 864.000000
LCAOMinimize: Iter:  16  F: -3614.7149725814188059  |grad|_K:  4.917e-06  alpha:  1.058e-01  linmin:  6.181e-06  cgtest: -5.468e-04  t[s]:   1288.59
	FillingsUpdate:  mu: +0.536662779  nElectrons: 864.000000
LCAOMinimize: Iter:  17  F: -3614.7149787379589725  |grad|_K:  3.064e-06  alpha:  8.031e-02  linmin:  7.664e-07  cgtest:  8.400e-05  t[s]:   1358.40
	FillingsUpdate:  mu: +0.536662712  nElectrons: 864.000000
LCAOMinimize: Iter:  18  F: -3614.7149807232563035  |grad|_K:  1.045e-06  alpha:  6.672e-02  linmin: -9.026e-06  cgtest:  5.971e-05  t[s]:   1428.99
	FillingsUpdate:  mu: +0.536660562  nElectrons: 864.000000
LCAOMinimize: Iter:  19  F: -3614.7149811149756715  |grad|_K:  1.042e-06  alpha:  1.130e-01  linmin: -4.140e-04  cgtest:  1.585e-03  t[s]:   1498.45
	FillingsUpdate:  mu: +0.536662385  nElectrons: 864.000000
LCAOMinimize: Iter:  20  F: -3614.7149814232761855  |grad|_K:  7.150e-07  alpha:  8.948e-02  linmin:  6.355e-05  cgtest: -4.464e-03  t[s]:   1566.94
LCAOMinimize: Converged (|Delta F|<1.000000e-06 for 2 iters).


---- Citations for features of the code used in this run ----

   Software package:
      R. Sundararaman, K. Letchworth-Weaver, K.A. Schwarz, D. Gunceler, Y. Ozhabes and T.A. Arias, 'JDFTx: software for joint density-functional theory', SoftwareX 6, 278 (2017)

   gga-PBEsol exchange-correlation functional:
      J.P. Perdew et al., Phys. Rev. Lett. 100, 136406 (2008)

   Pseudopotentials:
      KF Garrity, JW Bennett, KM Rabe and D Vanderbilt, Comput. Mater. Sci. 81, 446 (2014)

This list may not be complete. Please suggest additional citations or
report any other bugs at https://github.com/shankar1729/jdftx/issues

Initialization completed successfully at t[s]:   1608.01


-------- Electronic minimization -----------
Will mix electronic density at each iteration.
	FillingsUpdate:  mu: +0.536662385  nElectrons: 864.000000
	FillingsUpdate:  mu: +0.529826199  nElectrons: 864.000000
SCF: Cycle:  0   F: -3617.251548377052586   dF: -2.537e+00   |Residual|: 7.566e-01   |deigs|: 5.548e-02  t[s]:   1946.63
	FillingsUpdate:  mu: +0.520278429  nElectrons: 864.000000
SCF: Cycle:  1   F: -3617.306828225948721   dF: -5.528e-02   |Residual|: 3.356e-01   |deigs|: 1.130e-02  t[s]:   2236.71
	FillingsUpdate:  mu: +0.515830650  nElectrons: 864.000000
SCF: Cycle:  2   F: -3615.987204467173797   dF: +1.320e+00   |Residual|: 5.227e-01   |deigs|: 8.473e-03  t[s]:   2525.93
	FillingsUpdate:  mu: +0.514978861  nElectrons: 864.000000
SCF: Cycle:  3   F: -3617.360245719448812   dF: -1.373e+00   |Residual|: 1.897e-01   |deigs|: 6.300e-03  t[s]:   2815.68
	FillingsUpdate:  mu: +0.515696642  nElectrons: 864.000000
SCF: Cycle:  4   F: -3617.490634804735237   dF: -1.304e-01   |Residual|: 8.187e-02   |deigs|: 1.587e-03  t[s]:   3100.38
	FillingsUpdate:  mu: +0.516141833  nElectrons: 864.000000
SCF: Cycle:  5   F: -3617.507816495941825   dF: -1.718e-02   |Residual|: 5.966e-02   |deigs|: 9.211e-04  t[s]:   3340.04
	FillingsUpdate:  mu: +0.516583349  nElectrons: 864.000000
SCF: Cycle:  6   F: -3617.516269530216050   dF: -8.453e-03   |Residual|: 3.682e-02   |deigs|: 6.229e-04  t[s]:   3507.35
	FillingsUpdate:  mu: +0.516608646  nElectrons: 864.000000
SCF: Cycle:  7   F: -3617.522894433548117   dF: -6.625e-03   |Residual|: 1.521e-02   |deigs|: 3.237e-04  t[s]:   3676.07
	FillingsUpdate:  mu: +0.516615585  nElectrons: 864.000000
SCF: Cycle:  8   F: -3617.523711205465588   dF: -8.168e-04   |Residual|: 8.302e-03   |deigs|: 1.245e-04  t[s]:   3843.70
	FillingsUpdate:  mu: +0.516628873  nElectrons: 864.000000
SCF: Cycle:  9   F: -3617.523953367956437   dF: -2.422e-04   |Residual|: 5.136e-03   |deigs|: 1.057e-04  t[s]:   4012.91
	FillingsUpdate:  mu: +0.516644233  nElectrons: 864.000000
SCF: Cycle: 10   F: -3617.524035452723183   dF: -8.208e-05   |Residual|: 2.811e-03   |deigs|: 5.183e-05  t[s]:   4181.04
	FillingsUpdate:  mu: +0.516667962  nElectrons: 864.000000
SCF: Cycle: 11   F: -3617.524033016330122   dF: +2.436e-06   |Residual|: 2.792e-03   |deigs|: 5.023e-05  t[s]:   4353.08
	FillingsUpdate:  mu: +0.516679405  nElectrons: 864.000000
SCF: Cycle: 12   F: -3617.524069895001503   dF: -3.688e-05   |Residual|: 7.383e-04   |deigs|: 3.229e-05  t[s]:   4519.77
	FillingsUpdate:  mu: +0.516684007  nElectrons: 864.000000
SCF: Cycle: 13   F: -3617.524064150076811   dF: +5.745e-06   |Residual|: 1.148e-03   |deigs|: 1.596e-05  t[s]:   4689.79
	FillingsUpdate:  mu: +0.516689991  nElectrons: 864.000000
SCF: Cycle: 14   F: -3617.524071318829101   dF: -7.169e-06   |Residual|: 4.565e-04   |deigs|: 1.414e-05  t[s]:   4858.07
	FillingsUpdate:  mu: +0.516693234  nElectrons: 864.000000
SCF: Cycle: 15   F: -3617.524072225585769   dF: -9.068e-07   |Residual|: 2.022e-04   |deigs|: 6.402e-06  t[s]:   5027.58
	FillingsUpdate:  mu: +0.516694370  nElectrons: 864.000000
SCF: Cycle: 16   F: -3617.524072374545540   dF: -1.490e-07   |Residual|: 1.057e-04   |deigs|: 3.155e-06  t[s]:   5195.76
	FillingsUpdate:  mu: +0.516695062  nElectrons: 864.000000
SCF: Cycle: 17   F: -3617.524072306837297   dF: +6.771e-08   |Residual|: 1.375e-04   |deigs|: 2.442e-06  t[s]:   5363.86
	FillingsUpdate:  mu: +0.516695290  nElectrons: 864.000000
SCF: Cycle: 18   F: -3617.524072403335140   dF: -9.650e-08   |Residual|: 4.298e-05   |deigs|: 2.028e-06  t[s]:   5530.37
	FillingsUpdate:  mu: +0.516695395  nElectrons: 864.000000
SCF: Cycle: 19   F: -3617.524072400856767   dF: +2.478e-09   |Residual|: 4.315e-05   |deigs|: 1.788e-06  t[s]:   5696.94
	FillingsUpdate:  mu: +0.516695446  nElectrons: 864.000000
SCF: Cycle: 20   F: -3617.524072411248653   dF: -1.039e-08   |Residual|: 1.230e-05   |deigs|: 1.632e-06  t[s]:   5862.91
	FillingsUpdate:  mu: +0.516695481  nElectrons: 864.000000
SCF: Cycle: 21   F: -3617.524072411194538   dF: +5.411e-11   |Residual|: 1.124e-05   |deigs|: 1.466e-06  t[s]:   6013.17
	FillingsUpdate:  mu: +0.516695483  nElectrons: 864.000000
SCF: Cycle: 22   F: -3617.524072411873476   dF: -6.789e-10   |Residual|: 6.853e-06   |deigs|: 1.192e-06  t[s]:   6143.19
	FillingsUpdate:  mu: +0.516695500  nElectrons: 864.000000
SCF: Cycle: 23   F: -3617.524072412139958   dF: -2.665e-10   |Residual|: 4.189e-06   |deigs|: 9.351e-07  t[s]:   6252.62
SCF: Converged (|Delta E|<1.000000e-08 for 2 iters).

Setting wave functions to eigenvectors of Hamiltonian

# Ionic positions in lattice coordinates:
ion O   0.388600000000000   0.306230000000000   0.193200000000000 1
ion O   0.144930000000000   0.178630000000000   0.077670000000000 1
ion O   0.099540000000000   0.428090000000000   0.063860000000000 1
ion O   0.161970000000000   0.448130000000000   0.292330000000000 1
ion O   0.326940000000000   0.055140000000000   0.197160000000000 1
ion O   0.352280000000000   0.289920000000000   0.433650000000000 1
ion O   0.405860000000000   0.066750000000000   0.443510000000000 1
ion O   0.100830000000000   0.193350000000000   0.308880000000000 1
ion O   0.387100000000000   0.304950000000000   0.679630000000000 1
ion O   0.150730000000000   0.204510000000000   0.563900000000000 1
ion O   0.084630000000000   0.456630000000000   0.548720000000000 1
ion O   0.144430000000000   0.441330000000000   0.794620000000000 1
ion O   0.336320000000000   0.069540000000000   0.695800000000000 1
ion O   0.351470000000000   0.302800000000000   0.933590000000000 1
ion O   0.405670000000000   0.054450000000000   0.954200000000000 1
ion O   0.117830000000000   0.188830000000000   0.804410000000000 1
ion O   0.413430000000000   0.794200000000000   0.190940000000000 1
ion O   0.133740000000000   0.676970000000000   0.060290000000000 1
ion O   0.099450000000000   0.945890000000000   0.059760000000000 1
ion O   0.146360000000000   0.934390000000000   0.310800000000000 1
ion O   0.323610000000000   0.560080000000000   0.198250000000000 1
ion O   0.364310000000000   0.800550000000000   0.440560000000000 1
ion O   0.399860000000000   0.556190000000000   0.467680000000000 1
ion O   0.079290000000000   0.686330000000000   0.299550000000000 1
ion O   0.387480000000000   0.809040000000000   0.691960000000000 1
ion O   0.143550000000000   0.706580000000000   0.557350000000000 1
ion O   0.076170000000000   0.940830000000000   0.539330000000000 1
ion O   0.164700000000000   0.934560000000000   0.775750000000000 1
ion O   0.343280000000000   0.547950000000000   0.706510000000000 1
ion O   0.355100000000000   0.802340000000000   0.936370000000000 1
ion O   0.404220000000000   0.541090000000000   0.957870000000000 1
ion O   0.091440000000000   0.683900000000000   0.815050000000000 1
ion O   0.888930000000000   0.307770000000000   0.181660000000000 1
ion O   0.638770000000000   0.203400000000000   0.060250000000000 1
ion O   0.570170000000000   0.444700000000000   0.045250000000000 1
ion O   0.658340000000000   0.440740000000000   0.294810000000000 1
ion O   0.858210000000000   0.037230000000000   0.225260000000000 1
ion O   0.854010000000000   0.315520000000000   0.428900000000000 1
ion O   0.910130000000000   0.062150000000000   0.452520000000000 1
ion O   0.601140000000000   0.193330000000000   0.297380000000000 1
ion O   0.897210000000000   0.309740000000000   0.694020000000000 1
ion O   0.659730000000000   0.183240000000000   0.550400000000000 1
ion O   0.602300000000000   0.446560000000000   0.525260000000000 1
ion O   0.660220000000000   0.433720000000000   0.789920000000000 1
ion O   0.854690000000000   0.058510000000000   0.692700000000000 1
ion O   0.840680000000000   0.319480000000000   0.932830000000000 1
ion O   0.916370000000000   0.049110000000000   0.947730000000000 1
ion O   0.602690000000000   0.191520000000000   0.806570000000000 1
ion O   0.890000000000000   0.792000000000000   0.199570000000000 1
ion O   0.655930000000000   0.702170000000000   0.047620000000000 1
ion O   0.587190000000000   0.944820000000000   0.043730000000000 1
ion O   0.654540000000000   0.935940000000000   0.279350000000000 1
ion O   0.844400000000000   0.555000000000000   0.214130000000000 1
ion O   0.848380000000000   0.793160000000000   0.432220000000000 1
ion O   0.899730000000000   0.540530000000000   0.456920000000000 1
ion O   0.593440000000000   0.693920000000000   0.311640000000000 1
ion O   0.914030000000000   0.793490000000000   0.686810000000000 1
ion O   0.656520000000000   0.681310000000000   0.562320000000000 1
ion O   0.586640000000000   0.943180000000000   0.541750000000000 1
ion O   0.668410000000000   0.953840000000000   0.786250000000000 1
ion O   0.850330000000000   0.561790000000000   0.688900000000000 1
ion O   0.851900000000000   0.802090000000000   0.931060000000000 1
ion O   0.901920000000000   0.560110000000000   0.961640000000000 1
ion O   0.610530000000000   0.695400000000000   0.817820000000000 1
ion Tc   0.271290000000000   0.365110000000000   0.120770000000000 1
ion Tc   0.492980000000000   0.140920000000000   0.153850000000000 1
ion Tc   0.000110000000000   0.381480000000000   0.362390000000000 1
ion Tc   0.270940000000000   0.137260000000000   0.371020000000000 1
ion Tc   0.251560000000000   0.376780000000000   0.614740000000000 1
ion Tc   0.486560000000000   0.119680000000000   0.635690000000000 1
ion Tc   0.010370000000000   0.369420000000000   0.855940000000000 1
ion Tc   0.247040000000000   0.132170000000000   0.887630000000000 1
ion Tc   0.215980000000000   0.866800000000000   0.111280000000000 1
ion Tc   0.503530000000000   0.614050000000000   0.150310000000000 1
ion Tc  -0.000350000000000   0.876450000000000   0.370160000000000 1
ion Tc   0.248750000000000   0.636980000000000   0.386800000000000 1
ion Tc   0.247140000000000   0.872350000000000   0.607680000000000 1
ion Tc   0.484320000000000   0.625590000000000   0.643090000000000 1
ion Tc   0.009730000000000   0.865550000000000   0.857520000000000 1
ion Tc   0.256630000000000   0.637760000000000   0.895190000000000 1
ion Tc   0.741800000000000   0.361230000000000   0.118430000000000 1
ion Tc   0.997540000000000   0.133320000000000   0.150080000000000 1
ion Tc   0.502330000000000   0.387830000000000   0.353960000000000 1
ion Tc   0.752610000000000   0.137300000000000   0.377750000000000 1
ion Tc   0.752050000000000   0.386590000000000   0.614550000000000 1
ion Tc   0.994830000000000   0.127040000000000   0.629490000000000 1
ion Tc   0.527980000000000   0.376890000000000   0.872760000000000 1
ion Tc   0.750050000000000   0.137710000000000   0.899650000000000 1
ion Tc   0.746770000000000   0.862800000000000   0.116450000000000 1
ion Tc   0.982830000000000   0.629340000000000   0.166820000000000 1
ion Tc   0.504760000000000   0.887240000000000   0.352730000000000 1
ion Tc   0.746550000000000   0.613420000000000   0.384590000000000 1
ion Tc   0.747700000000000   0.882370000000000   0.602110000000000 1
ion Tc   0.994150000000000   0.614160000000000   0.649630000000000 1
ion Tc   0.505040000000000   0.840220000000000   0.862370000000000 1
ion Tc   0.758410000000000   0.607730000000000   0.879620000000000 1

# Forces in Lattice coordinates:
force O   1.289082391720684  -1.035618633186590   1.013019347065387 1
force O   1.067502887333339   1.151240598168950  -1.393815678825895 1
force O  -0.598462559803366   0.756415553573572  -0.828731327340397 1
force O  -0.279746408258508  -0.210356357605385   0.650077969423430 1
force O   0.742133304259255  -0.101138147010776  -1.168837991358509 1
force O   1.646783579478758   3.602767695667005  -1.055194579418183 1
force O   0.274371244273060  -0.541580970198389   0.233762300680139 1
force O   0.333690896194742   0.023870366005420   0.729902356277128 1
force O   0.942226195569565  -0.664663572441974   0.798514430640862 1
force O  -0.079568516541747  -0.120572166294867  -0.322795054503016 1
force O   1.143661721630497  -1.339249824342937   0.076090177590207 1
force O   0.824905615420591   0.837533078486453  -0.475961882754486 1
force O  -0.599823023659663  -1.099374740042361   0.803830231663711 1
force O   0.162662677404722  -0.089577129998673   0.375070943245603 1
force O  -0.044361139550112  -0.172990461686343   0.144632215603163 1
force O  -1.063090273863325   0.626695904220820  -0.406080944755716 1
force O  -0.913170177323240   0.532920201226137  -0.956909379107969 1
force O   0.440038795698107   0.787554904068767  -0.221560305407824 1
force O  -1.841140389835831   1.614716758350206  -1.718978409075659 1
force O   0.839760385033207   0.935218716786834  -1.363262488265099 1
force O   0.733758640675344  -0.081111201825525  -0.010093765781809 1
force O   0.009581781262805   0.710809121937309  -0.576575016741157 1
force O  -0.567480338629293   0.596314135670230  -0.936712252202252 1
force O   3.602140606401079  -1.008532100210757   4.734544504312435 1
force O   0.639149988611650  -0.685433710370017   0.438414248364810 1
force O  -0.258376410936593  -0.823532363067009   0.445984473199750 1
force O   1.082976057830920  -0.399241650021841   1.309878745432793 1
force O  -0.798218051138535   0.043766372215444   1.369299630062101 1
force O   0.193968883420011   0.756214559177612   0.040322261972293 1
force O  -0.596311776523224  -0.281567058102400   0.558091932161104 1
force O   0.018887155839720   0.678228936858737  -0.285657280598761 1
force O   0.888098894377161  -0.262294509120717   0.698216392714824 1
force O   0.888432037299992  -0.827238736787771   0.928659045331005 1
force O  -0.868458412742400  -1.354692050513898   0.902741696116367 1
force O   1.685921404239086  -1.617767493179447   1.825380829040327 1
force O  -0.323256768477834  -0.167718547894278  -0.145503269073368 1
force O   0.562478193476307   0.634521667682537  -1.452227381279667 1
force O  -0.439310484418640  -0.719901919673299   0.637898511604109 1
force O  -0.290973661595841  -0.010390301299177  -0.074310552020111 1
force O   1.108142581537598  -0.231562392421568   1.552778072014906 1
force O  -0.114072565330032   0.419925898434367  -0.576970859665515 1
force O  -0.239948788596058   0.402781115261952  -0.025337070386348 1
force O   0.016139243993196  -0.256575078945507   1.029045408646665 1
force O  -0.084545559781632   0.159506638652585   0.068319683831485 1
force O  -0.653192253500973  -0.567260172694540   0.657697474056399 1
force O  -0.108903229347184  -0.782907790406167   0.736884069299423 1
force O  -0.231274160538410   0.215971649232539   0.127646071117774 1
force O   0.172900878440887  -0.255359836683216   0.251820520837680 1
force O  -0.706982776425206   1.054930164420463  -0.921739395626940 1
force O  -1.132607421612258  -2.045664389604879   1.135631675259841 1
force O   0.556935029844526  -0.191438024295119   0.554429565670572 1
force O  -0.221993854207548   0.444870778265786   0.788538768975696 1
force O  -0.852009563131665  -0.805874181181720   0.212857552439355 1
force O   0.005299767119732   0.199017117714686   0.000770634573988 1
force O  -0.332720410399291   1.268977840395448  -0.465294513990400 1
force O   0.937374706324174  -0.394186845802689   1.040737247205809 1
force O  -0.423476737469588   0.724924062488970  -0.550962247735856 1
force O  -0.305782661377433   0.524095297037420  -0.016324800400275 1
force O   0.353798739746333   0.056974778325397   0.237851690480272 1
force O  -0.187464604185998  -0.390261241015438   0.473714542800816 1
force O  -2.311540343399700  -1.891811195178667   1.895792025445557 1
force O   0.075887723648036  -0.151005427664115   0.405009926929774 1
force O   0.391077875913348  -0.706395107517284   0.152838656831204 1
force O   0.654513950987029  -1.606095136725983   0.154120332712433 1
force Tc  -3.027667338469667   1.269445575479504  -2.659935495969740 1
force Tc  -0.791731666374918  -0.377627007492247  -2.585327932985016 1
force Tc   0.580157400892463  -1.104392556499672  -0.610227326896537 1
force Tc  -2.802275685144625  -2.786359346664666   2.387663548762214 1
force Tc  -0.852796882376968  -1.313756029270005   0.434298845041476 1
force Tc   1.011468662728805   1.885106634338046  -1.224474168728506 1
force Tc  -0.519370116751999  -1.113572256535560   1.464763547290210 1
force Tc   0.858349454307320  -0.550955973245940   0.876518157994245 1
force Tc   2.247503575539334  -2.615797230598864   2.230726149549329 1
force Tc  -1.521109185534187   2.343108621301616  -1.428829391877712 1
force Tc  -1.287403594243766  -0.439562486768140  -0.731815140224500 1
force Tc  -0.068419040174347   0.036080638400570   0.459893921253221 1
force Tc   0.301604741415216  -0.234800729733051  -0.673290033727001 1
force Tc   1.114667552631721   0.973672420101850  -0.700328092910282 1
force Tc  -0.551092788687421  -0.009044121909464   0.022285929015272 1
force Tc  -0.739400881322244  -1.442455842147607   0.897885902698383 1
force Tc   0.719006105091107   1.885213023784056  -2.135694324276086 1
force Tc  -0.720871296053446   0.238956859334648  -0.798460239004481 1
force Tc  -0.149397990155308  -2.078018986293600   2.037428663274952 1
force Tc  -0.398913722182481   0.141348655803117   1.249892678524197 1
force Tc  -0.384420338242627  -1.357896141749468  -0.315603627318201 1
force Tc   0.820284223274783   1.321304755552350   0.054672815284303 1
force Tc  -2.244303511249730  -0.454543716794382  -2.407995900054621 1
force Tc   0.547705426908180   0.351924250355912  -1.371198597863621 1
force Tc   1.201846242067499   1.215205463190806  -1.664372686438409 1
force Tc  -0.901732388521886   0.545398160201751  -5.506559385202722 1
force Tc  -0.135432382094147  -1.490201047609736   1.615617742368824 1
force Tc   0.177201527675287   1.411459845528098   0.821270281278867 1
force Tc  -0.139850005347939  -1.532789428062638   1.050488641072226 1
force Tc   1.654834256987888   4.319286133747784  -2.732364572797230 1
force Tc  -0.889123697000885   3.578868691879865  -1.638732631856522 1
force Tc   0.280943865370595   1.553383222072729  -0.660824850124719 1

# Energy components:
   Eewald =    -2768.2603364191168112
       EH =      813.2836952093784930
     Eloc =    -3004.0034063539656017
      Enl =      710.0772042097017902
      Exc =     -740.4117234980826652
 Exc_core =      200.5496434906994807
       KE =     1171.7226150494414014
-------------------------------------
     Etot =    -3617.0423083119439980
       TS =        0.4817641001958463
-------------------------------------
        F =    -3617.5240724121399580

IonicMinimize: Iter:   0  F: -3617.524072412139958  |grad|_K:  5.710e-02  t[s]:   6303.26

#--- Lowdin population analysis ---
# oxidation-state O -0.067 -0.190 -0.335 -0.255 -0.178 -0.120 -0.207 -0.201 -0.210 -0.251 -0.209 -0.194 -0.170 -0.231 -0.341 -0.161 -0.201 -0.248 -0.114 -0.229 -0.201 -0.233 -0.192 -0.042 -0.208 -0.229 -0.202 -0.211 -0.181 -0.120 -0.279 -0.171 -0.146 -0.137 -0.104 -0.125 -0.237 -0.192 -0.222 -0.126 -0.190 -0.273 -0.234 -0.139 -0.197 -0.251 -0.266 -0.190 -0.187 -0.159 -0.275 -0.157 -0.187 -0.229 -0.207 -0.172 -0.206 -0.250 -0.193 -0.259 -0.055 -0.266 -0.250 -0.142
# oxidation-state Tc +0.470 +0.423 +0.444 +0.492 +0.430 +0.464 +0.484 +0.463 +0.448 +0.458 +0.472 +0.425 +0.464 +0.421 +0.449 +0.430 +0.395 +0.438 +0.380 +0.450 +0.372 +0.479 +0.475 +0.480 +0.471 +0.537 +0.451 +0.407 +0.489 +0.540 +0.511 +0.408


-------- Electronic minimization -----------
Will mix electronic density at each iteration.
	FillingsUpdate:  mu: +0.516695500  nElectrons: 864.000000
	FillingsUpdate:  mu: +0.516051888  nElectrons: 864.000000
SCF: Cycle:  0   F: -3601.534028142441457   dF: +1.449e+01   |Residual|: 1.493e+00   |deigs|: 3.739e-03  t[s]:   6699.67
	FillingsUpdate:  mu: +0.511091327  nElectrons: 864.000000
SCF: Cycle:  1   F: -3576.806169421572122   dF: +2.473e+01   |Residual|: 2.439e+00   |deigs|: 2.999e-02  t[s]:   6989.88
	FillingsUpdate:  mu: +0.515965293  nElectrons: 864.000000
SCF: Cycle:  2   F: -3615.693728841385564   dF: -3.889e+01   |Residual|: 6.710e-01   |deigs|: 3.424e-02  t[s]:   7276.83
	FillingsUpdate:  mu: +0.515596258  nElectrons: 864.000000
SCF: Cycle:  3   F: -3615.309128505549324   dF: +3.846e-01   |Residual|: 6.735e-01   |deigs|: 3.035e-03  t[s]:   7568.47
	FillingsUpdate:  mu: +0.515741637  nElectrons: 864.000000
SCF: Cycle:  4   F: -3617.413860963870320   dF: -2.105e+00   |Residual|: 2.942e-01   |deigs|: 4.222e-03  t[s]:   7857.02
	FillingsUpdate:  mu: +0.515026892  nElectrons: 864.000000
SCF: Cycle:  5   F: -3617.624844107758690   dF: -2.110e-01   |Residual|: 1.690e-01   |deigs|: 1.630e-03  t[s]:   8148.91
	FillingsUpdate:  mu: +0.515102152  nElectrons: 864.000000
SCF: Cycle:  6   F: -3617.734973672218985   dF: -1.101e-01   |Residual|: 9.560e-02   |deigs|: 6.621e-04  t[s]:   8436.84
	FillingsUpdate:  mu: +0.515133168  nElectrons: 864.000000
SCF: Cycle:  7   F: -3617.775827037316958   dF: -4.085e-02   |Residual|: 5.412e-02   |deigs|: 3.743e-04  t[s]:   8674.40
	FillingsUpdate:  mu: +0.515106974  nElectrons: 864.000000
SCF: Cycle:  8   F: -3617.784261258600054   dF: -8.434e-03   |Residual|: 3.226e-02   |deigs|: 3.609e-04  t[s]:   8846.63
	FillingsUpdate:  mu: +0.515058059  nElectrons: 864.000000
SCF: Cycle:  9   F: -3617.788872110885222   dF: -4.611e-03   |Residual|: 1.243e-02   |deigs|: 1.984e-04  t[s]:   9012.95
	FillingsUpdate:  mu: +0.515042662  nElectrons: 864.000000
SCF: Cycle: 10   F: -3617.788895036122994   dF: -2.293e-05   |Residual|: 1.138e-02   |deigs|: 1.470e-04  t[s]:   9181.08
	FillingsUpdate:  mu: +0.515044738  nElectrons: 864.000000
SCF: Cycle: 11   F: -3617.789525259664060   dF: -6.302e-04   |Residual|: 4.351e-03   |deigs|: 9.731e-05  t[s]:   9350.51
	FillingsUpdate:  mu: +0.515045598  nElectrons: 864.000000
SCF: Cycle: 12   F: -3617.789540624783058   dF: -1.537e-05   |Residual|: 4.176e-03   |deigs|: 4.593e-05  t[s]:   9515.99
	FillingsUpdate:  mu: +0.515046959  nElectrons: 864.000000
SCF: Cycle: 13   F: -3617.789582825072102   dF: -4.220e-05   |Residual|: 3.092e-03   |deigs|: 4.846e-05  t[s]:   9683.06
	FillingsUpdate:  mu: +0.515045139  nElectrons: 864.000000
SCF: Cycle: 14   F: -3617.789618025583877   dF: -3.520e-05   |Residual|: 1.220e-03   |deigs|: 2.591e-05  t[s]:   9850.30
	FillingsUpdate:  mu: +0.515041851  nElectrons: 864.000000
SCF: Cycle: 15   F: -3617.789614926599825   dF: +3.099e-06   |Residual|: 1.477e-03   |deigs|: 1.949e-05  t[s]:  10017.42
	FillingsUpdate:  mu: +0.515040872  nElectrons: 864.000000
SCF: Cycle: 16   F: -3617.789624374593586   dF: -9.448e-06   |Residual|: 8.320e-04   |deigs|: 1.136e-05  t[s]:  10185.80
	FillingsUpdate:  mu: +0.515041220  nElectrons: 864.000000
SCF: Cycle: 17   F: -3617.789626967822642   dF: -2.593e-06   |Residual|: 4.091e-04   |deigs|: 6.534e-06  t[s]:  10352.30
	FillingsUpdate:  mu: +0.515041063  nElectrons: 864.000000
SCF: Cycle: 18   F: -3617.789627065709738   dF: -9.789e-08   |Residual|: 3.663e-04   |deigs|: 4.563e-06  t[s]:  10519.93
	FillingsUpdate:  mu: +0.515041072  nElectrons: 864.000000
SCF: Cycle: 19   F: -3617.789627463189845   dF: -3.975e-07   |Residual|: 2.548e-04   |deigs|: 3.471e-06  t[s]:  10686.04
	FillingsUpdate:  mu: +0.515040814  nElectrons: 864.000000
SCF: Cycle: 20   F: -3617.789627751331864   dF: -2.881e-07   |Residual|: 1.043e-04   |deigs|: 2.429e-06  t[s]:  10850.43
	FillingsUpdate:  mu: +0.515040439  nElectrons: 864.000000
SCF: Cycle: 21   F: -3617.789627786118217   dF: -3.479e-08   |Residual|: 7.401e-05   |deigs|: 1.102e-06  t[s]:  11017.97
	FillingsUpdate:  mu: +0.515040419  nElectrons: 864.000000
SCF: Cycle: 22   F: -3617.789627798711081   dF: -1.259e-08   |Residual|: 5.561e-05   |deigs|: 1.012e-06  t[s]:  11187.04
	FillingsUpdate:  mu: +0.515040412  nElectrons: 864.000000
SCF: Cycle: 23   F: -3617.789627809896047   dF: -1.118e-08   |Residual|: 2.858e-05   |deigs|: 5.543e-07  t[s]:  11355.70
	FillingsUpdate:  mu: +0.515040415  nElectrons: 864.000000
SCF: Cycle: 24   F: -3617.789627811826449   dF: -1.930e-09   |Residual|: 2.356e-05   |deigs|: 3.644e-07  t[s]:  11514.95
	FillingsUpdate:  mu: +0.515040396  nElectrons: 864.000000
SCF: Cycle: 25   F: -3617.789627811955597   dF: -1.291e-10   |Residual|: 1.969e-05   |deigs|: 3.180e-07  t[s]:  11672.08
SCF: Converged (|Delta E|<1.000000e-08 for 2 iters).

Setting wave functions to eigenvectors of Hamiltonian

# Ionic positions in lattice coordinates:
ion O   0.389876045704193   0.305683452138215   0.193690895501730 1
ion O   0.145986465332564   0.179110594332913   0.076865033268709 1
ion O   0.098944490380244   0.428446680821535   0.063415283138769 1
ion O   0.161690437779776   0.448228053780339   0.292859068514670 1
ion O   0.327673832144311   0.054488878621415   0.195982366396260 1
ion O   0.353910824397257   0.292983010108383   0.434327499487999 1
ion O   0.406129921253026   0.066324521911327   0.443480557283770 1
ion O   0.101158704117082   0.193717150025104   0.309596556355387 1
ion O   0.388032119374827   0.304668993709046   0.680088385518393 1
ion O   0.150648992555292   0.204238350613831   0.563531017824561 1
ion O   0.085761912455153   0.455341875246722   0.548162224731885 1
ion O   0.145245853955227   0.441933067262071   0.794554390261282 1
ion O   0.335723054078359   0.068831886242657   0.696058779237940 1
ion O   0.351629139491361   0.302887827935440   0.933910140983597 1
ion O   0.405623873945019   0.054346805204413   0.954258114282059 1
ion O   0.116773747629843   0.189257643243204   0.804312706221767 1
ion O   0.412522442214868   0.794275402428789   0.190266095857016 1
ion O   0.134174210795687   0.677643555937561   0.060446760301457 1
ion O   0.097622321762069   0.946675455839638   0.058859328042495 1
ion O   0.147190639954142   0.934671498207561   0.309922786192963 1
ion O   0.324335453062200   0.559994692727842   0.198201806450511 1
ion O   0.364317400747946   0.800980422482721   0.440337479001246 1
ion O   0.399295220325432   0.556337568887185   0.467055467788566 1
ion O   0.082859393738166   0.687563849627433   0.303650608686276 1
ion O   0.388111617704226   0.808568783674326   0.692060557301156 1
ion O   0.143291646998283   0.705975875980446   0.557392857705409 1
ion O   0.077241648943332   0.941052274350202   0.540407715286076 1
ion O   0.163906281484476   0.935248119908212   0.777094024191971 1
ion O   0.343470195570765   0.548715988310339   0.706905134743627 1
ion O   0.354506543691943   0.802324333452862   0.936776622602914 1
ion O   0.404236609352292   0.541625308938761   0.957913317140280 1
ion O   0.092318450253999   0.683969395418017   0.815601047961667 1
ion O   0.889808771207046   0.307389646851873   0.182167573945701 1
ion O   0.637906675998055   0.202486166294716   0.060484090844957 1
ion O   0.571839497619865   0.443960907007406   0.046251751579993 1
ion O   0.658017344550981   0.440505301064837   0.294590181471410 1
ion O   0.858765700409206   0.037172398565108   0.224155119753807 1
ion O   0.853572222541356   0.315108729614818   0.429177199448401 1
ion O   0.909839349802945   0.062104336375978   0.452443127752753 1
ion O   0.602236586343119   0.193832450956374   0.298771505334219 1
ion O   0.897094790093952   0.309882755749181   0.693660034916805 1
ion O   0.659489938017914   0.183625752534899   0.550565154415187 1
ion O   0.602313808853935   0.446790949040177   0.526133567274259 1
ion O   0.660134029472619   0.433909454359184   0.790061034458485 1
ion O   0.854040138346308   0.058258917949910   0.693068277797428 1
ion O   0.840569842852267   0.319053101173475   0.933173164681990 1
ion O   0.916138531573488   0.049383216114017   0.947954994109284 1
ion O   0.602859301066886   0.191385906090677   0.806692890871709 1
ion O   0.889296886727367   0.792607878327665   0.199176057222927 1
ion O   0.654804742116099   0.700683019277469   0.047753612653679 1
ion O   0.587740082515101   0.944891671498924   0.044175478757117 1
ion O   0.654317688930701   0.936750862847787   0.280321651162025 1
ion O   0.843553025558371   0.554303479772555   0.213955884347616 1
ion O   0.848383122507813   0.793356671563815   0.432314356123444 1
ion O   0.899397967269211   0.541564504238543   0.457068080215061 1
ion O   0.594367290483099   0.694020447095764   0.312459963642230 1
ion O   0.913607985670113   0.793946445748892   0.686618914566088 1
ion O   0.656214656539040   0.681819895354822   0.562551035053836 1
ion O   0.586988674112128   0.943348003896904   0.542006555148805 1
ion O   0.668221955925679   0.953677146309236   0.786523821277221 1
ion O   0.848035682244061   0.560813285953715   0.689840932029338 1
ion O   0.851973093622240   0.802131226661999   0.931380138446720 1
ion O   0.902305652332518   0.559483501422755   0.961454668327577 1
ion O   0.611176879593591   0.693884924599387   0.817211935196374 1
ion Tc   0.268285846311472   0.365110837986940   0.118797209638523 1
ion Tc   0.492192972353331   0.139328162356843   0.151173048107370 1
ion Tc   0.000683193358079   0.380100586112664   0.361279559093307 1
ion Tc   0.268159054571198   0.135630982897074   0.372014862518779 1
ion Tc   0.250712235508193   0.375685884659830   0.614540598825813 1
ion Tc   0.487560884741161   0.120965675287908   0.635394527565441 1
ion Tc   0.009852787300178   0.369009297747100   0.856830919413554 1
ion Tc   0.247888942526647   0.132038129104408   0.888217367738956 1
ion Tc   0.218206336258650   0.865265549649591   0.112203218552670 1
ion Tc   0.502019633367526   0.615692049685176   0.150032986956219 1
ion Tc  -0.001628646219871   0.875670364841450   0.369245436887616 1
ion Tc   0.248679996195361   0.637231988525993   0.387261355086532 1
ion Tc   0.247436981030461   0.871800294647279   0.606918390241212 1
ion Tc   0.485423189997112   0.626221886247523   0.642871658214503 1
ion Tc   0.009181413962333   0.865551187345788   0.857537145717628 1
ion Tc   0.255894648363313   0.636757139494504   0.895378033189574 1
ion Tc   0.742510942715201   0.362086399805847   0.117253842384592 1
ion Tc   0.996823115069565   0.133179539173455   0.149420714108296 1
ion Tc   0.502179617639334   0.386735976628660   0.354949949243413 1
ion Tc   0.752212231461015   0.138028290397218   0.379024566318916 1
ion Tc   0.751666718319391   0.385098888575721   0.613604938974643 1
ion Tc   0.995641232560026   0.128371226064284   0.630165245858524 1
ion Tc   0.525752616705452   0.375305721315971   0.870218300288309 1
ion Tc   0.750591049504164   0.137411288442444   0.898490275323786 1
ion Tc   0.747959694690944   0.863216318472075   0.115413654879677 1
ion Tc   0.981934076974000   0.627283856765869   0.161754439195432 1
ion Tc   0.504623487196958   0.886528155065685   0.353589230835470 1
ion Tc   0.746723512647559   0.615201567666482   0.386048736875452 1
ion Tc   0.747559143611565   0.881349765710210   0.602402928282677 1
ion Tc   0.995788908513048   0.617140836016903   0.649024040416347 1
ion Tc   0.504156300739789   0.842984441456395   0.862472373481114 1
ion Tc   0.758686475936411   0.608953440171339   0.879713064696799 1

# Forces in Lattice coordinates:
force O   0.741309393373256  -0.432259609100353   0.387398531086428 1
force O   0.951777970411400   1.110336707302038  -1.299258031260760 1
force O  -0.606454678104407   0.760590712529526  -0.856281201461903 1
force O  -0.245068037339595  -0.187356483437942   0.572764096079121 1
force O   0.636764500530139  -0.111818702861048  -0.788006187316134 1
force O   1.155596359100755   2.606529103250459  -0.936990110572309 1
force O   0.254327969713457  -0.528238570099173   0.242227072591486 1
force O   0.241624081916376   0.052687791053575   0.575329628303519 1
force O   0.879702046499540  -0.583920271095634   0.746263986963382 1
force O  -0.099706815885749  -0.179499130021869  -0.279559928081939 1
force O   0.932809900202899  -1.088573945347733   0.092201365452252 1
force O   0.714962537995048   0.700242360650615  -0.360900909101650 1
force O  -0.410258012501769  -0.976369073319352   0.674309382440996 1
force O   0.154832138148267  -0.089322504793972   0.315403850360013 1
force O  -0.027287093249561  -0.203126802362710   0.128759040495672 1
force O  -0.930308105775680   0.517767505764400  -0.273278465570813 1
force O  -0.933077647627313   0.606050641049098  -0.928397363555643 1
force O   0.401743194870714   0.685510230387978  -0.157385870235114 1
force O  -1.279003299694446   0.942715001188765  -1.149767090470710 1
force O   0.700857261459616   0.838816558850707  -1.221206280775851 1
force O   0.699874550475638  -0.132581676517124   0.060454529674566 1
force O  -0.007347782979622   0.674198865958012  -0.554951414014505 1
force O  -0.459125304845414   0.543677075666548  -0.850944957109470 1
force O   2.150369819448766  -0.663546491317015   2.795073401711618 1
force O   0.573042733550146  -0.597179520140050   0.364919132601038 1
force O  -0.235530043620450  -0.823925912104769   0.494742967382787 1
force O   0.929604414118511  -0.260729967382367   0.993821396688449 1
force O  -0.672532990053898   0.057935594710273   1.179096772071139 1
force O   0.145336117933089   0.621440609930261   0.046696674693979 1
force O  -0.534655503671204  -0.286833352184082   0.521773146289561 1
force O   0.034221569281778   0.616636804583987  -0.269125437392239 1
force O   0.784601613117139  -0.177156431734380   0.578713463681405 1
force O   0.743398624656353  -0.729721743762076   0.790546422126138 1
force O  -0.607117054710518  -1.104288473907032   0.714596063486623 1
force O   1.454630578623476  -1.287175279435862   1.344825518193529 1
force O  -0.260824145377511  -0.049849767531889  -0.181843320955474 1
force O   0.422305716451174   0.672888300190547  -1.312421227331456 1
force O  -0.363435433924062  -0.632869249899645   0.557163913266638 1
force O  -0.268111115497671  -0.037918630478964  -0.042035143890892 1
force O   0.764149910216084  -0.158965392256968   1.103589712508686 1
force O  -0.094829479721457   0.394316112706149  -0.545265896859341 1
force O  -0.277999913953553   0.354582832084800   0.050076340994237 1
force O   0.014258077354969  -0.253354715971442   1.003720531461972 1
force O  -0.073665591416415   0.173667672680371   0.075534679529801 1
force O  -0.574484833463532  -0.493227650237914   0.597361431863564 1
force O  -0.062340524948901  -0.724342612973191   0.676597464759491 1
force O  -0.238546965616236   0.213640117634715   0.129223609562874 1
force O   0.167511522051891  -0.252105336499545   0.249740336639752 1
force O  -0.613631766702154   0.937236297986415  -0.876636082376745 1
force O  -0.986243109933705  -1.795589058185023   1.123448062003498 1
force O   0.493281692082853  -0.158656940353872   0.443480764196333 1
force O  -0.142822156660969   0.438546316004409   0.627533325678280 1
force O  -0.700026256047012  -0.687477085240214   0.164355012970787 1
force O   0.017338587115066   0.237827112849326  -0.020203198222647 1
force O  -0.196043613194579   1.064442958348167  -0.431429877356732 1
force O   0.818267365795086  -0.380480116313550   0.863986522427270 1
force O  -0.488822895775787   0.789129157467705  -0.588077812651640 1
force O  -0.336582796937875   0.503458369317377   0.032139890616643 1
force O   0.341632344149483   0.068379657088655   0.232545902529939 1
force O  -0.208835105619185  -0.404516573354657   0.491375133334543 1
force O  -1.356940521228139  -1.304303174988087   1.361235732341579 1
force O   0.092235049905426  -0.127880165534040   0.369599230299685 1
force O   0.340751243157769  -0.676001145660099   0.175282007696688 1
force O   0.315766112786933  -1.111778720595979   0.007424413694686 1
force Tc  -2.437119600586976   0.654197776339664  -1.862281768700938 1
force Tc  -0.443422776092014  -0.389384906409517  -1.973556154118388 1
force Tc   0.436954152787773  -0.949379393214387  -0.425063806742035 1
force Tc  -2.220370889974899  -1.818075347473212   2.012202370771289 1
force Tc  -0.639703933648896  -1.123491376962010   0.247037218907699 1
force Tc   0.823282588747571   1.706119812364991  -1.019977194630008 1
force Tc  -0.420014990096580  -0.968237795856388   1.247090429251703 1
force Tc   0.684369391408486  -0.435192030418808   0.701635308120003 1
force Tc   1.753236707269175  -1.797933015539264   1.529964295126952 1
force Tc  -1.235300815575595   2.084636373984519  -1.372746052728313 1
force Tc  -0.897539620717378  -0.638169037705725  -0.481277974546188 1
force Tc  -0.115661218127090   0.061582886570704   0.340680257601825 1
force Tc   0.215760297149675  -0.221405536995236  -0.465113654925899 1
force Tc   1.049282302019450   0.898522848919265  -0.585931374983891 1
force Tc  -0.438058450845796  -0.086649426337305   0.104717177861168 1
force Tc  -0.667423586035626  -1.281151025945276   0.788453638549490 1
force Tc   0.568680098528867   1.497918276072752  -1.848361760664567 1
force Tc  -0.512102035819527   0.218615053170348  -0.721837647381111 1
force Tc  -0.151776265163181  -2.056728773291586   1.897830263595112 1
force Tc  -0.290869531638990   0.078256854687813   1.072724262308701 1
force Tc  -0.326224558406328  -1.301000913532028  -0.334913048464506 1
force Tc   0.703809956626135   1.094387069404542   0.115004517577145 1
force Tc  -2.099046761355642  -0.453031875181501  -1.850503900863848 1
force Tc   0.428375117523802   0.337365593517603  -1.187044045684038 1
force Tc   0.920180067712162   0.898105601786882  -1.429145223048801 1
force Tc   0.181761171173489   0.421139558943918  -3.492979475542420 1
force Tc  -0.095742265088739  -1.510573228082142   1.451548880726198 1
force Tc   0.164078640014245   1.306461251429476   0.677572623675395 1
force Tc  -0.109804229809759  -1.499359055739099   0.996235964436191 1
force Tc   0.948928849148671   3.336245944729594  -2.170125888685234 1
force Tc  -0.632496213318109   2.927432402245103  -1.374055871621421 1
force Tc   0.218944768336822   1.551211598591435  -0.581886787144539 1

# Energy components:
   Eewald =    -2774.7743782554916834
       EH =      807.2460987693990546
     Eloc =    -2990.3842125529040459
      Enl =      709.6221967159470978
      Exc =     -740.0838460243280679
 Exc_core =      200.5495993593030448
       KE =     1170.5121071733185545
-------------------------------------
     Etot =    -3617.3124348147566707
       TS =        0.4771929971989274
-------------------------------------
        F =    -3617.7896278119555973

IonicMinimize: Iter:   1  F: -3617.789627811955597  |grad|_K:  4.433e-02  alpha:  3.224e-01  linmin: -9.842e-01  t[s]:  11722.44

#--- Lowdin population analysis ---
# oxidation-state O -0.090 -0.191 -0.318 -0.252 -0.187 -0.153 -0.205 -0.195 -0.206 -0.238 -0.217 -0.201 -0.182 -0.223 -0.323 -0.165 -0.199 -0.235 -0.145 -0.230 -0.202 -0.227 -0.199 -0.100 -0.204 -0.222 -0.210 -0.218 -0.191 -0.125 -0.275 -0.169 -0.150 -0.148 -0.133 -0.140 -0.240 -0.189 -0.226 -0.140 -0.190 -0.263 -0.232 -0.146 -0.204 -0.243 -0.264 -0.187 -0.181 -0.172 -0.271 -0.168 -0.187 -0.217 -0.212 -0.179 -0.199 -0.241 -0.196 -0.258 -0.092 -0.255 -0.243 -0.157
# oxidation-state Tc +0.471 +0.435 +0.451 +0.485 +0.445 +0.464 +0.481 +0.465 +0.450 +0.468 +0.484 +0.438 +0.467 +0.431 +0.457 +0.438 +0.402 +0.446 +0.400 +0.458 +0.389 +0.480 +0.477 +0.481 +0.474 +0.520 +0.454 +0.419 +0.490 +0.527 +0.506 +0.422


-------- Electronic minimization -----------
Will mix electronic density at each iteration.
	FillingsUpdate:  mu: +0.515040396  nElectrons: 864.000000
	FillingsUpdate:  mu: +0.513340807  nElectrons: 864.000000
SCF: Cycle:  0   F: -3587.444832110586503   dF: +2.736e+01   |Residual|: 2.047e+00   |deigs|: 7.205e-03  t[s]:  12118.44
	FillingsUpdate:  mu: +0.506204194  nElectrons: 864.000000
SCF: Cycle:  1   F: -3562.967458739668018   dF: +2.448e+01   |Residual|: 2.937e+00   |deigs|: 3.450e-02  t[s]:  12402.86
	FillingsUpdate:  mu: +0.515375494  nElectrons: 864.000000
SCF: Cycle:  2   F: -3613.620093530319991   dF: -5.065e+01   |Residual|: 9.648e-01   |deigs|: 4.219e-02  t[s]:  12692.62
	FillingsUpdate:  mu: +0.513889798  nElectrons: 864.000000
SCF: Cycle:  3   F: -3614.367437806801263   dF: -7.473e-01   |Residual|: 8.302e-01   |deigs|: 3.157e-03  t[s]:  12980.14
	FillingsUpdate:  mu: +0.513920418  nElectrons: 864.000000
SCF: Cycle:  4   F: -3617.257280491704933   dF: -2.890e+00   |Residual|: 4.301e-01   |deigs|: 4.420e-03  t[s]:  13265.69
	FillingsUpdate:  mu: +0.513236165  nElectrons: 864.000000
SCF: Cycle:  5   F: -3617.807185847350866   dF: -5.499e-01   |Residual|: 2.058e-01   |deigs|: 2.425e-03  t[s]:  13553.62
	FillingsUpdate:  mu: +0.513366387  nElectrons: 864.000000
SCF: Cycle:  6   F: -3617.930228500137673   dF: -1.230e-01   |Residual|: 1.445e-01   |deigs|: 7.987e-04  t[s]:  13839.59
	FillingsUpdate:  mu: +0.513344160  nElectrons: 864.000000
SCF: Cycle:  7   F: -3618.040818722387485   dF: -1.106e-01   |Residual|: 7.444e-02   |deigs|: 5.284e-04  t[s]:  14128.55
	FillingsUpdate:  mu: +0.513264603  nElectrons: 864.000000
SCF: Cycle:  8   F: -3618.050906209886762   dF: -1.009e-02   |Residual|: 5.088e-02   |deigs|: 4.052e-04  t[s]:  14324.40
	FillingsUpdate:  mu: +0.513230263  nElectrons: 864.000000
SCF: Cycle:  9   F: -3618.063027360354226   dF: -1.212e-02   |Residual|: 1.865e-02   |deigs|: 2.634e-04  t[s]:  14491.88
	FillingsUpdate:  mu: +0.513192375  nElectrons: 864.000000
SCF: Cycle: 10   F: -3618.063133143328287   dF: -1.058e-04   |Residual|: 1.518e-02   |deigs|: 1.488e-04  t[s]:  14658.49
	FillingsUpdate:  mu: +0.513194921  nElectrons: 864.000000
SCF: Cycle: 11   F: -3618.064254309416356   dF: -1.121e-03   |Residual|: 7.564e-03   |deigs|: 1.249e-04  t[s]:  14827.32
	FillingsUpdate:  mu: +0.513205301  nElectrons: 864.000000
SCF: Cycle: 12   F: -3618.064547016673714   dF: -2.927e-04   |Residual|: 4.025e-03   |deigs|: 5.623e-05  t[s]:  14991.29
	FillingsUpdate:  mu: +0.513207832  nElectrons: 864.000000
SCF: Cycle: 13   F: -3618.064423123422785   dF: +1.239e-04   |Residual|: 5.064e-03   |deigs|: 6.251e-05  t[s]:  15158.36
	FillingsUpdate:  mu: +0.513202408  nElectrons: 864.000000
SCF: Cycle: 14   F: -3618.064588612297030   dF: -1.655e-04   |Residual|: 1.244e-03   |deigs|: 4.587e-05  t[s]:  15328.15
	FillingsUpdate:  mu: +0.513198392  nElectrons: 864.000000
SCF: Cycle: 15   F: -3618.064589262296067   dF: -6.500e-07   |Residual|: 1.239e-03   |deigs|: 1.600e-05  t[s]:  15494.36
	FillingsUpdate:  mu: +0.513197380  nElectrons: 864.000000
SCF: Cycle: 16   F: -3618.064595026753068   dF: -5.764e-06   |Residual|: 7.802e-04   |deigs|: 1.269e-05  t[s]:  15659.45
	FillingsUpdate:  mu: +0.513197632  nElectrons: 864.000000
SCF: Cycle: 17   F: -3618.064597442666582   dF: -2.416e-06   |Residual|: 3.920e-04   |deigs|: 6.823e-06  t[s]:  15825.24
	FillingsUpdate:  mu: +0.513197471  nElectrons: 864.000000
SCF: Cycle: 18   F: -3618.064597870695707   dF: -4.280e-07   |Residual|: 2.483e-04   |deigs|: 3.356e-06  t[s]:  15991.71
	FillingsUpdate:  mu: +0.513196972  nElectrons: 864.000000
SCF: Cycle: 19   F: -3618.064597961001255   dF: -9.031e-08   |Residual|: 1.770e-04   |deigs|: 2.767e-06  t[s]:  16159.52
	FillingsUpdate:  mu: +0.513196402  nElectrons: 864.000000
SCF: Cycle: 20   F: -3618.064598117236073   dF: -1.562e-07   |Residual|: 5.491e-05   |deigs|: 1.489e-06  t[s]:  16325.08
	FillingsUpdate:  mu: +0.513196489  nElectrons: 864.000000
SCF: Cycle: 21   F: -3618.064598096867030   dF: +2.037e-08   |Residual|: 7.179e-05   |deigs|: 7.560e-07  t[s]:  16493.47
	FillingsUpdate:  mu: +0.513196459  nElectrons: 864.000000
SCF: Cycle: 22   F: -3618.064598119869061   dF: -2.300e-08   |Residual|: 3.453e-05   |deigs|: 6.549e-07  t[s]:  16663.77
	FillingsUpdate:  mu: +0.513196436  nElectrons: 864.000000
SCF: Cycle: 23   F: -3618.064598123452924   dF: -3.584e-09   |Residual|: 1.897e-05   |deigs|: 3.868e-07  t[s]:  16827.31
	FillingsUpdate:  mu: +0.513196403  nElectrons: 864.000000
SCF: Cycle: 24   F: -3618.064598124254189   dF: -8.013e-10   |Residual|: 1.520e-05   |deigs|: 2.911e-07  t[s]:  16990.15
SCF: Converged (|Delta E|<1.000000e-08 for 2 iters).

Setting wave functions to eigenvectors of Hamiltonian

# Ionic positions in lattice coordinates:
ion O   0.390530921487396   0.305670968212730   0.193507789931302 1
ion O   0.147829568505059   0.180166085644454   0.075401781367375 1
ion O   0.097627641909036   0.429183594562101   0.062355753887319 1
ion O   0.161221592620556   0.448386495957206   0.293754420869382 1
ion O   0.328858575203797   0.053735194029163   0.194842432849016 1
ion O   0.355551173657197   0.296003769736024   0.434413038091760 1
ion O   0.406639411334371   0.065469962125045   0.443471608661694 1
ion O   0.101518120437097   0.194338867938251   0.310618329532621 1
ion O   0.389811018846773   0.304274631256048   0.681030533397521 1
ion O   0.150398718543042   0.203502946093081   0.562785587789844 1
ion O   0.087402014448620   0.453545390416676   0.547473001896681 1
ion O   0.146590546796377   0.442921201767447   0.794591656972144 1
ion O   0.335163786394432   0.067534076147428   0.696356242794430 1
ion O   0.351945944444057   0.302969144827447   0.934378009109817 1
ion O   0.405592376495182   0.053978260418258   0.954267723611942 1
ion O   0.115001871819733   0.190007467013595   0.804399833764485 1
ion O   0.410484441922308   0.794770850012667   0.189047204714043 1
ion O   0.134968927470174   0.678826373017215   0.060838710032509 1
ion O   0.095834205509041   0.946837203659233   0.057815526936780 1
ion O   0.148455813804375   0.935170085006041   0.308379925083529 1
ion O   0.325777385942267   0.559741115812857   0.198266706618193 1
ion O   0.364270797047168   0.801810365929844   0.439868704243866 1
ion O   0.398492823136617   0.556611289295645   0.465928149960652 1
ion O   0.084996574249677   0.688008508499348   0.305875027944516 1
ion O   0.389226455282793   0.807752767652095   0.692162390723736 1
ion O   0.142823109267462   0.704755748082243   0.557666450775927 1
ion O   0.078972750972122   0.941485979186605   0.541805660086351 1
ion O   0.162675265626835   0.936442983124897   0.779313021258213 1
ion O   0.343697089257258   0.549867461084326   0.707536093982950 1
ion O   0.353462313029552   0.802203225435943   0.937509144756277 1
ion O   0.404334163041230   0.542577032002843   0.957954973294719 1
ion O   0.093823467424095   0.684227095657933   0.816499350580179 1
ion O   0.891154557672184   0.306687569631302   0.182924615465139 1
ion O   0.637047354707574   0.201124823808583   0.060741188157172 1
ion O   0.574564330785304   0.442750407442509   0.047219398351449 1
ion O   0.657562098069537   0.440382727325744   0.294192344511181 1
ion O   0.859431026790039   0.037450268043835   0.222357750445286 1
ion O   0.852919628343167   0.314404493966724   0.429631835613625 1
ion O   0.909300989992025   0.061958395194050   0.452346116116715 1
ion O   0.603287726215619   0.194375895669773   0.300228244589428 1
ion O   0.896922138148889   0.310150863746763   0.692951794861539 1
ion O   0.658826498460140   0.184412985263482   0.551115977224723 1
ion O   0.602339024113028   0.447256192294206   0.527933341578718 1
ion O   0.659992453636686   0.434386431430773   0.790417789424542 1
ion O   0.852939505560557   0.057888756430957   0.693772775455386 1
ion O   0.840513335299437   0.318243214433305   0.933795210793912 1
ion O   0.915612212688585   0.049967842338731   0.948442101939760 1
ion O   0.603207480085641   0.191103878056079   0.806955544773994 1
ion O   0.888137384123944   0.793553615688971   0.198276067352114 1
ion O   0.652935860868777   0.698402129056154   0.048453133737544 1
ion O   0.588687941956246   0.944969020188017   0.044781629460533 1
ion O   0.654144070186966   0.938186114408630   0.281806949068685 1
ion O   0.842307985074337   0.553161317372366   0.213612241830588 1
ion O   0.848438807700210   0.793892281219243   0.432509403953765 1
ion O   0.899208290821351   0.543079608277819   0.457139910261546 1
ion O   0.595917908012624   0.693966464187507   0.313594623724157 1
ion O   0.912445738295586   0.795112118446696   0.686182183949842 1
ion O   0.655437875807600   0.682932227482272   0.563193704621977 1
ion O   0.587698913868767   0.943745076866906   0.542561260445702 1
ion O   0.667735320267585   0.953301808651305   0.787155137783236 1
ion O   0.846749136560548   0.559975683539098   0.690944089125747 1
ion O   0.852196786364815   0.802243852655091   0.931980882692280 1
ion O   0.902948972466879   0.558284959769086   0.961192056488642 1
ion O   0.611274979391569   0.692234441144832   0.816248673355356 1
ion Tc   0.264061227909012   0.364210508215922   0.116394633226579 1
ion Tc   0.491833419226745   0.136957229084459   0.147653349710467 1
ion Tc   0.001374688277435   0.378048760414123   0.359853829837689 1
ion Tc   0.264384403364831   0.135134232016636   0.374528666647722 1
ion Tc   0.249700812093143   0.373705249339612   0.613752930825540 1
ion Tc   0.489004689769619   0.123434574676026   0.635193781957043 1
ion Tc   0.009118738242922   0.368279466680884   0.858206326401045 1
ion Tc   0.249058734453433   0.131876500572158   0.889042466933667 1
ion Tc   0.221123622557446   0.863800995687668   0.113066097961341 1
ion Tc   0.499854309060034   0.618355508893293   0.149169598123545 1
ion Tc  -0.002891937582757   0.873678962773373   0.367841764933382 1
ion Tc   0.248349211081435   0.637656477335359   0.387857518800953 1
ion Tc   0.247751618343677   0.871042543728528   0.606074744663379 1
ion Tc   0.487561225619471   0.627509642001155   0.642689619848400 1
ion Tc   0.008432077818442   0.865406221833186   0.857740178831099 1
ion Tc   0.254583115058760   0.635005252382850   0.895667910743872 1
ion Tc   0.743473089957568   0.362978525350898   0.115077074537830 1
ion Tc   0.996078202563132   0.132937178824120   0.148242936497958 1
ion Tc   0.501847645168511   0.384194297462361   0.356605737579075 1
ion Tc   0.751770107419930   0.139037430996720   0.381000816087698 1
ion Tc   0.751063964312422   0.382054668300681   0.611590066949725 1
ion Tc   0.996950794520054   0.130490962204345   0.631436281112632 1
ion Tc   0.521494393146012   0.372902758147042   0.866811887896862 1
ion Tc   0.751304912975519   0.137045445665647   0.896643828917859 1
ion Tc   0.749452139685957   0.863330177634803   0.113472345108198 1
ion Tc   0.984169265039514   0.626041404314945   0.158121180167144 1
ion Tc   0.504483514277559   0.884608828842404   0.354794064905131 1
ion Tc   0.747051067900998   0.618390372731017   0.388472496645983 1
ion Tc   0.747372607597551   0.879170513472216   0.602892925365819 1
ion Tc   0.996619895506707   0.620846912317420   0.648023002442049 1
ion Tc   0.503234658799311   0.846950323181602   0.862493831913467 1
ion Tc   0.759048587573692   0.611736471283045   0.880205341752793 1

# Forces in Lattice coordinates:
force O   0.471052067063910  -0.116777035219738   0.086463602837637 1
force O   0.759548845008969   0.995977015625275  -1.123549903960604 1
force O  -0.592833070333908   0.758137341949767  -0.854941182503195 1
force O  -0.210338803864394  -0.153494213543544   0.451746458159013 1
force O   0.476280399297727  -0.149138437585793  -0.325134742298891 1
force O   0.772068660637340   1.817099329113143  -0.754902752837391 1
force O   0.215949587609583  -0.498604346831742   0.248125180996714 1
force O   0.137681436881861   0.086721781935184   0.383068671643299 1
force O   0.747976465194505  -0.434198891067148   0.631453141523054 1
force O  -0.122296060063943  -0.253998161580963  -0.200715165162962 1
force O   0.677444140346898  -0.764794312865880   0.096694900663176 1
force O   0.565493639022789   0.489624880498847  -0.209203512241942 1
force O  -0.189538828950585  -0.805027153082529   0.518644787725182 1
force O   0.126937410529674  -0.093534976270628   0.248102383486480 1
force O  -0.011606241723402  -0.218337755468922   0.089428069485461 1
force O  -0.728030302558249   0.363592830023995  -0.096952944326619 1
force O  -0.919214037226017   0.672408208876439  -0.844793387779253 1
force O   0.317944968640195   0.517144205198774  -0.037183636586651 1
force O  -0.863080272169739   0.479876286259964  -0.749699110344583 1
force O   0.521536094614136   0.709280627714441  -1.017894513942657 1
force O   0.599293533538710  -0.221216471213208   0.162500865808120 1
force O  -0.055580755893578   0.601655511361733  -0.499077553671713 1
force O  -0.298082728808539   0.440389129151995  -0.712305977640370 1
force O   1.613650385589529  -0.522424388877868   2.110087433846684 1
force O   0.459244544796559  -0.442105896925809   0.237778948448163 1
force O  -0.193364316265034  -0.748507640611029   0.493733661965626 1
force O   0.749555958735014  -0.119227597689028   0.646936002513798 1
force O  -0.505003800596288   0.064561563256069   0.933253438373528 1
force O   0.095612639272767   0.442001934637105   0.042640751665371 1
force O  -0.416222344314930  -0.261173540962918   0.433776833711016 1
force O   0.038403263792003   0.527497518358484  -0.245143066133874 1
force O   0.583904259534603  -0.036821107914745   0.342923565295493 1
force O   0.528936373725030  -0.565509436883094   0.568453946774314 1
force O  -0.300236208506773  -0.802733698219673   0.479259550486797 1
force O   1.124493029083145  -0.832906547853585   0.827208238921849 1
force O  -0.204413968961104   0.077614904573621  -0.180884214976480 1
force O   0.224138814317032   0.705985197998568  -1.135154324983260 1
force O  -0.249252641326846  -0.502233798524412   0.430043553937708 1
force O  -0.194628618648482  -0.102206960330638   0.040790192395232 1
force O   0.462894996260911  -0.098242263782522   0.731344182926916 1
force O  -0.048457496927867   0.331550441798841  -0.474672308580969 1
force O  -0.328585761970884   0.302079102341674   0.141009659885123 1
force O  -0.004408629658854  -0.254796674787625   0.921120725667162 1
force O  -0.059081929733793   0.213634942692356   0.063431384802776 1
force O  -0.462531004548130  -0.396948630159264   0.514459937572729 1
force O   0.022064627107220  -0.615556309020153   0.553306855709367 1
force O  -0.235502197699193   0.193345828616251   0.129279101993251 1
force O   0.129258002132962  -0.203507814737739   0.214661853900044 1
force O  -0.433432532837540   0.704751735740294  -0.761671833524942 1
force O  -0.804265894186242  -1.464292552781643   1.065462103922109 1
force O   0.413358187336368  -0.115234511300949   0.302378748957048 1
force O  -0.061430884685229   0.411403623929664   0.444222244456252 1
force O  -0.457977660800564  -0.465907323057541   0.024014284568818 1
force O   0.049419033212756   0.281179663680971  -0.051708941855414 1
force O  -0.059038542916303   0.834993679439783  -0.376498721290552 1
force O   0.626914077088214  -0.330764800401550   0.604464663356366 1
force O  -0.550401978232042   0.835305226875850  -0.591525284102476 1
force O  -0.363525707661373   0.468371733764103   0.087473406151908 1
force O   0.307791578997290   0.094268784838205   0.196020766545258 1
force O  -0.239477879941377  -0.427243409938468   0.504922015330065 1
force O  -0.830415041538894  -1.015364311742456   1.053606197649402 1
force O   0.120302786307214  -0.087876153678854   0.291224246980399 1
force O   0.254954423451497  -0.574090068017247   0.111910790179597 1
force O   0.042630690257255  -0.647883201968129  -0.111449154362883 1
force Tc  -1.890472559926393   0.285645396589070  -1.234084674379680 1
force Tc  -0.195459321134544  -0.295405366415972  -1.375017113035308 1
force Tc   0.279474938905725  -0.767712073611384  -0.191663901559798 1
force Tc  -1.662933856068732  -1.150936393526248   1.551537535225106 1
force Tc  -0.367168946217368  -0.786710429289810   0.043000827268851 1
force Tc   0.606003771517085   1.389290301325428  -0.722388881981101 1
force Tc  -0.343254986059980  -0.699602905557420   0.906592068514657 1
force Tc   0.462769306232686  -0.309224900280779   0.462865048348770 1
force Tc   1.480760654759979  -1.109260267284814   0.938703605037477 1
force Tc  -0.762490314566425   1.708061910876331  -1.223121937851090 1
force Tc  -0.597177296254423  -0.542948327582479  -0.330602128458869 1
force Tc  -0.058411463245830   0.015163163938340   0.259710239889524 1
force Tc   0.110468703932700  -0.209807286359371  -0.206995321528285 1
force Tc   0.842137241958308   0.746681134650200  -0.442899030419354 1
force Tc  -0.302852332762030  -0.136996923456205   0.152300779367852 1
force Tc  -0.524933769358231  -1.002692716914657   0.572019062008782 1
force Tc   0.376265706208073   1.013179753574786  -1.380270559066356 1
force Tc  -0.266635333718203   0.164443880144794  -0.602391165437446 1
force Tc  -0.141096524769750  -1.827431626545565   1.510876911732375 1
force Tc  -0.144928291730712  -0.065164153217205   0.830863272545781 1
force Tc  -0.225955763237198  -1.144870903133502  -0.260140181241936 1
force Tc   0.489134462884040   0.768694662358125   0.153848611632375 1
force Tc  -1.701736780873620  -0.435924197235820  -1.265822684884509 1
force Tc   0.279970569409559   0.273849697717606  -0.948369467689463 1
force Tc   0.557300594442621   0.483037579884956  -1.063791807657432 1
force Tc   0.200129605037773   0.358938920300776  -2.620463639113664 1
force Tc  -0.034349464902868  -1.482380772093255   1.164327987613881 1
force Tc   0.126630526844171   1.099790667570745   0.438918768528166 1
force Tc  -0.066013020695421  -1.383860380470010   0.928463459843682 1
force Tc   0.694757429072021   2.389322406675771  -1.698423875283408 1
force Tc  -0.428403894636947   2.185066577473742  -1.015528747736092 1
force Tc   0.147606227822633   1.378285196789594  -0.355118518934299 1

# Energy components:
   Eewald =    -2781.4253198353362677
       EH =      800.8976695905683982
     Eloc =    -2976.2548893020430114
      Enl =      709.1293802204015719
      Exc =     -739.7471811084301407
 Exc_core =      200.5492882272752695
       KE =     1169.2534546353936094
-------------------------------------
     Etot =    -3617.5975975721694340
       TS =        0.4670005520847068
-------------------------------------
        F =    -3618.0645981242541893

IonicMinimize: Iter:   2  F: -3618.064598124254189  |grad|_K:  3.387e-02  alpha:  2.894e-01  linmin: -9.839e-01  t[s]:  17041.22

#--- Lowdin population analysis ---
# oxidation-state O -0.112 -0.193 -0.300 -0.250 -0.204 -0.173 -0.207 -0.186 -0.199 -0.217 -0.230 -0.210 -0.198 -0.213 -0.301 -0.169 -0.198 -0.220 -0.172 -0.236 -0.210 -0.218 -0.209 -0.117 -0.199 -0.214 -0.220 -0.226 -0.206 -0.136 -0.268 -0.170 -0.155 -0.160 -0.170 -0.165 -0.244 -0.183 -0.233 -0.152 -0.189 -0.244 -0.230 -0.162 -0.216 -0.228 -0.262 -0.182 -0.176 -0.185 -0.264 -0.186 -0.200 -0.200 -0.219 -0.186 -0.193 -0.227 -0.202 -0.257 -0.126 -0.237 -0.243 -0.169
# oxidation-state Tc +0.473 +0.449 +0.458 +0.478 +0.458 +0.464 +0.475 +0.467 +0.454 +0.478 +0.484 +0.447 +0.470 +0.443 +0.464 +0.449 +0.416 +0.452 +0.419 +0.467 +0.407 +0.481 +0.480 +0.482 +0.480 +0.505 +0.458 +0.437 +0.488 +0.515 +0.498 +0.437


-------- Electronic minimization -----------
Will mix electronic density at each iteration.
	FillingsUpdate:  mu: +0.513196403  nElectrons: 864.000000
	FillingsUpdate:  mu: +0.510975321  nElectrons: 864.000000
SCF: Cycle:  0   F: -3586.888530971847558   dF: +2.798e+01   |Residual|: 2.084e+00   |deigs|: 7.329e-03  t[s]:  17435.28
	FillingsUpdate:  mu: +0.505390456  nElectrons: 864.000000
[...]
force Tc   0.003112915203429   0.000687544268994   0.001855308522095 1
force Tc   0.003696171117742   0.002935282761292  -0.000957308359686 1
force Tc   0.002270851507287  -0.001429450140362  -0.000416130654371 1
force Tc  -0.003863158784481   0.007390137461012  -0.003704737114157 1
force Tc   0.001650775324718   0.000021790932568   0.002114781814205 1
force Tc   0.001995450097469  -0.001603450201937   0.003337473054339 1
force Tc  -0.000551797609970   0.001960185319669  -0.002350121605831 1
force Tc  -0.000303861841863   0.002165334482396  -0.000653897784006 1
force Tc   0.002692185390481  -0.002486388333004   0.001712552852415 1
force Tc   0.001547278817769  -0.003281430448372   0.002199224246537 1
force Tc   0.003831131546893   0.001213591349559  -0.002839035835431 1
force Tc  -0.001934403347104   0.000293867690581   0.001142498129633 1
force Tc   0.002376680935088  -0.002762970123122   0.001929085768522 1

# Energy components:
   Eewald =    -2790.6978625410656605
       EH =      791.1685402198490920
     Eloc =    -2955.2922330463220533
      Enl =      708.0815004193156028
      Exc =     -739.2459331916244309
 Exc_core =      200.5479769910901950
       KE =     1167.1686992929594453
-------------------------------------
     Etot =    -3618.2693118557976959
       TS =        0.4237939884329538
-------------------------------------
        F =    -3618.6931058442305584

IonicMinimize: Iter:  22  F: -3618.693105844230558  |grad|_K:  1.145e-04  alpha:  1.000e+00  linmin: -5.872e-01  t[s]:  91888.89

#--- Lowdin population analysis ---
# oxidation-state O -0.173 -0.173 -0.245 -0.245 -0.245 -0.173 -0.245 -0.173 -0.173 -0.173 -0.245 -0.245 -0.245 -0.173 -0.245 -0.173 -0.173 -0.173 -0.245 -0.245 -0.245 -0.173 -0.245 -0.173 -0.173 -0.173 -0.245 -0.245 -0.245 -0.173 -0.245 -0.173 -0.173 -0.173 -0.245 -0.245 -0.245 -0.173 -0.245 -0.173 -0.173 -0.173 -0.245 -0.245 -0.245 -0.173 -0.245 -0.173 -0.173 -0.173 -0.245 -0.245 -0.245 -0.173 -0.245 -0.173 -0.173 -0.173 -0.245 -0.245 -0.245 -0.173 -0.245 -0.173
# oxidation-state Tc +0.472 +0.472 +0.472 +0.472 +0.472 +0.472 +0.472 +0.472 +0.472 +0.472 +0.472 +0.472 +0.472 +0.472 +0.472 +0.472 +0.472 +0.472 +0.472 +0.472 +0.472 +0.472 +0.472 +0.472 +0.472 +0.472 +0.472 +0.472 +0.472 +0.472 +0.472 +0.472


-------- Electronic minimization -----------
Will mix electronic density at each iteration.
	FillingsUpdate:  mu: +0.509407575  nElectrons: 864.000000
	FillingsUpdate:  mu: +0.509411639  nElectrons: 864.000000
SCF: Cycle:  0   F: -3618.693069462146923   dF: +3.004e-05   |Residual|: 2.433e-03   |deigs|: 2.143e-07  t[s]:  92175.13
	FillingsUpdate:  mu: +0.509410887  nElectrons: 864.000000
SCF: Cycle:  1   F: -3618.692880457946558   dF: +1.890e-04   |Residual|: 5.625e-03   |deigs|: 2.157e-05  t[s]:  92340.00
	FillingsUpdate:  mu: +0.509410893  nElectrons: 864.000000
SCF: Cycle:  2   F: -3618.693111398486053   dF: -2.309e-04   |Residual|: 1.015e-03   |deigs|: 2.487e-05  t[s]:  92507.26
	FillingsUpdate:  mu: +0.509410865  nElectrons: 864.000000
SCF: Cycle:  3   F: -3618.693115214962290   dF: -3.816e-06   |Residual|: 3.675e-04   |deigs|: 1.674e-06  t[s]:  92673.99
	FillingsUpdate:  mu: +0.509410747  nElectrons: 864.000000
SCF: Cycle:  4   F: -3618.693113566176180   dF: +1.649e-06   |Residual|: 5.950e-04   |deigs|: 1.292e-06  t[s]:  92841.59
	FillingsUpdate:  mu: +0.509410682  nElectrons: 864.000000
SCF: Cycle:  5   F: -3618.693115749867957   dF: -2.184e-06   |Residual|: 6.351e-05   |deigs|: 1.314e-06  t[s]:  93009.23
	FillingsUpdate:  mu: +0.509410707  nElectrons: 864.000000
SCF: Cycle:  6   F: -3618.693115745261366   dF: +4.607e-09   |Residual|: 5.952e-05   |deigs|: 2.457e-07  t[s]:  93175.97
	FillingsUpdate:  mu: +0.509410718  nElectrons: 864.000000
SCF: Cycle:  7   F: -3618.693115746023977   dF: -7.626e-10   |Residual|: 5.076e-05   |deigs|: 2.193e-07  t[s]:  93343.65
	FillingsUpdate:  mu: +0.509410725  nElectrons: 864.000000
SCF: Cycle:  8   F: -3618.693115758750992   dF: -1.273e-08   |Residual|: 9.855e-06   |deigs|: 2.670e-07  t[s]:  93511.97
	FillingsUpdate:  mu: +0.509410722  nElectrons: 864.000000
SCF: Cycle:  9   F: -3618.693115758315798   dF: +4.352e-10   |Residual|: 1.192e-05   |deigs|: 2.464e-07  t[s]:  93679.17
	FillingsUpdate:  mu: +0.509410721  nElectrons: 864.000000
SCF: Cycle: 10   F: -3618.693115759172997   dF: -8.572e-10   |Residual|: 3.948e-06   |deigs|: 1.966e-07  t[s]:  93805.00
	FillingsUpdate:  mu: +0.509410722  nElectrons: 864.000000
SCF: Cycle: 11   F: -3618.693115759002012   dF: +1.710e-10   |Residual|: 2.238e-06   |deigs|: 1.623e-07  t[s]:  93918.09
	FillingsUpdate:  mu: +0.509410722  nElectrons: 864.000000
SCF: Cycle: 12   F: -3618.693115759195734   dF: -1.937e-10   |Residual|: 1.971e-06   |deigs|: 1.527e-07  t[s]:  94022.18
	FillingsUpdate:  mu: +0.509410722  nElectrons: 864.000000
SCF: Cycle: 13   F: -3618.693115759301236   dF: -1.055e-10   |Residual|: 5.960e-07   |deigs|: 1.506e-07  t[s]:  94125.74
SCF: Converged (|Delta E|<1.000000e-08 for 2 iters).

Setting wave functions to eigenvectors of Hamiltonian

# Ionic positions in lattice coordinates:
ion O   0.393269281978781   0.303310392805248   0.187440587997946 1
ion O   0.143456031830981   0.193761881780088   0.061520992033883 1
ion O   0.095272760383046   0.445086637462456   0.044250152088211 1
ion O   0.152810296021255   0.445085025315576   0.294184542702018 1
ion O   0.345051754773377   0.052092211470543   0.204354444386384 1
ion O   0.354972495380317   0.303108851907461   0.437301680846733 1
ion O   0.402978634988108   0.051920811035112   0.454392441082317 1
ion O   0.104771535549451   0.193742697646504   0.311561176154037 1
ion O   0.393195446292503   0.303155455540974   0.687417658379816 1
ion O   0.143367339997757   0.193717714764439   0.561439405288613 1
ion O   0.095179942103345   0.445035455341946   0.544330733790411 1
ion O   0.153015208959811   0.445196979037028   0.794324174216229 1
ion O   0.345157947417713   0.051917445254548   0.704434199347202 1
ion O   0.354981957736751   0.303204487577360   0.937308620277036 1
ion O   0.403117939032988   0.052074533712361   0.954417626712429 1
ion O   0.104900200470065   0.193842318594341   0.811526768774163 1
ion O   0.393475740977942   0.803377644354538   0.187088609823266 1
ion O   0.143397231704556   0.693897243908745   0.061412861685134 1
ion O   0.095124135785219   0.945023486766251   0.044173676922952 1
ion O   0.152943098498943   0.945112032578777   0.294147736146599 1
ion O   0.345163986113627   0.552041554981837   0.204324900262399 1
ion O   0.354777347651400   0.803226714056074   0.437052506263773 1
ion O   0.402919967825590   0.551920730924170   0.454406330960605 1
ion O   0.104854641905010   0.693787050759609   0.311392244706141 1
ion O   0.393306230563019   0.803218039849371   0.687183451780724 1
ion O   0.143223674210323   0.693751026991475   0.561268943472718 1
ion O   0.095186083885195   0.945032550497499   0.544206764447915 1
ion O   0.153016843399974   0.945111117969659   0.794134296771836 1
ion O   0.345201858993616   0.551982272474310   0.704418760630883 1
ion O   0.354765343642892   0.803426423924749   0.937088661100326 1
ion O   0.402991547099325   0.551961528423681   0.954402464521398 1
ion O   0.104951116305736   0.693900636470087   0.811358338931739 1
ion O   0.893184235206338   0.303141241056389   0.187341897017201 1
ion O   0.643269809348886   0.193939281269774   0.061399032747270 1
ion O   0.595276575788314   0.445169859140089   0.044247253511732 1
ion O   0.652932636738213   0.445126864906899   0.294278106817672 1
ion O   0.845128873974794   0.051988174047093   0.204391981505703 1
ion O   0.854898593860610   0.303098879861725   0.437289095620139 1
ion O   0.902886146279408   0.051941044220804   0.454585729217223 1
ion O   0.604916062954919   0.193727152396592   0.311418463275272 1
ion O   0.893355008200228   0.303224395291208   0.687303506756342 1
ion O   0.643257198273908   0.193674504119302   0.561412355622710 1
ion O   0.595056487012789   0.444960118865241   0.544375066391541 1
ion O   0.652962212835970   0.445064097560274   0.794219637660143 1
ion O   0.845212224949907   0.052024752345495   0.704462685725141 1
ion O   0.854877371181052   0.303369672905353   0.937256016177869 1
ion O   0.903159979659503   0.052106465451612   0.954430900289741 1
ion O   0.604839681198904   0.193687749577197   0.811447084463856 1
ion O   0.893295333761807   0.803229339171176   0.187207158367357 1
ion O   0.643212272257042   0.693943447755666   0.061289430489479 1
ion O   0.595242190349460   0.945187338442512   0.044170585383116 1
ion O   0.653063118544418   0.945011144925158   0.294187467679982 1
ion O   0.845209377725803   0.552027353314913   0.204383979881383 1
ion O   0.854863079395086   0.803238279443797   0.437142074624682 1
ion O   0.902784115480166   0.551801412380635   0.454428100428480 1
ion O   0.604871628499364   0.693824345735549   0.311391827323565 1
ion O   0.893425101754177   0.803264168742072   0.687106714909887 1
ion O   0.643208547873247   0.693882179133266   0.561341200055532 1
ion O   0.595048095490654   0.944979376661336   0.544244730494520 1
ion O   0.653151578429454   0.945073720930093   0.794229032414583 1
ion O   0.845048660408422   0.551961482250879   0.704306356148708 1
ion O   0.854757622137595   0.803371941024064   0.937064284086573 1
ion O   0.903032350487744   0.552085288974112   0.954424688963387 1
ion O   0.604813190326133   0.693847859185177   0.811418132060112 1
ion Tc   0.247260426873390   0.365925335836372   0.109342443295246 1
ion Tc   0.497250401435488   0.131218021948692   0.139439156847978 1
ion Tc   0.001059892473407   0.365873299844123   0.359350119748641 1
ion Tc   0.251108546767785   0.131092323105398   0.389427070881625 1
ion Tc   0.247256648192587   0.365883581171346   0.609349794549454 1
ion Tc   0.497139422397051   0.131043072592090   0.639425006314671 1
ion Tc   0.001175899182495   0.366017135758823   0.859355005491594 1
ion Tc   0.251142014867046   0.131122866247764   0.889448352012916 1
ion Tc   0.247230865459543   0.866005210446850   0.109191247380787 1
ion Tc   0.497219558084864   0.631214291321534   0.139342272171345 1
ion Tc   0.001114528766560   0.865962006790071   0.359271342852208 1
ion Tc   0.251079578764333   0.631077921641196   0.389317289599797 1
ion Tc   0.247208098808214   0.865853061510050   0.609189003359569 1
ion Tc   0.497179113761681   0.631146277733602   0.639383341278334 1
ion Tc   0.001146102012475   0.866001987399137   0.859206302634603 1
ion Tc   0.251152639470480   0.631224768284301   0.889393324067858 1
ion Tc   0.747253438548673   0.365991074176217   0.109324470081919 1
ion Tc   0.997223436196637   0.131128163614337   0.139450601837651 1
ion Tc   0.501137966688238   0.365901618144886   0.359382131236152 1
ion Tc   0.751097453390784   0.131027371100148   0.389433391529185 1
ion Tc   0.747182921209826   0.365788774852166   0.609301717113674 1
ion Tc   0.997262219593053   0.131132125758414   0.639482093075407 1
ion Tc   0.501131811517854   0.365908621146471   0.859341689310084 1
ion Tc   0.751168625273750   0.131180309093673   0.889437545700306 1
ion Tc   0.747238216649450   0.865955591133446   0.109193915353597 1
ion Tc   0.997265857302190   0.631188351223461   0.139388295446719 1
ion Tc   0.501114915138876   0.865944781857490   0.359221855702827 1
ion Tc   0.751083224977493   0.631134650322785   0.389379316207182 1
ion Tc   0.747241974301370   0.865930036582683   0.609228821865993 1
ion Tc   0.997175074554976   0.631100147774644   0.639360690151015 1
ion Tc   0.501150452514576   0.866030629138454   0.859235663485094 1
ion Tc   0.751091692961929   0.631180707187107   0.889336400799829 1

# Forces in Lattice coordinates:
force O   0.002196426491772  -0.000249224840669  -0.001207216070500 1
force O  -0.000779411718484   0.002935272906935  -0.002169426088319 1
force O   0.001588761720057   0.000680098185536   0.001337592652215 1
force O   0.002980696587223  -0.000586197618213   0.002636324904314 1
force O   0.005000116698108  -0.001396654977837   0.001644642932205 1
force O   0.001757513335048   0.004267395573932  -0.001179324075747 1
force O   0.001455441686199  -0.000813814789813   0.002519930884767 1
force O   0.004566732184325   0.002060914956180  -0.002249906933156 1
force O   0.002989245112375   0.000914449946321  -0.002168961913723 1
force O   0.000990990169336   0.003503004738620  -0.000785954873807 1
force O   0.002125005817140   0.000675930463237  -0.001787739307488 1
force O   0.001038913228777  -0.000083678514645  -0.001485427860488 1
force O   0.000949840571964   0.000369153052598  -0.000521509266596 1
force O   0.001247452120474   0.000834945932468   0.001201009800692 1
force O   0.000008897893264  -0.002221331780150   0.002282211208691 1
force O   0.003066791232386   0.000377791404163   0.000258974297549 1
force O  -0.000474103775160  -0.003709600073616   0.005957334890704 1
force O   0.000103342867580  -0.000303027713441  -0.000345309090145 1
force O   0.002192101551539   0.001887787792132   0.000694904086434 1
force O   0.002086626479389  -0.001515806818036   0.001660453037976 1
force O   0.002591417473954  -0.002322036056514   0.002516176726675 1
force O   0.002871524878955  -0.002130210997853   0.004007189454242 1
force O   0.001603891160789  -0.001610585742680   0.001752846463036 1
force O   0.003405957676309   0.001048015442228   0.000490308981899 1
force O   0.001686573989455  -0.000283812218258   0.001460872488428 1
force O   0.002477341729659   0.000617073008740   0.001189996839297 1
force O   0.001653912882159   0.000512704851801   0.000661753196919 1
force O   0.001294599819049  -0.001082330641952   0.002462564505278 1
force O   0.002077718823112  -0.000850752754219  -0.000020737044188 1
force O   0.004327308907263  -0.003888389932598   0.004352681945818 1
force O   0.000865792015836   0.001216618019253  -0.000142207421695 1
force O   0.000632817066750  -0.003042484670184   0.002399233753259 1
force O   0.003802014864982   0.002439252365672  -0.000364966331465 1
force O   0.001724236264518  -0.001652271230523   0.002108285604412 1
force O   0.001880806264118  -0.000953192127373   0.001756344086701 1
force O   0.001047105431824  -0.000133319463836  -0.000151106932932 1
force O   0.003836541886986  -0.001598522148713   0.002010730896595 1
force O   0.002203673961050   0.002460248426182  -0.000566472529733 1
force O   0.004060651293349   0.000366946849757  -0.002471281285129 1
force O   0.002445868680665   0.000919834381260   0.001430995116000 1
force O   0.001309693310409  -0.000743256443943   0.001747667594062 1
force O   0.001927564836655   0.002964869234287  -0.000714088360170 1
force O   0.004929523725149   0.004286116262357  -0.003472011633291 1
force O   0.001492905633851   0.000926371099752   0.001212077017633 1
force O   0.001248401838051  -0.001802435090387   0.000401755180850 1
force O   0.002197957968809  -0.002869322169381   0.002780139059014 1
force O  -0.000922451870264  -0.002561629163865   0.001977755379158 1
force O   0.002485860595774   0.003896482283770  -0.001426932397527 1
force O   0.002192466055758   0.000477878343069   0.000607817421621 1
force O   0.003279379342373  -0.002903979000085   0.002445078432034 1
force O   0.001361510834174  -0.002364650260092   0.003152885116278 1
force O  -0.000496489093273   0.001813144636488  -0.000275480615965 1
force O   0.002754354128230  -0.001940043336769   0.002016717169370 1
force O   0.001957741509133  -0.001681020731893   0.002763303962234 1
force O   0.003695272450953   0.003572549499451  -0.000071464138783 1
force O   0.002636929792587   0.000018000451565  -0.000854088124234 1
force O  -0.000061914879596  -0.002693017341564   0.004000474827069 1
force O   0.002666919531816  -0.002828349116970   0.002272915862800 1
force O   0.004383534541798   0.001323374591672  -0.000536813793567 1
force O  -0.000173895969386   0.001948420684807  -0.000875797980911 1
force O   0.004459962056989  -0.001551971952644   0.002886893765440 1
force O   0.004104478114374  -0.003713167755325   0.003735320189755 1
force O   0.000739278167525  -0.001485203589154   0.000221245064159 1
force O   0.003312487010324  -0.000671428177387   0.000105295701402 1
force Tc   0.001660768756505  -0.000067462835648  -0.000618945145977 1
force Tc   0.001507442235160  -0.001098823451519   0.000702735315703 1
force Tc   0.003201100949402   0.000026420241054   0.000854487310743 1
force Tc   0.001436220373880  -0.000363928135991   0.000665653809953 1
force Tc   0.001523087638606   0.000103657675822   0.000063920639221 1
force Tc   0.004436061740223   0.000662282051906   0.002764109696605 1
force Tc   0.000773998641276  -0.000464906870293  -0.000240261300312 1
force Tc   0.002184730374871   0.001104528487701   0.001044962512480 1
force Tc   0.002286174520551  -0.002048502443169   0.003803926389876 1
force Tc   0.002769913640451  -0.001451551863803   0.002796161278930 1
force Tc   0.002625862564833  -0.001514883907124   0.000808005983782 1
force Tc   0.003395728795069   0.001041947247125   0.001724330863322 1
force Tc   0.002749756459435   0.000297197880890  -0.000187709702272 1
force Tc   0.003278797576376  -0.001385799465426   0.001568752611918 1
force Tc   0.001753990449630  -0.002344198035514   0.002233886184990 1
force Tc   0.000939429778847  -0.001350537059979   0.000516264967559 1
force Tc   0.002186783018952  -0.000843114176936   0.000183135416354 1
force Tc   0.002038627117419   0.000513123405208   0.001400952059266 1
force Tc   0.001785708381182   0.001640954030918  -0.000510408712469 1
force Tc   0.003071280550491   0.001121081052403   0.000111392582473 1
force Tc   0.003370996553365   0.002848305552444   0.000129633890237 1
force Tc   0.001186627771272   0.001115173463893   0.000342144565286 1
force Tc   0.003302774640769  -0.000477517818344   0.000430936443267 1
force Tc   0.001644174070454   0.000390279447947   0.000446263896827 1
force Tc   0.002498893941796  -0.000868853435617   0.001416633807129 1
force Tc   0.000919656951905  -0.000058960937732  -0.000088776690643 1
force Tc   0.002599940486608  -0.002525786422678   0.001972203405090 1
force Tc   0.002652525595902  -0.000204873658965   0.000357220847303 1
force Tc   0.002309496227910  -0.000837971061141   0.001386408954258 1
force Tc   0.003170614480903   0.000459544714146   0.000863657891112 1
force Tc   0.003018791966983  -0.002461753919321   0.002357713023020 1
force Tc   0.002923124582521  -0.001384153386588   0.001615474491706 1

# Energy components:
   Eewald =    -2790.6852819147043192
       EH =      791.1814378513960264
     Eloc =    -2955.3194163678344921
      Enl =      708.0819342460137022
      Exc =     -739.2466191875878394
 Exc_core =      200.5479782831823172
       KE =     1167.1706348765630992
-------------------------------------
     Etot =    -3618.2693322129716762
       TS =        0.4237835463294845
-------------------------------------
        F =    -3618.6931157593012358

IonicMinimize: Iter:  23  F: -3618.693115759301236  |grad|_K:  7.444e-05  alpha:  1.000e+00  linmin: -3.115e-01  t[s]:  94176.15
IonicMinimize: Converged (|grad|_K<1.000000e-04).

#--- Lowdin population analysis ---
# oxidation-state O -0.173 -0.173 -0.245 -0.245 -0.245 -0.173 -0.245 -0.173 -0.173 -0.173 -0.245 -0.245 -0.245 -0.173 -0.245 -0.173 -0.173 -0.173 -0.245 -0.245 -0.245 -0.173 -0.245 -0.173 -0.173 -0.173 -0.245 -0.245 -0.245 -0.173 -0.245 -0.173 -0.173 -0.173 -0.245 -0.245 -0.245 -0.173 -0.245 -0.173 -0.173 -0.173 -0.245 -0.245 -0.245 -0.173 -0.245 -0.173 -0.173 -0.173 -0.245 -0.245 -0.245 -0.173 -0.245 -0.173 -0.173 -0.173 -0.245 -0.245 -0.245 -0.173 -0.245 -0.173
# oxidation-state Tc +0.472 +0.472 +0.472 +0.472 +0.472 +0.472 +0.472 +0.472 +0.472 +0.472 +0.472 +0.472 +0.472 +0.472 +0.472 +0.472 +0.472 +0.472 +0.472 +0.472 +0.472 +0.472 +0.472 +0.472 +0.472 +0.472 +0.472 +0.472 +0.472 +0.472 +0.472 +0.472


Dumping '/data/rc652/TcO2/ion/TcO2_ion.Ecomponents' ... done
End date and time: Tue Jul  2 06:23:20 2024  (Duration: 1-2:10:07.61)
Done!
