--------------------------------------------------------------------------
[[17314,1],0]: A high-performance Open MPI point-to-point messaging module
was unable to find any relevant network interfaces:

Module: OpenFabrics (openib)
  Host: node3224

Another transport will be used instead, although this may result in
lower performance.
--------------------------------------------------------------------------

*************** JDFTx 1.7.0 (git hash 3664913) ***************

Start date and time: Wed Jul  3 15:00:01 2024
Executable jdftx with command-line: -i ReO3_vac.in
Running on hosts (process indices):  node3224.physics.cornell.edu (0-15)
Divided in process groups (process indices):  0 (0)  1 (1)  2 (2)  3 (3)  4 (4)  5 (5)  6 (6)  7 (7)  8 (8)  9 (9)  10 (10)  11 (11)  12 (12)  13 (13)  14 (14)  15 (15)
Resource initialization completed at t[s]:      0.01
Run totals: 16 processes, 32 threads, 0 GPUs


Input parsed successfully to the following command list (including defaults):

basis kpoint-dependent
coords-type Lattice
core-overlap-check vector
coulomb-interaction Periodic
davidson-band-ratio 1.1
dump End Ecomponents
dump-name /data/rc652/ReO3/vac/ReO3_vac.$VAR
elec-cutoff 20 100
elec-eigen-algo Davidson
elec-ex-corr gga-PBEsol
elec-smearing Fermi 0.01
electronic-minimize  \
	dirUpdateScheme      FletcherReeves \
	linminMethod         DirUpdateRecommended \
	nIterations          100 \
	history              15 \
	knormThreshold       0 \
	maxThreshold         no \
	energyDiffThreshold  1e-08 \
	nEnergyDiff          2 \
	alphaTstart          1 \
	alphaTmin            1e-10 \
	updateTestStepSize   yes \
	alphaTreduceFactor   0.1 \
	alphaTincreaseFactor 3 \
	nAlphaAdjustMax      3 \
	wolfeEnergy          0.0001 \
	wolfeGradient        0.9 \
	fdTest               no
electronic-scf  \
	nIterations	50 \
	energyDiffThreshold	1e-08 \
	residualThreshold	1e-07 \
	mixFraction	0.5 \
	qMetric	0.8 \
	history	10 \
	nEigSteps	2 \
	eigDiffThreshold	1e-08 \
	mixedVariable	Density \
	qKerker	0.8 \
	qKappa	-1 \
	verbose	no \
	mixFractionMag	1.5
exchange-regularization WignerSeitzTruncated
fluid None
fluid-ex-corr lda-TF lda-PZ
fluid-gummel-loop 10 1.000000e-05
fluid-minimize  \
	dirUpdateScheme      PolakRibiere \
	linminMethod         DirUpdateRecommended \
	nIterations          100 \
	history              15 \
	knormThreshold       0 \
	maxThreshold         no \
	energyDiffThreshold  0 \
	nEnergyDiff          2 \
	alphaTstart          1 \
	alphaTmin            1e-10 \
	updateTestStepSize   yes \
	alphaTreduceFactor   0.1 \
	alphaTincreaseFactor 3 \
	nAlphaAdjustMax      3 \
	wolfeEnergy          0.0001 \
	wolfeGradient        0.9 \
	fdTest               no
fluid-solvent H2O 55.338 ScalarEOS \
	epsBulk 78.4 \
	pMol 0.92466 \
	epsInf 1.77 \
	Pvap 1.06736e-10 \
	sigmaBulk 4.62e-05 \
	Rvdw 2.61727 \
	Res 1.42 \
	tauNuc 343133 \
	poleEl 15 7 1
forces-output-coords Positions
ion Re   0.259014945823430   0.239839552849467   0.260621126477081 1
ion Re   0.000000000000000   0.000000000000000   0.000000000000000 0
ion Re   0.251801336497657   0.248222923142107   0.748639484145505 1
ion Re  -0.001610284409510  -0.000749971332213   0.500990300014703 1
ion Re   0.250079201133144   0.750306309136002   0.249974267159102 1
ion Re  -0.010698617979478   0.508778093929186  -0.009036454008520 1
ion Re   0.250745788152251   0.749871890352423   0.750070017749111 1
ion Re  -0.001175983240035   0.501431707280899   0.500301265644400 1
ion Re   0.748728636560849   0.247863008439904   0.251910729948444 1
ion Re   0.500697298850564  -0.000442322527000  -0.001744727722396 1
ion Re   0.750008698683163   0.250377410105507   0.749905127495170 1
ion Re   0.503170679471814  -0.004605816946209   0.503314324741489 1
ion Re   0.749656598033027   0.750173946740154   0.250593504597668 1
ion Re   0.500284656876524   0.501208515434376  -0.000974285937758 1
ion Re   0.746641479046463   0.752895519568358   0.746827769601008 1
ion Re   0.500098205094339   0.499800326198278   0.499908689137280 1
ion O   0.120218870561232   0.378885531611077   0.366415981060354 1
ion O   0.369633826903157   0.374911262481771   0.125646281746405 1
ion O   0.121212026571035   0.132775588748757   0.366344968560657 1
ion O   0.371519490721330   0.129361036457724   0.125248971984891 1
ion O   0.369714672844888   0.122500402679537   0.384016987140911 1
ion O   0.127467192981703   0.371973919181007   0.622242714457266 1
ion O   0.123750098877123   0.375310786236312   0.878661815631582 1
ion O   0.374414223938992   0.374953186947760   0.624773554571278 1
ion O   0.125968515942646   0.124404320465310   0.874768540261479 1
ion O   0.378569372397567   0.121353074252925   0.627167570209040 1
ion O   0.373682067916521   0.127321286584912   0.875979640261855 1
ion O   0.124175398020720   0.875186360648585   0.125850494377979 1
ion O   0.125145422925227   0.874670683408280   0.375977134390250 1
ion O   0.374282146218250   0.876434957832098   0.124720451088681 1
ion O   0.125473889574089   0.624248477213916   0.375282697257256 1
ion O   0.375063121970362   0.625524117500365   0.124212096659449 1
ion O   0.376081658104754   0.624809193604250   0.373917957288399 1
ion O   0.125576934210470   0.876924315369738   0.624453535411233 1
ion O   0.125078724135786   0.873466419052780   0.875915143621362 1
ion O   0.377004304790093   0.872146626695610   0.627894150489147 1
ion O   0.124757536773295   0.619181415627667   0.879910023517160 1
ion O   0.373928027634201   0.625199992291748   0.625069946401540 1
ion O   0.373958835953880   0.622828449119317   0.876156958624634 1
ion O   0.625495779322100   0.376691082069810   0.124504519134830 1
ion O   0.625497904565693   0.373238821860133   0.375921981892730 1
ion O   0.882713223976692   0.370581205360581   0.129167906354151 1
ion O   0.622709270431878   0.125325719117684   0.373208111281403 1
ion O   0.874301004333439   0.125484074885391   0.124753866624693 1
ion O   0.872485338783395   0.120938685082722   0.377477276321940 1
ion O   0.624111084969961   0.375484480315141   0.625793985240349 1
ion O   0.624624708066511   0.374405398426438   0.876220743310520 1
ion O   0.874593497375838   0.376081560065521   0.624482243154289 1
ion O   0.625289128501735   0.124447841569697   0.875149825330340 1
ion O   0.875098650947754   0.126026286633599   0.623611222689516 1
ion O   0.875935280324193   0.125039078963619   0.873957905790996 1
ion O   0.627484879159923   0.871944444125784   0.122239265296543 1
ion O   0.621436895805805   0.876511234205900   0.373090670491416 1
ion O   0.874178029446620   0.875085084327159   0.124752713545484 1
ion O   0.626198830882390   0.624010659892297   0.374147601601759 1
ion O   0.884351058903739   0.615444493577751   0.129285088784522 1
ion O   0.872068462052044   0.628707441422388   0.377708324238603 1
ion O   0.630355875876542   0.873379117100973   0.619591913759498 1
ion O   0.621619259786629   0.877282423362068   0.872103001889327 1
ion O   0.875818365990428   0.873062956753415   0.627819291105793 1
ion O   0.623061649176815   0.626817609409768   0.872624707055942 1
ion O   0.877480455337386   0.622973062187334   0.627454806641796 1
ion O   0.865786695311620   0.627201953093876   0.880357140988067 1
ion-species GBRV/$ID_pbesol.uspp
ion-width 0
ionic-minimize  \
	dirUpdateScheme      L-BFGS \
	linminMethod         DirUpdateRecommended \
	nIterations          30 \
	history              15 \
	knormThreshold       0.0001 \
	maxThreshold         no \
	energyDiffThreshold  1e-06 \
	nEnergyDiff          2 \
	alphaTstart          1 \
	alphaTmin            1e-10 \
	updateTestStepSize   yes \
	alphaTreduceFactor   0.1 \
	alphaTincreaseFactor 3 \
	nAlphaAdjustMax      3 \
	wolfeEnergy          0.0001 \
	wolfeGradient        0.9 \
	fdTest               no
kpoint   0.500000000000   0.500000000000   0.500000000000  1.00000000000000
kpoint-folding 3 3 3 
latt-move-scale 1 1 1
latt-scale 1 1 1 
lattice  \
	  17.374615711169973   17.374615711169973   11.606194863833226  \
	 -10.031044327964366   10.031044327964366    0.000000000000000  \
	  -0.024267139139702   -0.024267139139702   16.364469690354667 
lattice-minimize  \
	dirUpdateScheme      L-BFGS \
	linminMethod         DirUpdateRecommended \
	nIterations          0 \
	history              15 \
	knormThreshold       0 \
	maxThreshold         no \
	energyDiffThreshold  1e-06 \
	nEnergyDiff          2 \
	alphaTstart          1 \
	alphaTmin            1e-10 \
	updateTestStepSize   yes \
	alphaTreduceFactor   0.1 \
	alphaTincreaseFactor 3 \
	nAlphaAdjustMax      3 \
	wolfeEnergy          0.0001 \
	wolfeGradient        0.9 \
	fdTest               no
lcao-params -1 1e-06 0.01
pcm-variant GLSSA13
perturb-minimize  \
	nIterations            0 \
	algorithm              MINRES \
	residualTol            0.0001 \
	residualDiffThreshold  0.0001 \
	CGBypass               no \
	recomputeResidual      no
spintype no-spin
subspace-rotation-factor 1 yes
symmetries automatic
symmetry-threshold 0.0001



---------- Setting up symmetries ----------

Non-trivial transmission matrix:
[   1   0   0  ]
[  -1   1   0  ]
[   0  -1   1  ]
with reduced lattice vectors:
[      0.000000      5.768421     11.606195  ]
[    -20.062089     10.031044      0.000000  ]
[      0.000000    -16.388737     16.364470  ]

Found 48 point-group symmetries of the bravais lattice
Found 1 space-group symmetries with basis
Applied RMS atom displacement 0 bohrs to make symmetries exact.

---------- Initializing the Grid ----------
R = 
[      17.3746      17.3746      11.6062  ]
[      -10.031       10.031            0  ]
[   -0.0242671   -0.0242671      16.3645  ]
unit cell volume = 5709.83
G =
[   0.180636  -0.313187  -0.128113  ]
[   0.180636   0.313187  -0.128113  ]
[ 0.000535737          0   0.383573  ]
Minimum fftbox size, Smin = [  92  92  92  ]
Chosen fftbox size, S = [  96  96  96  ]

---------- Initializing tighter grid for wavefunction operations ----------
R = 
[      17.3746      17.3746      11.6062  ]
[      -10.031       10.031            0  ]
[   -0.0242671   -0.0242671      16.3645  ]
unit cell volume = 5709.83
G =
[   0.180636  -0.313187  -0.128113  ]
[   0.180636   0.313187  -0.128113  ]
[ 0.000535737          0   0.383573  ]
Minimum fftbox size, Smin = [  84  84  84  ]
Chosen fftbox size, S = [  84  84  84  ]

---------- Exchange Correlation functional ----------
Initalized PBEsol GGA exchange.
Initalized PBEsol GGA correlation.

---------- Setting up pseudopotentials ----------
Width of ionic core gaussian charges (only for fluid interactions / plotting) set to 0

Reading pseudopotential file '/home/rc652/build/pseudopotentials/GBRV/re_pbesol.uspp':
  Title: Re.  Created by USPP 7.3.6 on 3-2-2014
  Reference state energy: -94.593113.  15 valence electrons in orbitals:
    |500>  occupation: 2  eigenvalue: -3.320091
    |510>  occupation: 6  eigenvalue: -1.911412
    |520>  occupation: 4.5  eigenvalue: -0.364821
    |600>  occupation: 2  eigenvalue: -0.356243
    |610>  occupation: 0  eigenvalue: -0.155248
  lMax: 3  lLocal: 3  QijEcut: 5.25
  8 projectors sampled on a log grid with 739 points:
    l: 0  eig: -0.356243  rCut: 1.45
    l: 0  eig: -3.320091  rCut: 1.45
    l: 1  eig: -1.911412  rCut: 1.5
    l: 1  eig: -0.155248  rCut: 1.5
    l: 2  eig: -0.364821  rCut: 1.6
    l: 2  eig: 1.000000  rCut: 1.6
    l: 3  eig: -0.500000  rCut: 2.3
    l: 3  eig: 1.500000  rCut: 2.3
  Partial core density with radius 1.15
  Transforming core density to a uniform radial grid of dG=0.02 with 1768 points.
  Transforming local potential to a uniform radial grid of dG=0.02 with 1768 points.
  Transforming nonlocal projectors to a uniform radial grid of dG=0.02 with 432 points.
  Transforming density augmentations to a uniform radial grid of dG=0.02 with 1768 points.
  Transforming atomic orbitals to a uniform radial grid of dG=0.02 with 432 points.
  Core radius for overlap checks: 2.30 bohrs.

Reading pseudopotential file '/home/rc652/build/pseudopotentials/GBRV/o_pbesol.uspp':
  Title: O.  Created by USPP 7.3.6 on 3-2-2014
  Reference state energy: -15.849885.  6 valence electrons in orbitals:
    |200>  occupation: 2  eigenvalue: -0.873214
    |210>  occupation: 4  eigenvalue: -0.330058
  lMax: 2  lLocal: 2  QijEcut: 6
  5 projectors sampled on a log grid with 511 points:
    l: 0  eig: -0.873214  rCut: 1.25
    l: 0  eig: 0.000000  rCut: 1.25
    l: 1  eig: -0.330058  rCut: 1.25
    l: 1  eig: 0.000000  rCut: 1.25
    l: 2  eig: 1.000000  rCut: 1.25
  Partial core density with radius 0.7
  Transforming core density to a uniform radial grid of dG=0.02 with 1768 points.
  Transforming local potential to a uniform radial grid of dG=0.02 with 1768 points.
  Transforming nonlocal projectors to a uniform radial grid of dG=0.02 with 432 points.
  Transforming density augmentations to a uniform radial grid of dG=0.02 with 1768 points.
  Transforming atomic orbitals to a uniform radial grid of dG=0.02 with 432 points.
  Core radius for overlap checks: 1.25 bohrs.

Initialized 2 species with 63 total atoms.

Folded 1 k-points by 3x3x3 to 27 k-points.

---------- Setting up k-points, bands, fillings ----------
Adding inversion symmetry to k-mesh for non-inversion-symmetric unit cell.
Reduced to 14 k-points under symmetry. 
Computing the number of bands and number of electrons
Calculating initial fillings.
nElectrons: 522.000000   nBands: 396   nStates: 14

----- Setting up reduced wavefunction bases (one per k-point) -----
average nbasis = 24386.519 , ideal nbasis = 24392.835

---------- Setting up ewald sum ----------
Optimum gaussian width for ewald sums = 3.625577 bohr.
Real space sum over 729 unit cells with max indices [  4  4  4  ]
Reciprocal space sum over 9261 terms with max indices [  10  10  10  ]

---------- Allocating electronic variables ----------
Initializing wave functions:  linear combination of atomic orbitals
Re pseudo-atom occupations:   s ( 2 0 )  p ( 6 0 )  d ( 7 )
O pseudo-atom occupations:   s ( 2 )  p ( 4 )
	FillingsUpdate:  mu: +0.514331647  nElectrons: 522.000000
LCAOMinimize: Iter:   0  F: -2003.4099720081030682  |grad|_K:  8.471e-03  alpha:  1.000e+00
	FillingsUpdate:  mu: +0.287666316  nElectrons: 522.000000
LCAOMinimize: Iter:   1  F: -2030.3896455206333940  |grad|_K:  1.252e-03  alpha:  3.304e-01  linmin: -3.673e-01  cgtest:  8.743e-01  t[s]:    122.10
LCAOMinimize: Encountered beta<0, resetting CG.
	FillingsUpdate:  mu: +0.283053065  nElectrons: 522.000000
LCAOMinimize: Iter:   2  F: -2030.8221120196169522  |grad|_K:  6.663e-04  alpha:  2.350e-01  linmin:  4.739e-03  cgtest: -8.990e-03  t[s]:    164.50
	FillingsUpdate:  mu: +0.292685279  nElectrons: 522.000000
LCAOMinimize: Iter:   3  F: -2030.8857563153767387  |grad|_K:  2.611e-04  alpha:  1.405e-01  linmin:  1.146e-02  cgtest:  5.132e-02  t[s]:    207.21
LCAOMinimize: 	Predicted alpha/alphaT>3.000000, increasing alphaT to 4.214595e-01.
	FillingsUpdate:  mu: +0.297387221  nElectrons: 522.000000
LCAOMinimize: Iter:   4  F: -2030.9189674909684982  |grad|_K:  2.164e-04  alpha:  4.460e-01  linmin: -5.225e-04  cgtest:  3.098e-02  t[s]:    259.71
	FillingsUpdate:  mu: +0.299671358  nElectrons: 522.000000
LCAOMinimize: Iter:   5  F: -2030.9280320984983064  |grad|_K:  4.066e-05  alpha:  1.723e-01  linmin: -1.501e-02  cgtest: -3.210e-02  t[s]:    301.95
	FillingsUpdate:  mu: +0.299994791  nElectrons: 522.000000
LCAOMinimize: Iter:   6  F: -2030.9283637324228948  |grad|_K:  2.135e-05  alpha:  1.794e-01  linmin:  2.888e-04  cgtest: -2.759e-02  t[s]:    343.89
	FillingsUpdate:  mu: +0.300193865  nElectrons: 522.000000
LCAOMinimize: Iter:   7  F: -2030.9284444630400230  |grad|_K:  7.275e-06  alpha:  1.606e-01  linmin:  7.031e-04  cgtest:  1.437e-02  t[s]:    385.90
	FillingsUpdate:  mu: +0.300315622  nElectrons: 522.000000
LCAOMinimize: Iter:   8  F: -2030.9284663324615394  |grad|_K:  4.893e-06  alpha:  3.752e-01  linmin:  9.577e-04  cgtest: -3.811e-04  t[s]:    428.46
	FillingsUpdate:  mu: +0.300343677  nElectrons: 522.000000
LCAOMinimize: Iter:   9  F: -2030.9284721519795767  |grad|_K:  2.864e-06  alpha:  2.207e-01  linmin: -6.214e-06  cgtest:  3.514e-03  t[s]:    471.03
	FillingsUpdate:  mu: +0.300351319  nElectrons: 522.000000
LCAOMinimize: Iter:  10  F: -2030.9284735065598397  |grad|_K:  9.180e-07  alpha:  1.497e-01  linmin: -2.213e-05  cgtest: -1.635e-03  t[s]:    513.71
	FillingsUpdate:  mu: +0.300357750  nElectrons: 522.000000
LCAOMinimize: Iter:  11  F: -2030.9284737247498924  |grad|_K:  4.085e-07  alpha:  2.349e-01  linmin:  5.155e-04  cgtest: -1.699e-03  t[s]:    556.28
	FillingsUpdate:  mu: +0.300360521  nElectrons: 522.000000
LCAOMinimize: Iter:  12  F: -2030.9284737772959488  |grad|_K:  3.648e-07  alpha:  2.860e-01  linmin:  2.531e-04  cgtest: -2.934e-04  t[s]:    598.84
LCAOMinimize: Converged (|Delta F|<1.000000e-06 for 2 iters).


---- Citations for features of the code used in this run ----

   Software package:
      R. Sundararaman, K. Letchworth-Weaver, K.A. Schwarz, D. Gunceler, Y. Ozhabes and T.A. Arias, 'JDFTx: software for joint density-functional theory', SoftwareX 6, 278 (2017)

   gga-PBEsol exchange-correlation functional:
      J.P. Perdew et al., Phys. Rev. Lett. 100, 136406 (2008)

   Pseudopotentials:
      KF Garrity, JW Bennett, KM Rabe and D Vanderbilt, Comput. Mater. Sci. 81, 446 (2014)

This list may not be complete. Please suggest additional citations or
report any other bugs at https://github.com/shankar1729/jdftx/issues

Initialization completed successfully at t[s]:    616.42


-------- Electronic minimization -----------
Will mix electronic density at each iteration.
	FillingsUpdate:  mu: +0.300360521  nElectrons: 522.000000
	FillingsUpdate:  mu: +0.291045836  nElectrons: 522.000000
SCF: Cycle:  0   F: -2032.824459019478354   dF: -1.896e+00   |Residual|: 5.907e-01   |deigs|: 3.701e-02  t[s]:    782.35
	FillingsUpdate:  mu: +0.297245270  nElectrons: 522.000000
SCF: Cycle:  1   F: -2032.981928938809688   dF: -1.575e-01   |Residual|: 2.896e-01   |deigs|: 1.420e-02  t[s]:    917.21
	FillingsUpdate:  mu: +0.296119264  nElectrons: 522.000000
SCF: Cycle:  2   F: -2033.050813607939062   dF: -6.888e-02   |Residual|: 1.555e-01   |deigs|: 6.731e-03  t[s]:   1051.36
	FillingsUpdate:  mu: +0.299145845  nElectrons: 522.000000
SCF: Cycle:  3   F: -2033.058150780474080   dF: -7.337e-03   |Residual|: 3.461e-02   |deigs|: 3.294e-03  t[s]:   1185.55
	FillingsUpdate:  mu: +0.299555203  nElectrons: 522.000000
SCF: Cycle:  4   F: -2033.062051029115537   dF: -3.900e-03   |Residual|: 1.747e-02   |deigs|: 1.119e-03  t[s]:   1298.82
	FillingsUpdate:  mu: +0.300516915  nElectrons: 522.000000
SCF: Cycle:  5   F: -2033.062328182705869   dF: -2.772e-04   |Residual|: 7.918e-03   |deigs|: 1.075e-03  t[s]:   1381.47
	FillingsUpdate:  mu: +0.300757156  nElectrons: 522.000000
SCF: Cycle:  6   F: -2033.062430851617364   dF: -1.027e-04   |Residual|: 3.911e-03   |deigs|: 3.263e-04  t[s]:   1464.77
	FillingsUpdate:  mu: +0.300900346  nElectrons: 522.000000
SCF: Cycle:  7   F: -2033.062437742560178   dF: -6.891e-06   |Residual|: 1.972e-03   |deigs|: 2.318e-04  t[s]:   1547.23
	FillingsUpdate:  mu: +0.300958447  nElectrons: 522.000000
SCF: Cycle:  8   F: -2033.062444020804605   dF: -6.278e-06   |Residual|: 1.072e-03   |deigs|: 1.089e-04  t[s]:   1630.95
	FillingsUpdate:  mu: +0.300973570  nElectrons: 522.000000
SCF: Cycle:  9   F: -2033.062445301796060   dF: -1.281e-06   |Residual|: 3.949e-04   |deigs|: 5.619e-05  t[s]:   1713.46
	FillingsUpdate:  mu: +0.300991595  nElectrons: 522.000000
SCF: Cycle: 10   F: -2033.062445458913544   dF: -1.571e-07   |Residual|: 2.107e-04   |deigs|: 5.136e-05  t[s]:   1797.52
	FillingsUpdate:  mu: +0.300994721  nElectrons: 522.000000
SCF: Cycle: 11   F: -2033.062445513608736   dF: -5.470e-08   |Residual|: 6.275e-05   |deigs|: 4.931e-05  t[s]:   1880.34
	FillingsUpdate:  mu: +0.300993526  nElectrons: 522.000000
SCF: Cycle: 12   F: -2033.062445517120295   dF: -3.512e-09   |Residual|: 3.468e-05   |deigs|: 4.565e-05  t[s]:   1964.34
	FillingsUpdate:  mu: +0.300993091  nElectrons: 522.000000
SCF: Cycle: 13   F: -2033.062445518806499   dF: -1.686e-09   |Residual|: 2.041e-05   |deigs|: 3.964e-05  t[s]:   2047.87
SCF: Converged (|Delta E|<1.000000e-08 for 2 iters).

Setting wave functions to eigenvectors of Hamiltonian

# Ionic positions in lattice coordinates:
ion Re   0.259014945823430   0.239839552849467   0.260621126477081 1
ion Re   0.000000000000000   0.000000000000000   0.000000000000000 0
ion Re   0.251801336497657   0.248222923142107   0.748639484145505 1
ion Re  -0.001610284409510  -0.000749971332213   0.500990300014703 1
ion Re   0.250079201133144   0.750306309136002   0.249974267159102 1
ion Re  -0.010698617979478   0.508778093929186  -0.009036454008520 1
ion Re   0.250745788152251   0.749871890352423   0.750070017749111 1
ion Re  -0.001175983240035   0.501431707280899   0.500301265644400 1
ion Re   0.748728636560849   0.247863008439904   0.251910729948444 1
ion Re   0.500697298850564  -0.000442322527000  -0.001744727722396 1
ion Re   0.750008698683163   0.250377410105507   0.749905127495170 1
ion Re   0.503170679471814  -0.004605816946209   0.503314324741489 1
ion Re   0.749656598033027   0.750173946740154   0.250593504597668 1
ion Re   0.500284656876524   0.501208515434376  -0.000974285937758 1
ion Re   0.746641479046463   0.752895519568358   0.746827769601008 1
ion Re   0.500098205094339   0.499800326198278   0.499908689137280 1
ion O   0.120218870561232   0.378885531611077   0.366415981060354 1
ion O   0.369633826903157   0.374911262481771   0.125646281746405 1
ion O   0.121212026571035   0.132775588748757   0.366344968560657 1
ion O   0.371519490721330   0.129361036457724   0.125248971984891 1
ion O   0.369714672844888   0.122500402679537   0.384016987140911 1
ion O   0.127467192981703   0.371973919181007   0.622242714457266 1
ion O   0.123750098877123   0.375310786236312   0.878661815631582 1
ion O   0.374414223938992   0.374953186947760   0.624773554571278 1
ion O   0.125968515942646   0.124404320465310   0.874768540261479 1
ion O   0.378569372397567   0.121353074252925   0.627167570209040 1
ion O   0.373682067916521   0.127321286584912   0.875979640261855 1
ion O   0.124175398020720   0.875186360648585   0.125850494377979 1
ion O   0.125145422925227   0.874670683408280   0.375977134390250 1
ion O   0.374282146218250   0.876434957832098   0.124720451088681 1
ion O   0.125473889574089   0.624248477213916   0.375282697257256 1
ion O   0.375063121970362   0.625524117500365   0.124212096659449 1
ion O   0.376081658104754   0.624809193604250   0.373917957288399 1
ion O   0.125576934210470   0.876924315369738   0.624453535411233 1
ion O   0.125078724135786   0.873466419052780   0.875915143621362 1
ion O   0.377004304790093   0.872146626695610   0.627894150489147 1
ion O   0.124757536773295   0.619181415627667   0.879910023517160 1
ion O   0.373928027634201   0.625199992291748   0.625069946401540 1
ion O   0.373958835953880   0.622828449119317   0.876156958624634 1
ion O   0.625495779322100   0.376691082069810   0.124504519134830 1
ion O   0.625497904565693   0.373238821860133   0.375921981892730 1
ion O   0.882713223976692   0.370581205360581   0.129167906354151 1
ion O   0.622709270431878   0.125325719117684   0.373208111281403 1
ion O   0.874301004333439   0.125484074885391   0.124753866624693 1
ion O   0.872485338783395   0.120938685082722   0.377477276321940 1
ion O   0.624111084969961   0.375484480315141   0.625793985240349 1
ion O   0.624624708066511   0.374405398426438   0.876220743310520 1
ion O   0.874593497375838   0.376081560065521   0.624482243154289 1
ion O   0.625289128501735   0.124447841569697   0.875149825330340 1
ion O   0.875098650947754   0.126026286633599   0.623611222689516 1
ion O   0.875935280324193   0.125039078963619   0.873957905790996 1
ion O   0.627484879159923   0.871944444125784   0.122239265296543 1
ion O   0.621436895805805   0.876511234205900   0.373090670491416 1
ion O   0.874178029446620   0.875085084327159   0.124752713545484 1
ion O   0.626198830882390   0.624010659892297   0.374147601601759 1
ion O   0.884351058903739   0.615444493577751   0.129285088784522 1
ion O   0.872068462052044   0.628707441422388   0.377708324238603 1
ion O   0.630355875876542   0.873379117100973   0.619591913759498 1
ion O   0.621619259786629   0.877282423362068   0.872103001889327 1
ion O   0.875818365990428   0.873062956753415   0.627819291105793 1
ion O   0.623061649176815   0.626817609409768   0.872624707055942 1
ion O   0.877480455337386   0.622973062187334   0.627454806641796 1
ion O   0.865786695311620   0.627201953093876   0.880357140988067 1

# Forces in Lattice coordinates:
force Re   0.013411276382300   0.004425001859894   0.011043433294472 1
force Re  -0.013175131222345  -0.020790769606982  -0.014295913190054 0
force Re  -0.003360031383623   0.001590631847819   0.001244767735897 1
force Re  -0.001950120086422  -0.006848809935468  -0.000616358455216 1
force Re  -0.005962969412277  -0.008590063009693  -0.001079992646320 1
force Re  -0.006587494692208   0.012782821927776  -0.008070986569235 1
force Re  -0.009396706693971  -0.008810629903236  -0.007932943934115 1
force Re   0.006122803862715   0.005830538610681   0.004258185067301 1
force Re  -0.004522078273423  -0.004918663398951  -0.005896209459347 1
force Re   0.006477985073803   0.006635865672039   0.002658353865919 1
force Re  -0.003385890137260  -0.008700925845358  -0.000702028936870 1
force Re   0.004588081306142   0.006785411578257   0.002138280670487 1
force Re  -0.000160256442353   0.002750865931476   0.002685315116007 1
force Re  -0.002099995770005  -0.005662947821262   0.000897620972526 1
force Re  -0.004356011403986   0.000486888222816  -0.004112922644020 1
force Re  -0.005774831495527  -0.000709074099403  -0.000551623747219 1
force O   0.004344509469189   0.007544342510275   0.003762826807645 1
force O   0.003350294913770   0.002311648595131   0.005518066983964 1
force O  -0.002225083602432  -0.002781405201089  -0.002361679527850 1
force O  -0.008163786459397  -0.002988084019749  -0.003019703670526 1
force O  -0.005114233837981   0.009037293338851  -0.014475282040755 1
force O  -0.002400518741053   0.002904818709105   0.006582458835964 1
force O   0.003723636709241   0.000166076451974   0.005876684027540 1
force O  -0.004421841531170   0.000807922417987   0.001417224598801 1
force O  -0.002929596489347   0.001313774220883  -0.000680512706882 1
force O  -0.000715790521528   0.002469031377570   0.006844040950112 1
force O  -0.001506724284427  -0.004031451564578  -0.000620484391952 1
force O  -0.003636600135831  -0.000518716231442  -0.002186021098018 1
force O  -0.002048919437368  -0.004321304810674   0.003000560500044 1
force O   0.002003442743049  -0.002859975789546   0.000158179628467 1
force O  -0.004482523060988  -0.006932591817797  -0.007616350686802 1
force O  -0.010643681570295  -0.009278332822218  -0.007721174877870 1
force O  -0.000313184743790   0.002331401827903   0.003919028957141 1
force O   0.001730607877662  -0.001997031178746  -0.003686897984888 1
force O   0.002473252213057   0.002572116868277   0.002284701459340 1
force O  -0.001745367882413  -0.000878849055078  -0.003939489608728 1
force O   0.001462844792037  -0.000870957796697  -0.000993347715408 1
force O   0.003047989779957   0.005406183071741  -0.003705817708813 1
force O  -0.001176626201931   0.001422268268493   0.001988879431644 1
force O   0.004323366869546   0.000573340422786  -0.001611184814599 1
force O   0.000648134402218   0.002111063395151  -0.003739326497259 1
force O  -0.000922402344822  -0.005960759690638  -0.000456286782498 1
force O   0.006924452975131   0.005687155513148   0.005896320277962 1
force O   0.001388849089944   0.005712760194253  -0.002978758284362 1
force O   0.001934684648870   0.008213357593465   0.004652331696830 1
force O  -0.000672349351298  -0.004537619226006  -0.001185056118395 1
force O   0.004527369232484   0.002265226319466   0.006401897353525 1
force O   0.001339163703013  -0.001703638120487  -0.000623835131897 1
force O  -0.000138695246480  -0.005152432418091  -0.001606918278960 1
force O  -0.003899559003980  -0.003932135425486  -0.000093263217086 1
force O   0.000716594330433   0.000060748421283   0.002680911188815 1
force O  -0.000995296104717   0.003351200871060   0.006166169955397 1
force O   0.008476001062302   0.006760405599827   0.003677629888440 1
force O   0.004199274117615   0.001138265878767   0.003107575575113 1
force O   0.002677703758379   0.005182856291718   0.006941900053339 1
force O  -0.001067145885306   0.001497197000746  -0.002440126926301 1
force O   0.001320858667572  -0.004325806296290  -0.003597101804287 1
force O   0.001241057760775   0.001887627410305   0.001653677839097 1
force O   0.002089245213030   0.003415652225834  -0.002526580853125 1
force O   0.002390236828820  -0.000006922547674  -0.000074450338825 1
force O  -0.001169984143961  -0.001424260486575  -0.004776771175179 1
force O   0.002558126854523  -0.002448200555561   0.002272853804600 1
force O   0.023108656297524   0.004386231749263   0.010139348273380 1

# Energy components:
   Eewald =    -1245.0785174291002022
       EH =      649.6587960319399144
     Eloc =    -1698.9101906342734765
      Enl =     -146.4288643693863037
      Exc =     -584.7431213299089450
 Exc_core =      247.7934167341769580
       KE =      744.7865573237614853
-------------------------------------
     Etot =    -2032.9219236727908537
       TS =        0.1405218460157482
-------------------------------------
        F =    -2033.0624455188064985

IonicMinimize: Iter:   0  F: -2033.062445518806499  |grad|_K:  2.464e-04  t[s]:   2075.80

#--- Lowdin population analysis ---
# oxidation-state Re +0.853 +0.848 +0.837 +0.838 +0.849 +0.853 +0.837 +0.838 +0.838 +0.837 +0.849 +0.822 +0.838 +0.837 +0.821 +0.849
# oxidation-state O -0.281 -0.281 -0.280 -0.280 -0.174 -0.261 -0.280 -0.259 -0.260 -0.252 -0.259 -0.259 -0.259 -0.259 -0.260 -0.260 -0.260 -0.261 -0.260 -0.251 -0.280 -0.260 -0.258 -0.261 -0.259 -0.280 -0.253 -0.259 -0.258 -0.259 -0.259 -0.259 -0.260 -0.260 -0.260 -0.261 -0.253 -0.260 -0.259 -0.281 -0.259 -0.217 -0.251 -0.253 -0.251 -0.253 -0.174


-------- Electronic minimization -----------
Will mix electronic density at each iteration.
	FillingsUpdate:  mu: +0.300993091  nElectrons: 522.000000
	FillingsUpdate:  mu: +0.301006763  nElectrons: 522.000000
SCF: Cycle:  0   F: -2033.062442409082905   dF: +8.612e-06   |Residual|: 1.662e-03   |deigs|: 3.958e-05  t[s]:   2216.76
	FillingsUpdate:  mu: +0.301003655  nElectrons: 522.000000
SCF: Cycle:  1   F: -2033.062448553190052   dF: -6.144e-06   |Residual|: 1.678e-03   |deigs|: 5.538e-05  t[s]:   2301.46
	FillingsUpdate:  mu: +0.301006546  nElectrons: 522.000000
SCF: Cycle:  2   F: -2033.062454281817963   dF: -5.729e-06   |Residual|: 2.525e-04   |deigs|: 4.166e-05  t[s]:   2384.88
	FillingsUpdate:  mu: +0.301006285  nElectrons: 522.000000
SCF: Cycle:  3   F: -2033.062454427862349   dF: -1.460e-07   |Residual|: 1.724e-04   |deigs|: 2.793e-05  t[s]:   2467.64
	FillingsUpdate:  mu: +0.301006792  nElectrons: 522.000000
SCF: Cycle:  4   F: -2033.062454526424744   dF: -9.856e-08   |Residual|: 5.910e-05   |deigs|: 2.328e-05  t[s]:   2550.89
	FillingsUpdate:  mu: +0.301006658  nElectrons: 522.000000
SCF: Cycle:  5   F: -2033.062454542170144   dF: -1.575e-08   |Residual|: 3.800e-05   |deigs|: 1.984e-05  t[s]:   2634.47
	FillingsUpdate:  mu: +0.301006722  nElectrons: 522.000000
SCF: Cycle:  6   F: -2033.062454545690571   dF: -3.520e-09   |Residual|: 1.947e-05   |deigs|: 1.830e-05  t[s]:   2717.50
	FillingsUpdate:  mu: +0.301006796  nElectrons: 522.000000
SCF: Cycle:  7   F: -2033.062454546436811   dF: -7.462e-10   |Residual|: 1.316e-05   |deigs|: 1.732e-05  t[s]:   2799.57
SCF: Converged (|Delta E|<1.000000e-08 for 2 iters).

Setting wave functions to eigenvectors of Hamiltonian

# Ionic positions in lattice coordinates:
ion Re   0.259045710699251   0.239825664031807   0.260640125312989 1
ion Re   0.000000000000000   0.000000000000000   0.000000000000000 0
ion Re   0.251785291911869   0.248231478895193   0.748646321271523 1
ion Re  -0.001608278198127  -0.000772307198789   0.500998933830854 1
ion Re   0.250068991350700   0.750283045063713   0.249988321391643 1
ion Re  -0.010729021766436   0.508843943175542  -0.009074229447106 1
ion Re   0.250731568891621   0.749860583365761   0.750063072072968 1
ion Re  -0.001165697898530   0.501440540327246   0.500302285505509 1
ion Re   0.748725218905981   0.247857620114032   0.251900484094241 1
ion Re   0.500709894893122  -0.000428941960018  -0.001751111818089 1
ion Re   0.750007761357417   0.250350061837746   0.749917526557766 1
ion Re   0.503176692513741  -0.004588885151221   0.503308164470619 1
ion Re   0.749649247452312   0.750181061816575   0.250600293949993 1
ion Re   0.500282750532631   0.501188904426733  -0.000961296811961 1
ion Re   0.746629749640995   0.752907855013674   0.746817248120875 1
ion Re   0.500078249574279   0.499805542931464   0.499914688264275 1
ion O   0.120221014877854   0.378903576216907   0.366415234932669 1
ion O   0.369636585990558   0.374908860432125   0.125659812717868 1
ion O   0.121210123339701   0.132770921099968   0.366342386570429 1
ion O   0.371496529311419   0.129363793628935   0.125251572041311 1
ion O   0.369702368684721   0.122558418867948   0.383958166950838 1
ion O   0.127446460721489   0.371979549671199   0.622266619526648 1
ion O   0.123756469259209   0.375299478747009   0.878678884732493 1
ion O   0.374394980305164   0.374959930532081   0.624783325848078 1
ion O   0.125956811208713   0.124413701463239   0.874768011449159 1
ion O   0.378555135206492   0.121354662759197   0.627190898591817 1
ion O   0.373682231717784   0.127308904764760   0.875984207883254 1
ion O   0.124165205197551   0.875191660901198   0.125847509625799 1
ion O   0.125139427747566   0.874653396521282   0.375996230599295 1
ion O   0.374292969084544   0.876421613887120   0.124722104660356 1
ion O   0.125475258146608   0.624237671150661   0.375268493521090 1
ion O   0.375044573420768   0.625512353504742   0.124208070341295 1
ion O   0.376072726051053   0.624813402764726   0.373930055535184 1
ion O   0.125590444963831   0.876919303113212   0.624440126027527 1
ion O   0.125081907870417   0.873470094055734   0.875917390428357 1
ion O   0.377003785938516   0.872150413662425   0.627882728819955 1
ion O   0.124765304528234   0.619177586485006   0.879905586203012 1
ion O   0.373937274553576   0.625220957308557   0.625045632955801 1
ion O   0.373950213246792   0.622832740577803   0.876164065636047 1
ion O   0.625513180981904   0.376689849474553   0.124492431404420 1
ion O   0.625502342822788   0.373250529557158   0.375904618404470 1
ion O   0.882717758217624   0.370560703501847   0.129174756777913 1
ion O   0.622720686441147   0.125330986872582   0.373214418397028 1
ion O   0.874302783876128   0.125507340373185   0.124733943072437 1
ion O   0.872476566009610   0.120961111660397   0.377482007806980 1
ion O   0.624115688498206   0.375469876932248   0.625796041081249 1
ion O   0.624630813573882   0.374400263120277   0.876236163544628 1
ion O   0.874601379585089   0.376074322289331   0.624480371025380 1
ion O   0.625297008711002   0.124430808019397   0.875150409795585 1
ion O   0.875089118773909   0.126016592584270   0.623620604389244 1
ion O   0.875934544982769   0.125035084658525   0.873966931342696 1
ion O   0.627469346507964   0.871950509650376   0.122259318698155 1
ion O   0.621455517110127   0.876521330545430   0.373085448201184 1
ion O   0.874188404741756   0.875080249167362   0.124757664083688 1
ion O   0.626193747649799   0.624018025012254   0.374163707595300 1
ion O   0.884348253256968   0.615454430406288   0.129275460650273 1
ion O   0.872083227218354   0.628694147747867   0.377698651562721 1
ion O   0.630356101715509   0.873382555808951   0.619594189949359 1
ion O   0.621625941514462   0.877295696138509   0.872086747102362 1
ion O   0.875827375028857   0.873060054068053   0.627816052864589 1
ion O   0.623064992380558   0.626819689089029   0.872610127764871 1
ion O   0.877490206809268   0.622957936719493   0.627463140570107 1
ion O   0.865854771746609   0.627176995935810   0.880360771631500 1

# Forces in Lattice coordinates:
force Re   0.002332916044604   0.002410668397102   0.002618956316110 1
force Re  -0.012827492714526  -0.021339266668072  -0.014758528450681 0
force Re  -0.002308708181169   0.001800937082592   0.003133057056180 1
force Re  -0.001528233620097  -0.004506154829457  -0.001323707647646 1
force Re  -0.003429022652201  -0.005401932832200  -0.001889885016599 1
force Re  -0.000450961922668   0.006397699038236  -0.000044290416116 1
force Re  -0.003639301889632  -0.003696245800350  -0.004104826695658 1
force Re   0.002353519440883   0.002160383187870   0.002838449805815 1
force Re  -0.000582803371290  -0.000910148662737  -0.002964779705989 1
force Re   0.002029922735202   0.002517896264487   0.001502657218970 1
force Re  -0.001035826054854  -0.004970341559627  -0.000769530213186 1
force Re   0.002098635859125   0.004634020342665   0.002285277709323 1
force Re   0.000369075186681   0.002951421046477   0.003710067974255 1
force Re  -0.001950766785811  -0.003837934060835  -0.000822319972071 1
force Re  -0.003417396277054  -0.000134224409926  -0.002524861945483 1
force Re  -0.003412005574463  -0.001099747212942  -0.000639624805427 1
force O   0.004740931237183   0.005661850229654   0.002308531451490 1
force O   0.003199166736358   0.001797472744288   0.005100404367238 1
force O  -0.000024769428207  -0.000888844289625  -0.001570222105904 1
force O  -0.007026379265677  -0.001555366312182  -0.002023724221386 1
force O   0.005467711656381   0.009023000369467  -0.003605679443946 1
force O  -0.001751677840697   0.003278979975249   0.006388811643301 1
force O   0.003658559367169   0.002142633789011   0.006961161990212 1
force O  -0.003698186623554   0.001595445576755   0.001336338117403 1
force O  -0.003103014574214   0.001127295325124  -0.000666665503410 1
force O  -0.001091715768738   0.001282401860342   0.004423985843328 1
force O  -0.001255413334526  -0.003282084107264  -0.000591801474736 1
force O  -0.002600931414183  -0.000554743177999  -0.000879873961318 1
force O  -0.002349309608373  -0.005446650808603   0.001915856970800 1
force O   0.001461667308941  -0.003395797210591   0.000254920484106 1
force O  -0.003339582304805  -0.005748494609869  -0.006630151788650 1
force O  -0.009926002051301  -0.008143716633684  -0.005963535378679 1
force O  -0.001336229035261   0.001554955322234   0.003027850736973 1
force O   0.000985316084505  -0.002508320766483  -0.003593153447506 1
force O   0.001569457336949   0.001336928104642   0.001100480194371 1
force O  -0.001778909404267  -0.000325023409123  -0.004411637773380 1
force O   0.001078916709626  -0.000878170665190  -0.001272699843986 1
force O   0.002149233462301   0.004404227017821  -0.003573275759328 1
force O  -0.001965219732379   0.000393128902989   0.001164833712568 1
force O   0.003260654076638   0.000174805312256  -0.001880027011407 1
force O  -0.000276652975124   0.002412077214499  -0.003139039439509 1
force O   0.001730547880210  -0.002088729087621  -0.001005813799520 1
force O   0.004940727417038   0.004342695377931   0.005159141535413 1
force O   0.000740099989291   0.004310765052719  -0.003389513641469 1
force O   0.001762175583805   0.007002328952276   0.004379254747634 1
force O  -0.001552755002708  -0.004635479007448  -0.001227742966126 1
force O   0.003730739081874   0.000290069680633   0.004871455326975 1
force O   0.000850713479000  -0.002194195052394  -0.000329866934796 1
force O   0.000628519272143  -0.003984405280737  -0.000907533716480 1
force O  -0.003569862801741  -0.004315680614675   0.000256386184941 1
force O  -0.000176089980190  -0.000473619532076   0.002019055396741 1
force O  -0.000518321652434   0.003683457645613   0.005935716023026 1
force O   0.008109503718107   0.007555965178657   0.003992300282464 1
force O   0.003548733772756   0.000912705430115   0.002745648255325 1
force O   0.002007793172480   0.004629758720425   0.006417048357711 1
force O  -0.001071083629893   0.001453092642058  -0.002836095364458 1
force O   0.001388564069560  -0.003704220174829  -0.003452854088782 1
force O   0.000567985140021   0.002062858268271   0.000658345406441 1
force O   0.002961021299510   0.003262659723986  -0.001926369605815 1
force O   0.001436171294240  -0.001259362327486   0.000090956445192 1
force O  -0.000625984201695  -0.001252403091612  -0.003758672168382 1
force O   0.002946143219942  -0.000760136294591   0.003320401565661 1
force O   0.011001355901789   0.004488879877870  -0.001412290065877 1

# Energy components:
   Eewald =    -1245.0673162233481435
       EH =      649.6706517742657070
     Eloc =    -1698.9343819917517067
      Enl =     -146.4290090927652841
      Exc =     -584.7438205887053755
 Exc_core =      247.7934167738468432
       KE =      744.7885014555770340
-------------------------------------
     Etot =    -2032.9219578928812098
       TS =        0.1404966535555970
-------------------------------------
        F =    -2033.0624545464368111

IonicMinimize: Iter:   1  F: -2033.062454546436811  |grad|_K:  1.713e-04  alpha:  1.000e+00  linmin: -7.867e-01  t[s]:   2827.32

#--- Lowdin population analysis ---
# oxidation-state Re +0.853 +0.849 +0.837 +0.838 +0.849 +0.853 +0.837 +0.838 +0.838 +0.837 +0.849 +0.821 +0.838 +0.837 +0.821 +0.849
# oxidation-state O -0.281 -0.281 -0.280 -0.280 -0.174 -0.261 -0.280 -0.259 -0.260 -0.252 -0.259 -0.259 -0.259 -0.259 -0.260 -0.260 -0.259 -0.261 -0.260 -0.251 -0.280 -0.260 -0.258 -0.261 -0.259 -0.281 -0.253 -0.259 -0.258 -0.259 -0.259 -0.259 -0.260 -0.260 -0.260 -0.261 -0.253 -0.260 -0.259 -0.281 -0.259 -0.217 -0.251 -0.253 -0.251 -0.253 -0.174


-------- Electronic minimization -----------
Will mix electronic density at each iteration.
	FillingsUpdate:  mu: +0.301006796  nElectrons: 522.000000
	FillingsUpdate:  mu: +0.301026561  nElectrons: 522.000000
SCF: Cycle:  0   F: -2033.062441801160730   dF: +1.298e-05   |Residual|: 2.688e-03   |deigs|: 1.378e-05  t[s]:   2966.86
	FillingsUpdate:  mu: +0.301021705  nElectrons: 522.000000
SCF: Cycle:  1   F: -2033.062456352446816   dF: -1.455e-05   |Residual|: 2.644e-03   |deigs|: 5.535e-05  t[s]:   3048.43
	FillingsUpdate:  mu: +0.301025767  nElectrons: 522.000000
SCF: Cycle:  2   F: -2033.062469837389017   dF: -1.348e-05   |Residual|: 4.394e-04   |deigs|: 3.596e-05  t[s]:   3131.79
	FillingsUpdate:  mu: +0.301025183  nElectrons: 522.000000
SCF: Cycle:  3   F: -2033.062470138942672   dF: -3.016e-07   |Residual|: 2.883e-04   |deigs|: 1.553e-05  t[s]:   3213.94
	FillingsUpdate:  mu: +0.301025926  nElectrons: 522.000000
SCF: Cycle:  4   F: -2033.062470402085637   dF: -2.631e-07   |Residual|: 9.221e-05   |deigs|: 1.329e-05  t[s]:   3297.35
	FillingsUpdate:  mu: +0.301025742  nElectrons: 522.000000
SCF: Cycle:  5   F: -2033.062470436967715   dF: -3.488e-08   |Residual|: 5.733e-05   |deigs|: 1.037e-05  t[s]:   3380.18
	FillingsUpdate:  mu: +0.301025827  nElectrons: 522.000000
SCF: Cycle:  6   F: -2033.062470445213194   dF: -8.245e-09   |Residual|: 2.913e-05   |deigs|: 9.749e-06  t[s]:   3464.44
	FillingsUpdate:  mu: +0.301025920  nElectrons: 522.000000
SCF: Cycle:  7   F: -2033.062470446950329   dF: -1.737e-09   |Residual|: 1.983e-05   |deigs|: 9.485e-06  t[s]:   3547.30
SCF: Converged (|Delta E|<1.000000e-08 for 2 iters).

Setting wave functions to eigenvectors of Hamiltonian

# Ionic positions in lattice coordinates:
ion Re   0.259067652929777   0.239830014063414   0.260662210587923 1
ion Re   0.000000000000000   0.000000000000000   0.000000000000000 0
ion Re   0.251725113574934   0.248255714315493   0.748693796678892 1
ion Re  -0.001601822922535  -0.000829790987321   0.501011888208503 1
ion Re   0.250051175300593   0.750224175382795   0.250008520980023 1
ion Re  -0.010776620768924   0.508960519311658  -0.009117645793124 1
ion Re   0.250711500703035   0.749840729094378   0.750037720443738 1
ion Re  -0.001152049078457   0.501450096084808   0.500320719802941 1
ion Re   0.748733332114002   0.247859004763167   0.251862830659800 1
ion Re   0.500724560245893  -0.000405162087876  -0.001754006668146 1
ion Re   0.750019205348572   0.250279473397571   0.749939434438051 1
ion Re   0.503176444849706  -0.004538865966516   0.503306097994440 1
ion Re   0.749621134137696   0.750205568905398   0.250638314033875 1
ion Re   0.500276577627696   0.501141242980617  -0.000940828738152 1
ion Re   0.746590602922543   0.752938022299282   0.746794675871316 1
ion Re   0.500031539492249   0.499811146692013   0.499928904485584 1
ion O   0.120250053314026   0.378955948595983   0.366399274113128 1
ion O   0.369649903351065   0.374894759910287   0.125711923312417 1
ion O   0.121220042222580   0.132764115639899   0.366324207052644 1
ion O   0.371408038168828   0.129384689020355   0.125263972747253 1
ion O   0.369746556151913   0.122696489524522   0.383819299431554 1
ion O   0.127370510335063   0.372005335797146   0.622356137925311 1
ion O   0.123767598619194   0.375275811284358   0.878753993144170 1
ion O   0.374323696587767   0.374994955715510   0.624814976221317 1
ion O   0.125907883143820   0.124449863689929   0.874767677513325 1
ion O   0.378508675115826   0.121357654528848   0.627259667786716 1
ion O   0.373682785989026   0.127267654345868   0.875998576515864 1
ion O   0.124132222337748   0.875202087498316   0.125848562018943 1
ion O   0.125121056064065   0.874574487217083   0.376065280111138 1
ion O   0.374331428367495   0.876362387129334   0.124734949379599 1
ion O   0.125486457620809   0.624200345455085   0.375213857745669 1
ion O   0.374966189322906   0.625468926299875   0.124207165373698 1
ion O   0.376030277002259   0.624828568237595   0.373975080361916 1
ion O   0.125636937518449   0.876895051400586   0.624392781901043 1
ion O   0.125093477881927   0.873477688748119   0.875920122931659 1
ion O   0.377000866247579   0.872175487255982   0.627827797362000 1
ion O   0.124792845189689   0.619164978071971   0.879885619747271 1
ion O   0.373966474811405   0.625295718872226   0.624957585919942 1
ion O   0.373913014886931   0.622843472041420   0.876189881054495 1
ion O   0.625572258500601   0.376685473372360   0.124446462788014 1
ion O   0.625503767162229   0.373303428069711   0.375845263038961 1
ion O   0.882756963266786   0.370520534507741   0.129165707325131 1
ion O   0.622749474990490   0.125346399243789   0.373244964393332 1
ion O   0.874309384570287   0.125587331564910   0.124657002830203 1
ion O   0.872445414585914   0.121037523542606   0.377503692915162 1
ion O   0.624123067555888   0.375413615045731   0.625808185061665 1
ion O   0.624660539521071   0.374363295059704   0.876290377763205 1
ion O   0.874627568003052   0.376039288413891   0.624481166902549 1
ion O   0.625330849958132   0.124371045931289   0.875153507585806 1
ion O   0.875055147984953   0.125969132300578   0.623663529347505 1
ion O   0.875924903292474   0.125018703016089   0.874000941639455 1
ion O   0.627412471421935   0.871978429404758   0.122333715930848 1
ion O   0.621520929112234   0.876573156189161   0.373066632250019 1
ion O   0.874224252656187   0.875062193922564   0.124776753689343 1
ion O   0.626168986261666   0.624045739001437   0.374227300589433 1
ion O   0.884338826569727   0.615495844514365   0.129231371736224 1
ion O   0.872140444276838   0.628647789006364   0.377658356031549 1
ion O   0.630351621312076   0.873406341400791   0.619592207550200 1
ion O   0.621662733170294   0.877340718827010   0.872025837401761 1
ion O   0.875855845238216   0.873034953305848   0.627815107755462 1
ion O   0.623080509426211   0.626823396634875   0.872561651021711 1
ion O   0.877522596915845   0.622913053811117   0.627501662424069 1
ion O   0.866018356670416   0.627183824449645   0.880273569668417 1

# Forces in Lattice coordinates:
force Re  -0.011257985277627  -0.001178884142818  -0.006737623859801 1
force Re  -0.012430843979171  -0.022768775521052  -0.015735273327640 0
force Re   0.000255197550098   0.001739599905530   0.005809372157638 1
force Re  -0.001069629929427  -0.000112959567662  -0.002182444078813 1
force Re   0.000620378901933   0.000288260352787  -0.003129162210748 1
force Re   0.005069293117796  -0.004165848256476   0.008090207684303 1
force Re   0.007157266245131   0.006345892113369   0.003293901852795 1
force Re  -0.004173318066119  -0.004268067977508  -0.000234293301343 1
force Re   0.005708677964777   0.005926541002197   0.002872743409968 1
force Re  -0.005591234646429  -0.005222132678684  -0.000745087304200 1
force Re   0.002317985843188   0.001611119231920  -0.000911001897809 1
force Re  -0.001833857614093   0.002064890470266   0.002167038874789 1
force Re   0.001766186784347   0.003126001850334   0.005137265624424 1
force Re  -0.001123553762674  -0.000402414561110  -0.003537318863941 1
force Re   0.000497482169910  -0.000531077160213   0.001053833533548 1
force Re   0.002038875977103  -0.001127611818709  -0.000309682020358 1
force O   0.004135169849010   0.001961801601715   0.000474321179860 1
force O   0.003596188690110   0.001633561693114   0.003020871203579 1
force O   0.001856052725473   0.001138855419408   0.000305650513180 1
force O  -0.004733298302258  -0.000377374026265  -0.001965740208964 1
force O   0.017492624822008   0.008212137563023   0.009715022302721 1
force O  -0.000444371879499   0.003640578943751   0.005599268171214 1
force O   0.003472812762898   0.003149388912723   0.006768635157549 1
force O  -0.002019872679937   0.002492950137398   0.001227534966694 1
force O  -0.002468684488321   0.001059124402557  -0.000158971103467 1
force O  -0.001757812307617  -0.000241349747667   0.000625162191605 1
force O  -0.001030797293170  -0.001949434795667  -0.000569051397271 1
force O   0.000323062718312   0.000049705702338   0.001943692308579 1
force O  -0.003064827893753  -0.006169275138689  -0.000627239489479 1
force O   0.000344802413681  -0.003971587708084  -0.000169244638261 1
force O  -0.001688655568381  -0.003419111629795  -0.003664675301331 1
force O  -0.006713472325033  -0.004750530723796  -0.002272327142225 1
force O  -0.003130837180810  -0.000568717508222   0.000377416355706 1
force O  -0.000763975771177  -0.002855672482078  -0.003242538831224 1
force O   0.000010720790483  -0.001233987504801  -0.001659871819946 1
force O  -0.001575742417153   0.000524533160744  -0.004238586817265 1
force O   0.001768648536185   0.000626965669740  -0.001298825819969 1
force O   0.000784887363104   0.002458599237655  -0.001853142739486 1
force O  -0.002408860218314  -0.001448907815667  -0.000815907893949 1
force O   0.001171501906280  -0.000063767455716  -0.002053778384936 1
force O  -0.001762438410218   0.002423812686643  -0.002119478408839 1
force O   0.004917368120774   0.004048539130872  -0.001253599369232 1
force O   0.002749052209705   0.003200768442654   0.004053970515476 1
force O  -0.000128786567873   0.001910394920119  -0.002369097934228 1
force O   0.001497065402232   0.003851274279536   0.003079128564026 1
force O  -0.003137692294665  -0.004303800725430  -0.001408158177698 1
force O   0.001600255498569  -0.003550465427973   0.000641768054687 1
force O  -0.000111342723774  -0.002645262046809  -0.000026489574135 1
force O   0.001238761328627  -0.001645814953116   0.000767923395169 1
force O  -0.002082700159025  -0.005177572317908   0.000006098696504 1
force O  -0.001900847172898  -0.001624708621974   0.000057523401181 1
force O   0.000119855102238   0.004067162887535   0.004978587654019 1
force O   0.007162724073550   0.007657066634051   0.004367766605843 1
force O   0.001379480759990  -0.000059498563198   0.002002989209881 1
force O   0.001304107943964   0.003565612544946   0.005004702430253 1
force O  -0.001396549710286   0.002865410234314  -0.001137714662790 1
force O   0.001144717181864  -0.002140566285522  -0.002076484642412 1
force O  -0.000807435348752   0.001853949067909  -0.000799025617832 1
force O   0.003433199682567   0.003366000818562   0.000480261831862 1
force O  -0.000466184437209  -0.002494431867789  -0.000765278044803 1
force O  -0.001401165659733  -0.001694091253943  -0.001736376348122 1
force O   0.001793411401296   0.001168742078055   0.002718824315646 1
force O  -0.004743602905936   0.003913301936141  -0.014784619788975 1

# Energy components:
   Eewald =    -1245.0539763861568190
       EH =      649.6845109028749903
     Eloc =    -1698.9630731776524044
      Enl =     -146.4291823006407753
      Exc =     -584.7447605161795536
 Exc_core =      247.7934167225409396
       KE =      744.7910554694622078
-------------------------------------
     Etot =    -2032.9220092857513009
       TS =        0.1404611611989675
-------------------------------------
        F =    -2033.0624704469503286

IonicMinimize: Iter:   2  F: -2033.062470446950329  |grad|_K:  1.770e-04  alpha:  1.000e+00  linmin: -3.641e-01  t[s]:   3575.09

#--- Lowdin population analysis ---
# oxidation-state Re +0.854 +0.849 +0.837 +0.838 +0.848 +0.854 +0.837 +0.838 +0.838 +0.837 +0.849 +0.821 +0.838 +0.837 +0.821 +0.849
# oxidation-state O -0.281 -0.280 -0.281 -0.280 -0.173 -0.261 -0.280 -0.259 -0.259 -0.252 -0.259 -0.259 -0.259 -0.260 -0.259 -0.260 -0.259 -0.261 -0.260 -0.251 -0.280 -0.260 -0.258 -0.261 -0.259 -0.281 -0.253 -0.259 -0.258 -0.259 -0.260 -0.259 -0.259 -0.259 -0.260 -0.261 -0.253 -0.260 -0.259 -0.281 -0.259 -0.217 -0.251 -0.253 -0.252 -0.253 -0.173


-------- Electronic minimization -----------
Will mix electronic density at each iteration.
	FillingsUpdate:  mu: +0.301025920  nElectrons: 522.000000
	FillingsUpdate:  mu: +0.301032602  nElectrons: 522.000000
SCF: Cycle:  0   F: -2033.062482707487789   dF: -1.905e-05   |Residual|: 1.401e-03   |deigs|: 6.720e-06  t[s]:   3715.35
	FillingsUpdate:  mu: +0.301031186  nElectrons: 522.000000
SCF: Cycle:  1   F: -2033.062485237137253   dF: -2.530e-06   |Residual|: 8.824e-04   |deigs|: 2.186e-05  t[s]:   3798.04
	FillingsUpdate:  mu: +0.301032981  nElectrons: 522.000000
SCF: Cycle:  2   F: -2033.062486376615652   dF: -1.139e-06   |Residual|: 4.101e-04   |deigs|: 1.808e-05  t[s]:   3879.85
	FillingsUpdate:  mu: +0.301032268  nElectrons: 522.000000
SCF: Cycle:  3   F: -2033.062486743825275   dF: -3.672e-07   |Residual|: 1.616e-04   |deigs|: 1.046e-05  t[s]:   3962.73
	FillingsUpdate:  mu: +0.301032636  nElectrons: 522.000000
SCF: Cycle:  4   F: -2033.062486808285030   dF: -6.446e-08   |Residual|: 6.121e-05   |deigs|: 7.104e-06  t[s]:   4046.85
	FillingsUpdate:  mu: +0.301032584  nElectrons: 522.000000
SCF: Cycle:  5   F: -2033.062486815154443   dF: -6.869e-09   |Residual|: 2.747e-05   |deigs|: 6.011e-06  t[s]:   4129.26
	FillingsUpdate:  mu: +0.301032616  nElectrons: 522.000000
SCF: Cycle:  6   F: -2033.062486815945931   dF: -7.915e-10   |Residual|: 1.188e-05   |deigs|: 5.975e-06  t[s]:   4212.20
SCF: Converged (|Delta E|<1.000000e-08 for 2 iters).

Setting wave functions to eigenvectors of Hamiltonian

# Ionic positions in lattice coordinates:
ion Re   0.259038283270352   0.239857616444185   0.260683236113438 1
ion Re   0.000000000000000   0.000000000000000   0.000000000000000 0
ion Re   0.251641044801590   0.248278918701276   0.748790370804194 1
ion Re  -0.001599663171300  -0.000886542960987   0.501013125335339 1
ion Re   0.250041792601359   0.750166745555601   0.250003128111151 1
ion Re  -0.010816810965130   0.509043067364233  -0.009122353264094 1
ion Re   0.250723620175097   0.749846161387526   0.749998179535891 1
ion Re  -0.001158359036218   0.501437400169161   0.500361627806900 1
ion Re   0.748763106999482   0.247886502251392   0.251815376342742 1
ion Re   0.500712019174191  -0.000407670677515  -0.001732707018187 1
ion Re   0.750046809289006   0.250209307927230   0.749946393034050 1
ion Re   0.503148364201401  -0.004457445134236   0.503317308774865 1
ion Re   0.749583239894551   0.750240151449397   0.250710867489545 1
ion Re   0.500273121538755   0.501095866440520  -0.000943635846053 1
ion Re   0.746557366118652   0.752962025534368   0.746776891391654 1
ion Re   0.500004457887461   0.499802927280136   0.499939079414410 1
ion O   0.120305655392718   0.379019341175672   0.366373750073710 1
ion O   0.369687907492011   0.374878429381235   0.125774096372093 1
ion O   0.121234705513344   0.132755753485439   0.366305288706123 1
ion O   0.371277443357913   0.129420714740864   0.125268998311837 1
ion O   0.369876534954913   0.122866294025543   0.383651143193116 1
ion O   0.127253571552320   0.372051128106069   0.622497757386307 1
ion O   0.123789547262157   0.375236941248140   0.878874736949802 1
ion O   0.374215241635556   0.375056568860638   0.624861404008785 1
ion O   0.125830365474413   0.124507722964114   0.874770474193353 1
ion O   0.378436400135074   0.121364477558296   0.627352147026083 1
ion O   0.373680625027070   0.127207869117643   0.876019176308136 1
ion O   0.124094684278030   0.875208579975749   0.125865521733969 1
ion O   0.125090656133535   0.874447458933037   0.376161726416846 1
ion O   0.374390753630313   0.876261420111254   0.124755554280933 1
ion O   0.125500921474908   0.624142443606349   0.375139869554266 1
ion O   0.374843483381934   0.625405981534434   0.124217106496016 1
ion O   0.375957245576008   0.624847135131481   0.374037112707912 1
ion O   0.125698420807072   0.876856855842982   0.624320732219205 1
ion O   0.125117530632190   0.873479484463345   0.875909326373691 1
ion O   0.376994340057865   0.872223430681695   0.627734826028992 1
ion O   0.124846025322971   0.619159272362942   0.879841374385758 1
ion O   0.374004306882566   0.625403252388436   0.624837394456088 1
ion O   0.373861228295241   0.622851713268730   0.876219570617112 1
ion O   0.625654794128125   0.376684717642469   0.124372954402259 1
ion O   0.625490649958761   0.373394655788738   0.375756310445970 1
ion O   0.882829776489140   0.370496796444832   0.129125249296741 1
ion O   0.622790055790960   0.125376288773089   0.373295248554358 1
ion O   0.874315515374363   0.125701046621761   0.124550228582236 1
ion O   0.872405556436554   0.121142600726171   0.377537690189228 1
ion O   0.624119830727774   0.375326694405037   0.625830360670364 1
ion O   0.624717178980441   0.374284540843551   0.876358457416143 1
ion O   0.874663901853041   0.375978449392360   0.624488318856357 1
ion O   0.625378443213633   0.124283374480531   0.875168197550780 1
ion O   0.875019204659109   0.125873483989997   0.623728907221730 1
ion O   0.875902506345886   0.124991358606359   0.874047695324939 1
ion O   0.627321278335602   0.872031946410108   0.122449354904831 1
ion O   0.621625550922722   0.876660927509680   0.373041640347227 1
ion O   0.874268068237687   0.875029758347496   0.124814905330782 1
ion O   0.626130079377161   0.624090308337642   0.374327606495084 1
ion O   0.884302053118388   0.615580757612563   0.129176400846815 1
ion O   0.872224576699640   0.628579062203613   0.377601950138367 1
ion O   0.630335580693155   0.873452122097740   0.619582536523349 1
ion O   0.621715805773411   0.877412518860624   0.871947766753840 1
ion O   0.875893441842327   0.872994914040721   0.627808683381373 1
ion O   0.623088049332030   0.626820690135431   0.872504800805809 1
ion O   0.877560987603796   0.622860124470408   0.627553815131043 1
ion O   0.866216147508292   0.627258107471410   0.880072331680853 1

# Forces in Lattice coordinates:
force Re  -0.014250224902342  -0.003000525610311  -0.010388602696746 1
force Re  -0.013083037048056  -0.023667797374058  -0.016505121646210 0
force Re   0.001927440822990   0.002268031608736   0.006032929734406 1
force Re   0.000123516673847   0.002199778872909  -0.001619141376508 1
force Re   0.001860891505186   0.001994945664690  -0.002321336133529 1
force Re   0.008524009791882  -0.005985854759238   0.010089712788155 1
force Re   0.010093983336922   0.009481466817750   0.005365824432434 1
force Re  -0.005427527093285  -0.006621739864583  -0.001485554568542 1
force Re   0.007203027259306   0.008323388747065   0.004752747420806 1
force Re  -0.007092214678906  -0.007284516428846  -0.000665847391418 1
force Re   0.002291943798463   0.002940030010366  -0.000743532045463 1
force Re  -0.001536413579271   0.002490348933124   0.002172353988383 1
force Re   0.002206573714746   0.002656687897029   0.004138003590891 1
force Re  -0.000123268055187   0.000650701797918  -0.003597601033485 1
force Re   0.003003849862361  -0.000505683970675   0.002497400319148 1
force Re   0.004046153159570   0.000178636573526   0.000212679997183 1
force O   0.001615522323791  -0.002471805424960  -0.000559968786882 1
force O   0.002222612253287  -0.000078124325128  -0.000341724963185 1
force O   0.002101968770266   0.002210387992818   0.002371556205995 1
force O  -0.003075550155432   0.000231603942416  -0.002007704324505 1
force O   0.018762692658164   0.006210534902966   0.013528463519982 1
force O   0.000206216778397   0.002853294701687   0.004117913193432 1
force O   0.002860856361903   0.002066569845747   0.005406125498623 1
force O   0.000588442576065   0.002914378889046   0.001349486971563 1
force O  -0.001514762655331   0.000439544093551   0.000954714688953 1
force O  -0.002687815925218  -0.001078042412580  -0.002146030729184 1
force O  -0.001135035476020  -0.001052367395965   0.000009864915070 1
force O   0.002630100715173   0.001440345935716   0.002968701764362 1
force O  -0.003430207959152  -0.004453221546001  -0.003586902364498 1
force O  -0.001329442730551  -0.004162639761619  -0.001256390128155 1
force O  -0.000475651094359  -0.000934228444436  -0.000169982147175 1
force O  -0.001613049630193  -0.000309061399692   0.000821663680195 1
force O  -0.003105610872305  -0.002746545352746  -0.002284650481634 1
force O  -0.001562132823351  -0.001669066080304  -0.001982211919660 1
force O  -0.000561282779603  -0.001286735263403  -0.002341415835445 1
force O  -0.000128821231642   0.002443009036898  -0.002670227400344 1
force O   0.001532311982575   0.001386369904421  -0.000582588537166 1
force O   0.000609334138896   0.000201380386589   0.000713353300968 1
force O  -0.001085056133986  -0.002512447536599  -0.002641923321376 1
force O   0.000202432006134   0.000873581721313  -0.001209941748346 1
force O  -0.001705231462987   0.002746930154432  -0.000633813053799 1
force O   0.005161951869395   0.007505665832722  -0.000270816279931 1
force O   0.002040543589860   0.003627170305528   0.003533080313484 1
force O   0.000250079577990  -0.000043495150252   0.000121588705469 1
force O   0.001485060501455   0.001022667500245   0.000679454507014 1
force O  -0.003362041701533  -0.003184199637143  -0.001480273930183 1
force O  -0.000831044424599  -0.005679447078221  -0.004008253165902 1
force O  -0.001507010751150  -0.003173203289854  -0.000513433327998 1
force O   0.000833318480609   0.000848249068068   0.002202894839689 1
force O   0.000406152618752  -0.003742864276898   0.000089649304112 1
force O  -0.002275281586662  -0.002493014296868  -0.001923278993660 1
force O   0.000086883868563   0.003522902440452   0.003657222456646 1
force O   0.005438374905970   0.006384118031059   0.004778000144842 1
force O   0.000216151058592  -0.000047547267826   0.001275068087331 1
force O   0.000839547461724   0.001742882725611   0.003123447927867 1
force O  -0.002697031296765   0.002609903244257  -0.000157971694892 1
force O   0.000147794093167  -0.000965972932897   0.000203000173444 1
force O  -0.001155230484469   0.001083878440974   0.000022408537669 1
force O   0.002312880290708   0.001318855930106   0.002285614715340 1
force O  -0.002542919735634  -0.002658281562442  -0.002592724703829 1
force O  -0.001283261513957  -0.000482146462630   0.000420778710118 1
force O  -0.001575783527569   0.001202342988681  -0.000125282832775 1
force O  -0.010856346823875   0.002175701987739  -0.016702806184530 1

# Energy components:
   Eewald =    -1245.0482069535614755
       EH =      649.6902846402227851
     Eloc =    -1698.9753820604362318
      Enl =     -146.4292549470822564
      Exc =     -584.7452399648017263
 Exc_core =      247.7934164932279941
       KE =      744.7923417137257047
-------------------------------------
     Etot =    -2032.9220410787052060
       TS =        0.1404457372408142
-------------------------------------
        F =    -2033.0624868159459311

IonicMinimize: Iter:   3  F: -2033.062486815945931  |grad|_K:  1.898e-04  alpha:  1.000e+00  linmin: -2.580e-01  t[s]:   4240.11

#--- Lowdin population analysis ---
# oxidation-state Re +0.854 +0.849 +0.837 +0.838 +0.848 +0.854 +0.837 +0.838 +0.838 +0.837 +0.848 +0.821 +0.838 +0.837 +0.821 +0.848
# oxidation-state O -0.281 -0.280 -0.281 -0.280 -0.173 -0.261 -0.280 -0.259 -0.259 -0.252 -0.259 -0.259 -0.259 -0.260 -0.259 -0.260 -0.259 -0.261 -0.260 -0.252 -0.280 -0.260 -0.258 -0.261 -0.260 -0.281 -0.253 -0.259 -0.258 -0.259 -0.260 -0.259 -0.259 -0.259 -0.260 -0.261 -0.252 -0.260 -0.259 -0.281 -0.259 -0.217 -0.252 -0.252 -0.252 -0.253 -0.173


-------- Electronic minimization -----------
Will mix electronic density at each iteration.
	FillingsUpdate:  mu: +0.301032616  nElectrons: 522.000000
	FillingsUpdate:  mu: +0.301017350  nElectrons: 522.000000
SCF: Cycle:  0   F: -2033.062484238670095   dF: -4.140e-05   |Residual|: 2.706e-03   |deigs|: 4.776e-06  t[s]:   4380.46
	FillingsUpdate:  mu: +0.301022310  nElectrons: 522.000000
SCF: Cycle:  1   F: -2033.062498158017888   dF: -1.392e-05   |Residual|: 1.841e-03   |deigs|: 6.635e-05  t[s]:   4462.31
	FillingsUpdate:  mu: +0.301017521  nElectrons: 522.000000
SCF: Cycle:  2   F: -2033.062506514407914   dF: -8.356e-06   |Residual|: 7.477e-04   |deigs|: 4.704e-05  t[s]:   4544.18
	FillingsUpdate:  mu: +0.301019095  nElectrons: 522.000000
SCF: Cycle:  3   F: -2033.062508112648175   dF: -1.598e-06   |Residual|: 3.482e-04   |deigs|: 1.743e-05  t[s]:   4628.22
	FillingsUpdate:  mu: +0.301018402  nElectrons: 522.000000
SCF: Cycle:  4   F: -2033.062508356952321   dF: -2.443e-07   |Residual|: 1.153e-04   |deigs|: 8.194e-06  t[s]:   4709.95
	FillingsUpdate:  mu: +0.301018612  nElectrons: 522.000000
SCF: Cycle:  5   F: -2033.062508385448382   dF: -2.850e-08   |Residual|: 6.299e-05   |deigs|: 5.025e-06  t[s]:   4792.38
	FillingsUpdate:  mu: +0.301018523  nElectrons: 522.000000
SCF: Cycle:  6   F: -2033.062508390482208   dF: -5.034e-09   |Residual|: 2.437e-05   |deigs|: 4.995e-06  t[s]:   4874.49
	FillingsUpdate:  mu: +0.301018468  nElectrons: 522.000000
SCF: Cycle:  7   F: -2033.062508392241625   dF: -1.759e-09   |Residual|: 1.588e-05   |deigs|: 4.696e-06  t[s]:   4959.15
SCF: Converged (|Delta E|<1.000000e-08 for 2 iters).

Setting wave functions to eigenvectors of Hamiltonian

# Ionic positions in lattice coordinates:
ion Re   0.258976397567506   0.239908387380528   0.260651602234668 1
ion Re   0.000000000000000   0.000000000000000   0.000000000000000 0
ion Re   0.251510031899210   0.248340632140116   0.748979563466664 1
ion Re  -0.001577257080139  -0.000956235904858   0.500999980434202 1
ion Re   0.250022770475843   0.750053440512308   0.250012504256640 1
ion Re  -0.010773443821232   0.509152340377312  -0.009131092878052 1
ion Re   0.250786584157279   0.749916482774725   0.749902484590333 1
ion Re  -0.001152185940410   0.501343252529908   0.500447275944666 1
ion Re   0.748822346350819   0.248005267587239   0.251726225800445 1
ion Re   0.500665141009756  -0.000474314937739  -0.001629466654300 1
ion Re   0.750073005780310   0.250074971863404   0.749972884922389 1
ion Re   0.503111181212343  -0.004230716328430   0.503314120624318 1
ion Re   0.749540411929593   0.750312366723961   0.250821969485541 1
ion Re   0.500299840068555   0.500999729837419  -0.000963669841286 1
ion Re   0.746576642585190   0.752965833190394   0.746750725144596 1
ion Re   0.499983483922072   0.499823473694257   0.499940395933582 1
ion O   0.120387789787628   0.379006710586700   0.366391491657642 1
ion O   0.369791935493206   0.374831055944159   0.125801534923242 1
ion O   0.121216000327732   0.132745260947903   0.366352470059601 1
ion O   0.371036040341139   0.129506725834315   0.125239935332484 1
ion O   0.370161925112960   0.123138927128413   0.383400845026635 1
ion O   0.127042394394942   0.372130702439916   0.622766159969008 1
ion O   0.123861038117407   0.375106438445936   0.879120840425302 1
ion O   0.374083425183590   0.375173182398310   0.624929764347645 1
ion O   0.125686582022727   0.124575299832483   0.874832427140177 1
ion O   0.378268779566289   0.121404920221827   0.627473128132718 1
ion O   0.373642419157001   0.127097143494237   0.876090483106408 1
ion O   0.124079039689364   0.875249804802061   0.125882840052341 1
ion O   0.125016437007051   0.874303361316527   0.376211896747622 1
ion O   0.374468011487618   0.876061298862840   0.124776066637749 1
ion O   0.125489935977360   0.624049247694609   0.375082065307637 1
ion O   0.374692292011920   0.625345343807876   0.124224352997661 1
ion O   0.375877487020545   0.624821304650783   0.374083211571614 1
ion O   0.125765316230850   0.876824372283864   0.624204326945186 1
ion O   0.125156362011275   0.873512184565303   0.875864581762740 1
ion O   0.376995730308280   0.872384864627637   0.627539525175039 1
ion O   0.124933230974145   0.619172972327928   0.879769580962746 1
ion O   0.374088275550650   0.625501117444283   0.624723905514498 1
ion O   0.373863805146235   0.622827294596607   0.876188498586278 1
ion O   0.625777384488948   0.376736275204674   0.124240571903538 1
ion O   0.625441533253865   0.373601429463325   0.375608716309989 1
ion O   0.882922622989873   0.370576130449731   0.129040511389042 1
ion O   0.622861631733531   0.125498351688762   0.373390598617136 1
ion O   0.874343783073493   0.125825141205209   0.124453895622587 1
ion O   0.872401221744437   0.121297291278939   0.377536700626741 1
ion O   0.624090363581499   0.375181316572985   0.625860408231154 1
ion O   0.624839949893234   0.374120725236682   0.876356908996366 1
ion O   0.874697251301183   0.375840183291472   0.624508137437817 1
ion O   0.625398051738114   0.124184380860912   0.875242483124890 1
ion O   0.875035737449877   0.125683983065843   0.623817279195545 1
ion O   0.875886588018172   0.124920304499639   0.874076478541745 1
ion O   0.627129007447000   0.872152533935754   0.122672181082200 1
ion O   0.621804378734783   0.876820235805683   0.373058050317159 1
ion O   0.874330298881375   0.874987639191049   0.124886302395261 1
ion O   0.626080951451457   0.624140792186356   0.374510140758829 1
ion O   0.884130733067667   0.615772578220244   0.129124896439943 1
ion O   0.872311391407016   0.628447974049472   0.377588704039321 1
ion O   0.630281495897455   0.873503085648074   0.619635269120282 1
ion O   0.621783005169373   0.877462658811455   0.871911050684990 1
ion O   0.875911605279489   0.872969033331471   0.627726597491045 1
ion O   0.623054083388192   0.626845487703785   0.872450970454134 1
ion O   0.877524313030181   0.622835784512413   0.627583119485466 1
ion O   0.866501245056092   0.627414302314054   0.879695786111333 1

# Forces in Lattice coordinates:
force Re  -0.006259629285333  -0.003194487288494  -0.003281539816105 1
force Re  -0.013045817753471  -0.022776558679155  -0.014970279963288 0
force Re   0.003449052204882   0.000594733110213   0.003626983633336 1
force Re  -0.000652574271287   0.002365065024558  -0.004096205717905 1
force Re   0.001062152733895   0.002268725680432  -0.002928233173373 1
force Re   0.002041900002972  -0.004748938824531   0.006139285959881 1
force Re   0.011272020353090   0.009205268482364   0.005626963988015 1
force Re  -0.009043591319545  -0.007817526244965  -0.004538069394529 1
force Re   0.010325948420353   0.009779467462125   0.006107431320790 1
force Re  -0.007984913724745  -0.007573375886815  -0.003594533648022 1
force Re  -0.001051582306900   0.000575617901972  -0.004230743189012 1
force Re  -0.000292304467251  -0.001557282219673   0.001325312977137 1
force Re   0.002043878243111   0.001311929940799   0.005010572134520 1
force Re  -0.000796930404368   0.003074124093201  -0.004591519628753 1
force Re  -0.000546027924686  -0.000927881287783   0.002279373474574 1
force Re   0.003879435485580   0.000383341857408   0.001552660491937 1
force O  -0.000358680966011  -0.003491696976817   0.000347165000333 1
force O  -0.000601406622387  -0.002330855588898  -0.004520697335813 1
force O   0.005073058320911   0.003399194926626   0.003498131891129 1
force O  -0.001372392783468  -0.000659234760487  -0.001976412332491 1
force O   0.006118622953402   0.002246333047261   0.002986764900887 1
force O   0.001935905007512   0.002149029082443   0.002200800428909 1
force O   0.003061311252273   0.003598529336958   0.004403144791842 1
force O  -0.000356639398665  -0.000377083153924   0.000993373006430 1
force O   0.002792171987794   0.003185014573724   0.001635856915868 1
force O  -0.001431251417516   0.003275444740802  -0.001361447604520 1
force O   0.000815226253175   0.000499895327566   0.001593468535170 1
force O   0.001375325444380  -0.000070617112508   0.000816153389901 1
force O  -0.000782093343044   0.000090765957278  -0.002705941531270 1
force O  -0.000095708325446  -0.000506936596785   0.000424393841063 1
force O   0.001350957024437   0.000999475749962   0.003411247603958 1
force O   0.002270480738038  -0.001338884458787  -0.000040096240958 1
force O  -0.001319244665049  -0.002554559889539  -0.001850321644837 1
force O   0.000216239035861  -0.001347498678478   0.001265750492460 1
force O  -0.001142948747294  -0.002195687713170  -0.002864711447112 1
force O  -0.001506987201247   0.001463235099595  -0.000991140257676 1
force O   0.004685945552838   0.005408490586451   0.001454206862865 1
force O  -0.000947624179105  -0.000501599770590   0.002987449313246 1
force O  -0.000137179049325  -0.002577159338296  -0.003842304049131 1
force O  -0.000952853226058   0.000340003471895  -0.000269231731535 1
force O  -0.000329669876954   0.001513911671962  -0.000300423271242 1
force O   0.002837023495010   0.007718756471346   0.000985271720985 1
force O   0.000252850560997   0.003655051774790   0.002556236721022 1
force O  -0.000577430150474  -0.001515771708135   0.002080210958338 1
force O   0.001324159688665  -0.000151844750480  -0.001864475291148 1
force O  -0.001244220997910  -0.001938328958501  -0.000359927500411 1
force O  -0.002704569275356   0.000067532641980  -0.000367304215888 1
force O  -0.000784989792507  -0.002249927417852  -0.001127495615112 1
force O  -0.001951728058550   0.000352063429530   0.002767566980851 1
force O   0.001384131926429  -0.000793584677640   0.001484885540313 1
force O  -0.001354626222953  -0.003339748107492  -0.001495573969836 1
force O   0.001131645215816   0.002934751389188   0.003208501781066 1
force O   0.002618511329441   0.002625595868609   0.001681723892299 1
force O  -0.001492344125852  -0.000747002985648  -0.000491812572605 1
force O   0.000639761288427   0.001958249881129   0.000144481328544 1
force O  -0.002258007416132   0.001449160607270  -0.001812864669035 1
force O  -0.001251910293258  -0.000324968702070   0.000132143245989 1
force O  -0.003310896852575   0.002302460838393  -0.000385282723961 1
force O   0.002949179408481  -0.000426315930734   0.004913530298232 1
force O  -0.001821067358374  -0.001104202056340  -0.002855457973866 1
force O   0.000742073067122   0.000127578484799   0.002946261345122 1
force O  -0.003343321805925  -0.001149862286985  -0.003783772340328 1
force O  -0.002959452092814  -0.000410746298837  -0.004797571806775 1

# Energy components:
   Eewald =    -1245.0543412045765308
       EH =      649.6834260846142115
     Eloc =    -1698.9620699795982546
      Enl =     -146.4291075806183358
      Exc =     -584.7450125416855826
 Exc_core =      247.7934157427890227
       KE =      744.7916467067927897
-------------------------------------
     Etot =    -2032.9220427722827935
       TS =        0.1404656199589000
-------------------------------------
        F =    -2033.0625083922416252

IonicMinimize: Iter:   4  F: -2033.062508392241625  |grad|_K:  1.456e-04  alpha:  1.000e+00  linmin: -2.037e-01  t[s]:   4987.42

#--- Lowdin population analysis ---
# oxidation-state Re +0.853 +0.849 +0.837 +0.838 +0.849 +0.854 +0.837 +0.838 +0.838 +0.837 +0.849 +0.821 +0.838 +0.837 +0.821 +0.849
# oxidation-state O -0.281 -0.280 -0.281 -0.280 -0.174 -0.261 -0.280 -0.259 -0.259 -0.252 -0.259 -0.259 -0.259 -0.260 -0.259 -0.260 -0.259 -0.261 -0.260 -0.252 -0.280 -0.260 -0.259 -0.261 -0.260 -0.281 -0.252 -0.259 -0.259 -0.259 -0.260 -0.260 -0.259 -0.259 -0.259 -0.261 -0.252 -0.260 -0.259 -0.281 -0.259 -0.217 -0.252 -0.252 -0.252 -0.253 -0.173


-------- Electronic minimization -----------
Will mix electronic density at each iteration.
	FillingsUpdate:  mu: +0.301018468  nElectrons: 522.000000
	FillingsUpdate:  mu: +0.301022300  nElectrons: 522.000000
SCF: Cycle:  0   F: -2033.062293130447870   dF: +6.541e-05   |Residual|: 8.092e-03   |deigs|: 1.465e-05  t[s]:   5157.31
	FillingsUpdate:  mu: +0.301026819  nElectrons: 522.000000
SCF: Cycle:  1   F: -2033.062416965043667   dF: -1.238e-04   |Residual|: 7.947e-03   |deigs|: 4.746e-05  t[s]:   5238.95
	FillingsUpdate:  mu: +0.301025507  nElectrons: 522.000000
SCF: Cycle:  2   F: -2033.062508825401892   dF: -9.186e-05   |Residual|: 1.281e-03   |deigs|: 2.238e-05  t[s]:   5322.07
	FillingsUpdate:  mu: +0.301025509  nElectrons: 522.000000
SCF: Cycle:  3   F: -2033.062511507388535   dF: -2.682e-06   |Residual|: 5.563e-04   |deigs|: 7.368e-06  t[s]:   5403.87
	FillingsUpdate:  mu: +0.301025925  nElectrons: 522.000000
SCF: Cycle:  4   F: -2033.062512420973917   dF: -9.136e-07   |Residual|: 2.608e-04   |deigs|: 6.254e-06  t[s]:   5486.10
	FillingsUpdate:  mu: +0.301026254  nElectrons: 522.000000
SCF: Cycle:  5   F: -2033.062512680643522   dF: -2.597e-07   |Residual|: 1.473e-04   |deigs|: 4.491e-06  t[s]:   5569.67
	FillingsUpdate:  mu: +0.301026222  nElectrons: 522.000000
SCF: Cycle:  6   F: -2033.062512737164070   dF: -5.652e-08   |Residual|: 8.379e-05   |deigs|: 3.711e-06  t[s]:   5651.93
	FillingsUpdate:  mu: +0.301026301  nElectrons: 522.000000
SCF: Cycle:  7   F: -2033.062512750311271   dF: -1.315e-08   |Residual|: 5.899e-05   |deigs|: 3.526e-06  t[s]:   5734.28
	FillingsUpdate:  mu: +0.301026353  nElectrons: 522.000000
SCF: Cycle:  8   F: -2033.062512758093362   dF: -7.782e-09   |Residual|: 2.551e-05   |deigs|: 3.821e-06  t[s]:   5816.43
	FillingsUpdate:  mu: +0.301026377  nElectrons: 522.000000
SCF: Cycle:  9   F: -2033.062512759319134   dF: -1.226e-09   |Residual|: 1.036e-05   |deigs|: 3.997e-06  t[s]:   5899.47
SCF: Converged (|Delta E|<1.000000e-08 for 2 iters).

Setting wave functions to eigenvectors of Hamiltonian

# Ionic positions in lattice coordinates:
ion Re   0.258920713120062   0.239889045109756   0.260683378889998 1
ion Re   0.000000000000000   0.000000000000000   0.000000000000000 0
ion Re   0.251408666916387   0.248374575917294   0.749243747460344 1
ion Re  -0.001545930117896  -0.000968165916289   0.500861698378260 1
ion Re   0.250004601340736   0.749952898546282   0.249951042393691 1
ion Re  -0.010785081827225   0.509266927296112  -0.009062109387312 1
ion Re   0.251001749039453   0.750059770398851   0.749745632374452 1
ion Re  -0.001265800490665   0.501174452886794   0.500560985764970 1
ion Re   0.749031401110534   0.248244364912824   0.251584570585952 1
ion Re   0.500531266126968  -0.000610555861401  -0.001503808828223 1
ion Re   0.750088455372445   0.249919601692077   0.749913847493010 1
ion Re   0.503108092614944  -0.004019201856444   0.503344692726257 1
ion Re   0.749476964970238   0.750369013071240   0.251070792863480 1
ion Re   0.500310812050386   0.500998354519601  -0.001109382075519 1
ion Re   0.746521969717977   0.752962976451002   0.746779784706770 1
ion Re   0.499992114902623   0.499825580078788   0.499969650096867 1
ion O   0.120482412644006   0.378920243621610   0.366476645934121 1
ion O   0.369953482400546   0.374753330868871   0.125739594982063 1
ion O   0.121279020502190   0.132737147947797   0.366422827343106 1
ion O   0.370718809538625   0.129610691501385   0.125175171670267 1
[...]
ion O   0.374081597674904   0.375219626822378   0.625232539476404 1
ion O   0.125427782649351   0.124868423269459   0.875175325117857 1
ion O   0.377610145329303   0.122469628892377   0.627172807350334 1
ion O   0.373859623617737   0.126393625184079   0.876158900421563 1
ion O   0.124267695889106   0.874929183817176   0.125738070814364 1
ion O   0.125035048336522   0.874460848009170   0.375690867701549 1
ion O   0.374574358275995   0.875385867767707   0.124946967999789 1
ion O   0.125242407266540   0.623732753832785   0.375481297193953 1
ion O   0.374726981468000   0.624922695170042   0.124238277680217 1
ion O   0.375739715906288   0.624560001679672   0.374249803620569 1
ion O   0.125878632470036   0.876575872072191   0.624010383949280 1
ion O   0.125487557314299   0.873917235237075   0.875493622915974 1
ion O   0.376912232389915   0.873408987612115   0.626779583545683 1
ion O   0.125189096520950   0.619763817274256   0.879899329673719 1
ion O   0.374239738354357   0.625511785644839   0.624818116751411 1
ion O   0.374683837385596   0.623240756301049   0.875247675779136 1
ion O   0.625982719024762   0.376843879149142   0.123958428145728 1
ion O   0.625649155540171   0.374337973089385   0.375156289032239 1
ion O   0.882656076708839   0.371707621044556   0.128780758687947 1
ion O   0.622979620697712   0.126345956443852   0.373881406482432 1
ion O   0.874376181306576   0.125791017747625   0.124693330549290 1
ion O   0.873032469745997   0.122055569517374   0.376862870870772 1
ion O   0.624124488465831   0.374670621630250   0.625880223898639 1
ion O   0.624924448471195   0.374072362546964   0.875995010465102 1
ion O   0.874735994093042   0.375156900265919   0.624568303558144 1
ion O   0.624937931581866   0.124002253321828   0.875762986244202 1
ion O   0.875006562828944   0.124948409953161   0.624188191402767 1
ion O   0.875735836502836   0.124486063141126   0.874282693741058 1
ion O   0.626295173494771   0.872743544294928   0.123694987707261 1
ion O   0.622499915687674   0.877280255044131   0.373442859692448 1
ion O   0.874402379632634   0.874977236045919   0.125042199923357 1
ion O   0.625649725338045   0.624658774027403   0.374986274616226 1
ion O   0.883337689999303   0.617028667732162   0.128640575724000 1
ion O   0.872293371069952   0.627945693140898   0.377704520162421 1
ion O   0.629191097286703   0.874304527967217   0.620678174783032 1
ion O   0.622488524365791   0.876534088574402   0.872865138359842 1
ion O   0.875797278528866   0.873184544066933   0.626879726376056 1
ion O   0.623299115893313   0.626730693771857   0.872684613661114 1
ion O   0.876506975812726   0.623140250921928   0.627268621843091 1
ion O   0.867724162926861   0.627252676534230   0.878517048153769 1

# Forces in Lattice coordinates:
force Re   0.005700735501897  -0.000039104947568   0.005791789303902 1
force Re  -0.008618336618551  -0.014447686552179  -0.003190020533922 0
force Re   0.001333138028750   0.001823321013143   0.001108067482860 1
force Re   0.001801427992621  -0.000079836182290   0.000438807328523 1
force Re   0.000718389986092   0.000463337641376  -0.001298235736173 1
force Re   0.009026428811181  -0.000291126344454   0.007785603031114 1
force Re   0.003049312435257   0.001862696029107   0.002680296395309 1
force Re  -0.000237676253085   0.000466711398575  -0.000416006965259 1
force Re   0.001132577435077   0.000646826276674  -0.000296008197705 1
force Re  -0.001248579308402  -0.000998136829862  -0.000775727020775 1
force Re   0.001124345988768   0.003125762093250   0.000960789419988 1
force Re  -0.003685845854277  -0.002988292227794  -0.001209882052641 1
force Re   0.001549305562526   0.001494959395894   0.001208334195796 1
force Re  -0.001032936215633   0.001813364638959  -0.000686545788799 1
force Re  -0.001433141790436  -0.000837124423907   0.001525411985166 1
force Re   0.000407989778864   0.001474319492633   0.000948785640605 1
force O   0.002440303709009   0.006863931139941   0.002777625213277 1
force O   0.000399224183076   0.005841156269254  -0.000530044439955 1
force O  -0.002181557871199  -0.000079552622193   0.000040535174269 1
force O  -0.000354625884088  -0.002181042509666  -0.003758424601039 1
force O  -0.004817888419221  -0.000835369190983  -0.008185971435782 1
force O   0.000329445859231   0.002643667490074   0.004052133975579 1
force O   0.000361379563130  -0.000706502071950  -0.001364109920170 1
force O  -0.001354911698028  -0.000789711532432  -0.000623334436179 1
force O   0.000194577830461   0.002622931396421   0.000214931799817 1
force O  -0.002576302698323   0.000775889541017   0.001277831913620 1
force O  -0.000816495005266  -0.001396296388172  -0.002143445036620 1
force O  -0.001160309079813  -0.000364235105554   0.001072815457817 1
force O  -0.000638432686821  -0.002369894560867   0.001183912627008 1
force O   0.000898986217657   0.000988639678872  -0.000900714454019 1
force O  -0.000651293591822   0.001166079312832  -0.001582877385819 1
force O  -0.001999336698225  -0.003652782482967  -0.000041732506969 1
force O  -0.001143403192830   0.000790064580674   0.001210715469986 1
force O   0.001609767090263  -0.001215526911973   0.003603106913221 1
force O  -0.001547899630986  -0.001375114302503  -0.003597540291397 1
force O  -0.005528840090973  -0.005087093883502  -0.001854782380985 1
force O   0.001930571938242   0.001596926475306   0.001264863630418 1
force O  -0.000739363234945   0.002343849567260   0.000667659647243 1
force O  -0.000383407745035   0.004436708298191   0.003191576899028 1
force O  -0.003898837620334  -0.004780435749863  -0.002069574463484 1
force O  -0.000104219404442  -0.001044605426183  -0.000397198809472 1
force O  -0.000649609761806  -0.004355808842358  -0.004367514254898 1
force O   0.001605807781228  -0.004606774546094  -0.000787778636806 1
force O   0.001985975851462   0.001525289832160  -0.001829903429490 1
force O  -0.000028992774917   0.001307528045067   0.000254012850877 1
force O   0.002230586825880   0.002760614815470   0.000871252650862 1
force O   0.001756992572411   0.002946067371897   0.004491292542840 1
force O   0.003278603940807   0.001914982123345   0.000466177403188 1
force O   0.000530343263185  -0.000939062794144  -0.002116350006042 1
force O  -0.001484701405172   0.000989734532311   0.000178190110943 1
force O   0.001188887864972   0.002956551730988   0.001994648187887 1
force O   0.000865340750880   0.000909633256166   0.000974436435653 1
force O   0.001832674690807  -0.002500412781717   0.000345839564333 1
force O  -0.000401426071305  -0.000001648712931   0.000288628655908 1
force O   0.001174175438004   0.000644764767146  -0.000607421971626 1
force O  -0.001342221871195  -0.002426640502598  -0.000452570765131 1
force O  -0.000211995143739  -0.002182380721015  -0.003867838204788 1
force O   0.002949334172357   0.003073731077899   0.004473444226961 1
force O   0.002889815174636   0.004130100038059   0.000192453274600 1
force O   0.000197053191555  -0.001145556434607   0.001180280343013 1
force O   0.000009154476607  -0.001723036281370   0.001319566889293 1
force O   0.001848663511957   0.001412887822090   0.000753171453645 1
force O  -0.005614651090565  -0.001259169057893  -0.011050566652864 1

# Energy components:
   Eewald =    -1244.9583885075587659
       EH =      649.7769660196453287
     Eloc =    -1699.1581889017118101
      Enl =     -146.4288891622233848
      Exc =     -584.7488201275848496
 Exc_core =      247.7934101000491580
       KE =      744.8017425681732675
-------------------------------------
     Etot =    -2032.9221680112109425
       TS =        0.1403972098356346
-------------------------------------
        F =    -2033.0625652210464978

IonicMinimize: Iter:  10  F: -2033.062565221046498  |grad|_K:  1.272e-04  alpha:  1.000e+00  linmin: -7.251e-03  t[s]:   9684.77

#--- Lowdin population analysis ---
# oxidation-state Re +0.853 +0.849 +0.837 +0.838 +0.849 +0.854 +0.837 +0.838 +0.838 +0.837 +0.849 +0.821 +0.838 +0.837 +0.821 +0.849
# oxidation-state O -0.281 -0.280 -0.280 -0.280 -0.174 -0.261 -0.281 -0.259 -0.259 -0.252 -0.258 -0.259 -0.259 -0.259 -0.260 -0.260 -0.260 -0.261 -0.260 -0.252 -0.280 -0.259 -0.258 -0.261 -0.259 -0.281 -0.252 -0.260 -0.258 -0.259 -0.259 -0.259 -0.259 -0.259 -0.259 -0.261 -0.253 -0.260 -0.260 -0.280 -0.258 -0.217 -0.252 -0.252 -0.252 -0.252 -0.173


-------- Electronic minimization -----------
Will mix electronic density at each iteration.
	FillingsUpdate:  mu: +0.301029835  nElectrons: 522.000000
	FillingsUpdate:  mu: +0.301028151  nElectrons: 522.000000
SCF: Cycle:  0   F: -2033.062564793757247   dF: -1.038e-05   |Residual|: 1.423e-03   |deigs|: 8.505e-07  t[s]:   9824.19
	FillingsUpdate:  mu: +0.301029403  nElectrons: 522.000000
SCF: Cycle:  1   F: -2033.062568145574005   dF: -3.352e-06   |Residual|: 1.064e-03   |deigs|: 2.083e-05  t[s]:   9905.90
	FillingsUpdate:  mu: +0.301028423  nElectrons: 522.000000
SCF: Cycle:  2   F: -2033.062570637818681   dF: -2.492e-06   |Residual|: 3.429e-04   |deigs|: 1.534e-05  t[s]:   9988.94
	FillingsUpdate:  mu: +0.301028747  nElectrons: 522.000000
SCF: Cycle:  3   F: -2033.062570793813165   dF: -1.560e-07   |Residual|: 1.733e-04   |deigs|: 6.249e-06  t[s]:  10070.36
	FillingsUpdate:  mu: +0.301028571  nElectrons: 522.000000
SCF: Cycle:  4   F: -2033.062570874340963   dF: -8.053e-08   |Residual|: 5.540e-05   |deigs|: 3.808e-06  t[s]:  10151.48
	FillingsUpdate:  mu: +0.301028650  nElectrons: 522.000000
SCF: Cycle:  5   F: -2033.062570880237899   dF: -5.897e-09   |Residual|: 3.230e-05   |deigs|: 1.363e-06  t[s]:  10233.60
	FillingsUpdate:  mu: +0.301028620  nElectrons: 522.000000
SCF: Cycle:  6   F: -2033.062570882540740   dF: -2.303e-09   |Residual|: 1.264e-05   |deigs|: 9.340e-07  t[s]:  10316.13
SCF: Converged (|Delta E|<1.000000e-08 for 2 iters).

Setting wave functions to eigenvectors of Hamiltonian

# Ionic positions in lattice coordinates:
ion Re   0.259156918638392   0.239920917564008   0.260478412794691 1
ion Re   0.000000000000000   0.000000000000000   0.000000000000000 0
ion Re   0.251216826136499   0.248678343141465   0.749560792311689 1
ion Re  -0.001323502609850  -0.001063309345691   0.500616933005093 1
ion Re   0.249921937100073   0.749466050457932   0.250106119021604 1
ion Re  -0.010592283866192   0.510038517294923  -0.009218685835970 1
ion Re   0.251279045011828   0.750538196337907   0.749326373615497 1
ion Re  -0.001534572291505   0.500884899732605   0.500911284852828 1
ion Re   0.749258912274452   0.248744501745933   0.251272340726989 1
ion Re   0.500369838847751  -0.001005876897839  -0.001052372483961 1
ion Re   0.749927952838016   0.249398730744557   0.750115263219794 1
ion Re   0.503151495352815  -0.003155070804913   0.503277961500826 1
ion Re   0.749164628609034   0.750772536456766   0.251406126011240 1
ion Re   0.500602856230247   0.500931510122340  -0.001424063819556 1
ion Re   0.746589878406532   0.753036532066284   0.746751161145726 1
ion Re   0.499963695915646   0.499889543418317   0.500031839466753 1
ion O   0.120741299752839   0.378421895203917   0.366936472353590 1
ion O   0.369785361208732   0.374965108040969   0.124844995313548 1
ion O   0.121810323927333   0.132192314703487   0.367072468703668 1
ion O   0.370188707252713   0.129482967792724   0.125240472486954 1
ion O   0.371577993901187   0.123862653940302   0.382028969248619 1
ion O   0.126269184925569   0.372666556249058   0.623731397859770 1
ion O   0.124627962551245   0.374978448519875   0.880072892821290 1
ion O   0.374075276463422   0.375213859582999   0.625254697686035 1
ion O   0.125389002408581   0.124931003475404   0.875189430536120 1
ion O   0.377525127239519   0.122573819398268   0.627168940547034 1
ion O   0.373904289063569   0.126307686874181   0.876122534648996 1
ion O   0.124257850409842   0.874876010573100   0.125747551656168 1
ion O   0.125041721003436   0.874434619034705   0.375696195876206 1
ion O   0.374596496059423   0.875341623515862   0.124943459135804 1
ion O   0.125208818951853   0.623730034747784   0.375480019286192 1
ion O   0.374697679887940   0.624843735864865   0.124274249218546 1
ion O   0.375691195864502   0.624563271520083   0.374302735092421 1
ion O   0.125895488186064   0.876527554347940   0.624019994375024 1
ion O   0.125528269441935   0.873973672325287   0.875424118964468 1
ion O   0.376872754260887   0.873461419445582   0.626731886829665 1
ion O   0.125205179656873   0.619814321861345   0.879939125835714 1
ion O   0.374233448945105   0.625569364345664   0.624794136347671 1
ion O   0.374715675968297   0.623365573871901   0.875197813697790 1
ion O   0.625988859274195   0.376794855108846   0.123948005897415 1
ion O   0.625698525717232   0.374370591132993   0.375116322621445 1
ion O   0.882660651537483   0.371741413700580   0.128728158445392 1
ion O   0.623048009675856   0.126333747570733   0.373924552213868 1
ion O   0.874403023613162   0.125835123738697   0.124652463649602 1
ion O   0.873078507523295   0.122155453284495   0.376810035915986 1
ion O   0.624154125746607   0.374653645189501   0.625864790593047 1
ion O   0.624947163690061   0.374077195161808   0.876000953794050 1
ion O   0.874775720470884   0.375111238900052   0.624560310896838 1
ion O   0.624941379471528   0.123970956294961   0.875754971436811 1
ion O   0.874956141119185   0.124905985568132   0.624219854944308 1
ion O   0.875700753361470   0.124496893780625   0.874322726289907 1
ion O   0.626223102140908   0.872794494428522   0.123785723652203 1
ion O   0.622589086793035   0.877277504861008   0.373492603573279 1
ion O   0.874401707918235   0.874976116014338   0.125064425876458 1
ion O   0.625616958537759   0.624719982020187   0.375012304606377 1
ion O   0.883287000557847   0.617113338804911   0.128602534513542 1
ion O   0.872331494369680   0.627880193754217   0.377662869407265 1
ion O   0.629069945479094   0.874422089054336   0.620788007518062 1
ion O   0.622574044248398   0.876505148344879   0.872912287517625 1
ion O   0.875803837254307   0.873186640528509   0.626820260781617 1
ion O   0.623344291463486   0.626679790300333   0.872716119103764 1
ion O   0.876434081018602   0.623159636204243   0.627250631523387 1
ion O   0.867858969438180   0.627242605565248   0.878327350013963 1

# Forces in Lattice coordinates:
force Re  -0.003181233378879  -0.001151953232968  -0.002758230738216 1
force Re  -0.007459786429737  -0.013177857310552  -0.004015768609902 0
force Re  -0.002007937663898   0.000013684808517  -0.001216760455859 1
force Re   0.003807278540626   0.001215124196505   0.002813691211456 1
force Re   0.000936916612134   0.000759183539239  -0.000423076373089 1
force Re   0.002517184801746  -0.000449514892218   0.000374068544020 1
force Re  -0.000644336838416   0.001568979097711   0.001418944768873 1
force Re   0.002097556273595   0.000196240887026   0.001480203582876 1
force Re  -0.002313152584177  -0.000054332492728  -0.001568359726939 1
force Re   0.000815549918552   0.000311249710634   0.001958809072973 1
force Re   0.002023036317328   0.003916574030503   0.002443626571762 1
force Re  -0.002677076427722  -0.000807246191603  -0.001120611158767 1
force Re  -0.001365515883588  -0.000727496270509  -0.002046227313507 1
force Re   0.000736262259458   0.000512949074109   0.001525031790572 1
force Re  -0.001850262066895  -0.002153072461939  -0.001201952877452 1
force Re   0.001026014750602   0.001888659580961  -0.000355715591580 1
force O   0.002681122867712   0.001681414369962  -0.000237629794218 1
force O  -0.001601911288940   0.002282101622407  -0.000927510848673 1
force O   0.001844805174690   0.003709850725888   0.001382720146242 1
force O   0.000715653607119   0.001550478718116  -0.000521670558378 1
force O   0.002148699464863  -0.000911982885688  -0.000506658674377 1
force O   0.000306888154152   0.002847818312763   0.002327997186999 1
force O   0.001107413933404  -0.000309723963583  -0.000258864517824 1
force O   0.001200838841350   0.001866531744656  -0.000060967827300 1
force O  -0.000638771683537   0.000606170507311   0.000541329545490 1
force O  -0.004327825907613  -0.003222010751178  -0.003312915812035 1
force O   0.000247701186610  -0.000006357972838  -0.000055156219543 1
force O  -0.000135780318094   0.000790071799849   0.000863799165766 1
force O  -0.000382820901296  -0.001986013987397   0.000000315031414 1
force O  -0.000708398405769  -0.000565818645361  -0.001237037425259 1
force O   0.000525715138058   0.002040807743548  -0.000626190276335 1
force O  -0.000277578541296  -0.000283597366042   0.002337839867853 1
force O  -0.000717354218171  -0.000042159122438   0.000200773026392 1
force O  -0.000292579380554  -0.000580036211416   0.001577267935065 1
force O  -0.001951542209014   0.000407099593552  -0.001193301554548 1
force O  -0.001521041047661  -0.000752491174529  -0.001984117926211 1
force O   0.002311940077762   0.000695918202150   0.001501611361883 1
force O  -0.000059346193833  -0.000308347411096   0.000252073358166 1
force O   0.000015167352163   0.002503949771721   0.002868946873366 1
force O  -0.004539105321195  -0.004308109290457  -0.001653888942795 1
force O  -0.001443141039323   0.000178724164533   0.000438616692516 1
force O   0.000429465028747  -0.002450876263254  -0.003969953027084 1
force O  -0.000042652933786  -0.004888294060532  -0.001534072899281 1
force O   0.001761752744565  -0.000052826839463  -0.001387739270037 1
force O   0.001039550307550  -0.000348304702982   0.000452782333208 1
force O   0.001024275169766   0.003643293737276   0.000818965098330 1
force O  -0.000312913040747   0.000221105873598   0.000864272823329 1
force O   0.001372818996790   0.000471825090345   0.000265943002958 1
force O   0.000879263203167   0.001288818358249  -0.000383869451206 1
force O   0.000793825016244   0.001720830163045   0.000712911072524 1
force O   0.001125425133732   0.001965963422395   0.001049012277506 1
force O   0.000582720974006   0.001632013178582   0.000841331007175 1
force O   0.000387057505185  -0.001432037573698   0.001720975193714 1
force O   0.000708263979201   0.001307830182568  -0.000009974040792 1
force O  -0.000373742665650  -0.000887260482143  -0.000672166523315 1
force O  -0.001953837340120  -0.002930666535706  -0.000282569327460 1
force O   0.000570478089535  -0.001236485518070  -0.002186230280186 1
force O   0.002204411585032   0.000961498370074   0.004754091909310 1
force O   0.001538989043343   0.002023510454721  -0.000666001266935 1
force O  -0.000320248091240  -0.000957364604935   0.000842293012648 1
force O   0.000309620223083   0.000627490755025   0.001904077351249 1
force O   0.000381945860698   0.002241297012687   0.000066381356596 1
force O   0.003188967750575  -0.001067868484296  -0.001171974295260 1

# Energy components:
   Eewald =    -1244.9509982709253109
       EH =      649.7840301215771888
     Eloc =    -1699.1730265487101406
      Enl =     -146.4288410717864508
      Exc =     -584.7490434697781438
 Exc_core =      247.7934094577498740
       KE =      744.8022983083708368
-------------------------------------
     Etot =    -2032.9221714735019759
       TS =        0.1403994090388364
-------------------------------------
        F =    -2033.0625708825407401

IonicMinimize: Iter:  11  F: -2033.062570882540740  |grad|_K:  8.385e-05  alpha:  1.000e+00  linmin: -1.859e-01  t[s]:  10344.29
IonicMinimize: Converged (|grad|_K<1.000000e-04).

#--- Lowdin population analysis ---
# oxidation-state Re +0.853 +0.849 +0.837 +0.838 +0.849 +0.853 +0.837 +0.838 +0.838 +0.837 +0.849 +0.821 +0.838 +0.837 +0.821 +0.848
# oxidation-state O -0.281 -0.280 -0.280 -0.280 -0.173 -0.261 -0.281 -0.259 -0.259 -0.252 -0.258 -0.259 -0.259 -0.259 -0.260 -0.260 -0.259 -0.261 -0.260 -0.252 -0.280 -0.259 -0.258 -0.261 -0.259 -0.281 -0.252 -0.260 -0.258 -0.259 -0.260 -0.259 -0.259 -0.259 -0.259 -0.261 -0.252 -0.260 -0.260 -0.280 -0.258 -0.217 -0.252 -0.252 -0.252 -0.252 -0.173


Dumping '/data/rc652/ReO3/vac/ReO3_vac.Ecomponents' ... done
End date and time: Wed Jul  3 17:52:38 2024  (Duration: 0-2:52:37.00)
Done!
