--------------------------------------------------------------------------
[[17215,1],0]: A high-performance Open MPI point-to-point messaging module
was unable to find any relevant network interfaces:

Module: OpenFabrics (openib)
  Host: node3219

Another transport will be used instead, although this may result in
lower performance.
--------------------------------------------------------------------------

*************** JDFTx 1.7.0 (git hash 3664913) ***************

Start date and time: Sun Jun 30 21:30:16 2024
Executable jdftx with command-line: -i ReO3_ion.in
Running on hosts (process indices):  node3219.physics.cornell.edu (0-15)
Divided in process groups (process indices):  0 (0)  1 (1)  2 (2)  3 (3)  4 (4)  5 (5)  6 (6)  7 (7)  8 (8)  9 (9)  10 (10)  11 (11)  12 (12)  13 (13)  14 (14)  15 (15)
Resource initialization completed at t[s]:      0.00
Run totals: 16 processes, 32 threads, 0 GPUs


Input parsed successfully to the following command list (including defaults):

basis kpoint-dependent
coords-type Lattice
core-overlap-check vector
coulomb-interaction Periodic
davidson-band-ratio 1.1
dump End Ecomponents
dump-name /data/rc652/ReO3/ion/ReO3_ion.$VAR
elec-cutoff 20 100
elec-eigen-algo Davidson
elec-ex-corr gga-PBEsol
elec-smearing Fermi 0.01
electronic-minimize  \
	dirUpdateScheme      FletcherReeves \
	linminMethod         DirUpdateRecommended \
	nIterations          100 \
	history              15 \
	knormThreshold       0 \
	maxThreshold         no \
	energyDiffThreshold  1e-08 \
	nEnergyDiff          2 \
	alphaTstart          1 \
	alphaTmin            1e-10 \
	updateTestStepSize   yes \
	alphaTreduceFactor   0.1 \
	alphaTincreaseFactor 3 \
	nAlphaAdjustMax      3 \
	wolfeEnergy          0.0001 \
	wolfeGradient        0.9 \
	fdTest               no
electronic-scf  \
	nIterations	50 \
	energyDiffThreshold	1e-08 \
	residualThreshold	1e-07 \
	mixFraction	0.5 \
	qMetric	0.8 \
	history	10 \
	nEigSteps	2 \
	eigDiffThreshold	1e-08 \
	mixedVariable	Density \
	qKerker	0.8 \
	qKappa	-1 \
	verbose	no \
	mixFractionMag	1.5
exchange-regularization WignerSeitzTruncated
fluid None
fluid-ex-corr lda-TF lda-PZ
fluid-gummel-loop 10 1.000000e-05
fluid-minimize  \
	dirUpdateScheme      PolakRibiere \
	linminMethod         DirUpdateRecommended \
	nIterations          100 \
	history              15 \
	knormThreshold       0 \
	maxThreshold         no \
	energyDiffThreshold  0 \
	nEnergyDiff          2 \
	alphaTstart          1 \
	alphaTmin            1e-10 \
	updateTestStepSize   yes \
	alphaTreduceFactor   0.1 \
	alphaTincreaseFactor 3 \
	nAlphaAdjustMax      3 \
	wolfeEnergy          0.0001 \
	wolfeGradient        0.9 \
	fdTest               no
fluid-solvent H2O 55.338 ScalarEOS \
	epsBulk 78.4 \
	pMol 0.92466 \
	epsInf 1.77 \
	Pvap 1.06736e-10 \
	sigmaBulk 4.62e-05 \
	Rvdw 2.61727 \
	Res 1.42 \
	tauNuc 343133 \
	poleEl 15 7 1
forces-output-coords Positions
ion Re   0.240940000000000   0.268580000000000   0.257490000000000 1
ion Re   0.000000000000000   0.000000000000000   0.000000000000000 0
ion Re   0.257850000000000   0.261380000000000   0.745960000000000 1
ion Re   0.003580000000000  -0.012380000000000   0.512770000000000 1
ion Re   0.263240000000000   0.749750000000000   0.249520000000000 1
ion Re   0.007480000000000   0.511950000000000  -0.004790000000000 1
ion Re   0.257910000000000   0.747550000000000   0.749150000000000 1
ion Re   0.017000000000000   0.493350000000000   0.502090000000000 1
ion Re   0.736860000000000   0.233120000000000   0.258920000000000 1
ion Re   0.505390000000000   0.019290000000000   0.009920000000000 1
ion Re   0.734340000000000   0.269380000000000   0.767470000000000 1
ion Re   0.502690000000000   0.017560000000000   0.499180000000000 1
ion Re   0.749870000000000   0.750090000000000   0.257760000000000 1
ion Re   0.492550000000000   0.500320000000000   0.005710000000000 1
ion Re   0.744810000000000   0.753670000000000   0.745860000000000 1
ion Re   0.485330000000000   0.499120000000000   0.498590000000000 1
ion O   0.146510000000000   0.364290000000000   0.103790000000000 1
ion O   0.114790000000000   0.401310000000000   0.381200000000000 1
ion O   0.380650000000000   0.351890000000000   0.125720000000000 1
ion O   0.127800000000000   0.131590000000000   0.378200000000000 1
ion O   0.366850000000000   0.112360000000000   0.152760000000000 1
ion O   0.362640000000000   0.130460000000000   0.378470000000000 1
ion O   0.155290000000000   0.378150000000000   0.612850000000000 1
ion O   0.128650000000000   0.407390000000000   0.860910000000000 1
ion O   0.388010000000000   0.362610000000000   0.626120000000000 1
ion O   0.118720000000000   0.131480000000000   0.870300000000000 1
ion O   0.378940000000000   0.114130000000000   0.644990000000000 1
ion O   0.369490000000000   0.117870000000000   0.879290000000000 1
ion O   0.140420000000000   0.886000000000000   0.118570000000000 1
ion O   0.135590000000000   0.900660000000000   0.349050000000000 1
ion O   0.383840000000000   0.859380000000000   0.130030000000000 1
ion O   0.106750000000000   0.642370000000000   0.379420000000000 1
ion O   0.374880000000000   0.616770000000000   0.143790000000000 1
ion O   0.356290000000000   0.614200000000000   0.400700000000000 1
ion O   0.143620000000000   0.864430000000000   0.604510000000000 1
ion O   0.140090000000000   0.889090000000000   0.872200000000000 1
ion O   0.396870000000000   0.850630000000000   0.628690000000000 1
ion O   0.117510000000000   0.626850000000000   0.873550000000000 1
ion O   0.369370000000000   0.608180000000000   0.633010000000000 1
ion O   0.356030000000000   0.621140000000000   0.878430000000000 1
ion O   0.635120000000000   0.361660000000000   0.125630000000000 1
ion O   0.641210000000000   0.391600000000000   0.369460000000000 1
ion O   0.875330000000000   0.343190000000000   0.130320000000000 1
ion O   0.605360000000000   0.140580000000000   0.367340000000000 1
ion O   0.875930000000000   0.129490000000000   0.127610000000000 1
ion O   0.858750000000000   0.105330000000000   0.378240000000000 1
ion O   0.631160000000000   0.379680000000000   0.604050000000000 1
ion O   0.638600000000000   0.383600000000000   0.864000000000000 1
ion O   0.888380000000000   0.342800000000000   0.626020000000000 1
ion O   0.603360000000000   0.144940000000000   0.866860000000000 1
ion O   0.874390000000000   0.119000000000000   0.635880000000000 1
ion O   0.861410000000000   0.127160000000000   0.896310000000000 1
ion O   0.645960000000000   0.881070000000000   0.116870000000000 1
ion O   0.610870000000000   0.889650000000000   0.364600000000000 1
ion O   0.860340000000000   0.853330000000000   0.121550000000000 1
ion O   0.612290000000000   0.624050000000000   0.367370000000000 1
ion O   0.857880000000000   0.617200000000000   0.146720000000000 1
ion O   0.856020000000000   0.635040000000000   0.380750000000000 1
ion O   0.644770000000000   0.876950000000000   0.619970000000000 1
ion O   0.627190000000000   0.883320000000000   0.862300000000000 1
ion O   0.873590000000000   0.845880000000000   0.624880000000000 1
ion O   0.593780000000000   0.635630000000000   0.869560000000000 1
ion O   0.877770000000000   0.596300000000000   0.638100000000000 1
ion O   0.853190000000000   0.620110000000000   0.880770000000000 1
ion-species GBRV/$ID_pbesol.uspp
ion-width 0
ionic-minimize  \
	dirUpdateScheme      L-BFGS \
	linminMethod         DirUpdateRecommended \
	nIterations          30 \
	history              15 \
	knormThreshold       0.0001 \
	maxThreshold         no \
	energyDiffThreshold  1e-06 \
	nEnergyDiff          2 \
	alphaTstart          1 \
	alphaTmin            1e-10 \
	updateTestStepSize   yes \
	alphaTreduceFactor   0.1 \
	alphaTincreaseFactor 3 \
	nAlphaAdjustMax      3 \
	wolfeEnergy          0.0001 \
	wolfeGradient        0.9 \
	fdTest               no
kpoint   0.500000000000   0.500000000000   0.500000000000  1.00000000000000
kpoint-folding 3 3 3 
latt-move-scale 1 1 1
latt-scale 1 1 1 
lattice  \
	  17.374615711169973   17.374615711169973   11.606194863833226  \
	 -10.031044327964366   10.031044327964366    0.000000000000000  \
	  -0.024267139139702   -0.024267139139702   16.364469690354667 
lattice-minimize  \
	dirUpdateScheme      L-BFGS \
	linminMethod         DirUpdateRecommended \
	nIterations          0 \
	history              15 \
	knormThreshold       0 \
	maxThreshold         no \
	energyDiffThreshold  1e-06 \
	nEnergyDiff          2 \
	alphaTstart          1 \
	alphaTmin            1e-10 \
	updateTestStepSize   yes \
	alphaTreduceFactor   0.1 \
	alphaTincreaseFactor 3 \
	nAlphaAdjustMax      3 \
	wolfeEnergy          0.0001 \
	wolfeGradient        0.9 \
	fdTest               no
lcao-params -1 1e-06 0.01
pcm-variant GLSSA13
perturb-minimize  \
	nIterations            0 \
	algorithm              MINRES \
	residualTol            0.0001 \
	residualDiffThreshold  0.0001 \
	CGBypass               no \
	recomputeResidual      no
spintype no-spin
subspace-rotation-factor 1 yes
symmetries automatic
symmetry-threshold 0.0001



---------- Setting up symmetries ----------

Non-trivial transmission matrix:
[   1   0   0  ]
[  -1   1   0  ]
[   0  -1   1  ]
with reduced lattice vectors:
[      0.000000      5.768421     11.606195  ]
[    -20.062089     10.031044      0.000000  ]
[      0.000000    -16.388737     16.364470  ]

Found 48 point-group symmetries of the bravais lattice
Found 1 space-group symmetries with basis
Applied RMS atom displacement 0 bohrs to make symmetries exact.

---------- Initializing the Grid ----------
R = 
[      17.3746      17.3746      11.6062  ]
[      -10.031       10.031            0  ]
[   -0.0242671   -0.0242671      16.3645  ]
unit cell volume = 5709.83
G =
[   0.180636  -0.313187  -0.128113  ]
[   0.180636   0.313187  -0.128113  ]
[ 0.000535737          0   0.383573  ]
Minimum fftbox size, Smin = [  92  92  92  ]
Chosen fftbox size, S = [  96  96  96  ]

---------- Initializing tighter grid for wavefunction operations ----------
R = 
[      17.3746      17.3746      11.6062  ]
[      -10.031       10.031            0  ]
[   -0.0242671   -0.0242671      16.3645  ]
unit cell volume = 5709.83
G =
[   0.180636  -0.313187  -0.128113  ]
[   0.180636   0.313187  -0.128113  ]
[ 0.000535737          0   0.383573  ]
Minimum fftbox size, Smin = [  84  84  84  ]
Chosen fftbox size, S = [  84  84  84  ]

---------- Exchange Correlation functional ----------
Initalized PBEsol GGA exchange.
Initalized PBEsol GGA correlation.

---------- Setting up pseudopotentials ----------
Width of ionic core gaussian charges (only for fluid interactions / plotting) set to 0

Reading pseudopotential file '/home/rc652/build/pseudopotentials/GBRV/re_pbesol.uspp':
  Title: Re.  Created by USPP 7.3.6 on 3-2-2014
  Reference state energy: -94.593113.  15 valence electrons in orbitals:
    |500>  occupation: 2  eigenvalue: -3.320091
    |510>  occupation: 6  eigenvalue: -1.911412
    |520>  occupation: 4.5  eigenvalue: -0.364821
    |600>  occupation: 2  eigenvalue: -0.356243
    |610>  occupation: 0  eigenvalue: -0.155248
  lMax: 3  lLocal: 3  QijEcut: 5.25
  8 projectors sampled on a log grid with 739 points:
    l: 0  eig: -0.356243  rCut: 1.45
    l: 0  eig: -3.320091  rCut: 1.45
    l: 1  eig: -1.911412  rCut: 1.5
    l: 1  eig: -0.155248  rCut: 1.5
    l: 2  eig: -0.364821  rCut: 1.6
    l: 2  eig: 1.000000  rCut: 1.6
    l: 3  eig: -0.500000  rCut: 2.3
    l: 3  eig: 1.500000  rCut: 2.3
  Partial core density with radius 1.15
  Transforming core density to a uniform radial grid of dG=0.02 with 1768 points.
  Transforming local potential to a uniform radial grid of dG=0.02 with 1768 points.
  Transforming nonlocal projectors to a uniform radial grid of dG=0.02 with 432 points.
  Transforming density augmentations to a uniform radial grid of dG=0.02 with 1768 points.
  Transforming atomic orbitals to a uniform radial grid of dG=0.02 with 432 points.
  Core radius for overlap checks: 2.30 bohrs.

Reading pseudopotential file '/home/rc652/build/pseudopotentials/GBRV/o_pbesol.uspp':
  Title: O.  Created by USPP 7.3.6 on 3-2-2014
  Reference state energy: -15.849885.  6 valence electrons in orbitals:
    |200>  occupation: 2  eigenvalue: -0.873214
    |210>  occupation: 4  eigenvalue: -0.330058
  lMax: 2  lLocal: 2  QijEcut: 6
  5 projectors sampled on a log grid with 511 points:
    l: 0  eig: -0.873214  rCut: 1.25
    l: 0  eig: 0.000000  rCut: 1.25
    l: 1  eig: -0.330058  rCut: 1.25
    l: 1  eig: 0.000000  rCut: 1.25
    l: 2  eig: 1.000000  rCut: 1.25
  Partial core density with radius 0.7
  Transforming core density to a uniform radial grid of dG=0.02 with 1768 points.
  Transforming local potential to a uniform radial grid of dG=0.02 with 1768 points.
  Transforming nonlocal projectors to a uniform radial grid of dG=0.02 with 432 points.
  Transforming density augmentations to a uniform radial grid of dG=0.02 with 1768 points.
  Transforming atomic orbitals to a uniform radial grid of dG=0.02 with 432 points.
  Core radius for overlap checks: 1.25 bohrs.

Initialized 2 species with 64 total atoms.

Folded 1 k-points by 3x3x3 to 27 k-points.

---------- Setting up k-points, bands, fillings ----------
Adding inversion symmetry to k-mesh for non-inversion-symmetric unit cell.
Reduced to 14 k-points under symmetry. 
Computing the number of bands and number of electrons
Calculating initial fillings.
nElectrons: 528.000000   nBands: 400   nStates: 14

----- Setting up reduced wavefunction bases (one per k-point) -----
average nbasis = 24386.519 , ideal nbasis = 24392.835

---------- Setting up ewald sum ----------
Optimum gaussian width for ewald sums = 3.616073 bohr.
Real space sum over 729 unit cells with max indices [  4  4  4  ]
Reciprocal space sum over 9261 terms with max indices [  10  10  10  ]

---------- Allocating electronic variables ----------
Initializing wave functions:  linear combination of atomic orbitals
Re pseudo-atom occupations:   s ( 2 0 )  p ( 6 0 )  d ( 7 )
O pseudo-atom occupations:   s ( 2 )  p ( 4 )
	FillingsUpdate:  mu: +0.509336202  nElectrons: 528.000000
LCAOMinimize: Iter:   0  F: -2016.2569302532608617  |grad|_K:  8.643e-03  alpha:  1.000e+00
	FillingsUpdate:  mu: +0.326341005  nElectrons: 528.000000
LCAOMinimize: Iter:   1  F: -2043.6489171193045422  |grad|_K:  2.948e-03  alpha:  2.853e-01  linmin: -2.584e-01  cgtest:  6.943e-01  t[s]:    128.10
LCAOMinimize: Encountered beta<0, resetting CG.
	FillingsUpdate:  mu: +0.300425388  nElectrons: 528.000000
LCAOMinimize: Iter:   2  F: -2045.4694834464191899  |grad|_K:  1.905e-03  alpha:  1.908e-01  linmin: -1.206e-02  cgtest: -1.970e-01  t[s]:    172.01
	FillingsUpdate:  mu: +0.288916250  nElectrons: 528.000000
LCAOMinimize: Iter:   3  F: -2045.9373988417723922  |grad|_K:  7.493e-04  alpha:  1.042e-01  linmin: -1.735e-02  cgtest:  4.783e-01  t[s]:    215.94
LCAOMinimize: Encountered beta<0, resetting CG.
	FillingsUpdate:  mu: +0.298439230  nElectrons: 528.000000
LCAOMinimize: Iter:   4  F: -2046.0112411117902411  |grad|_K:  3.119e-04  alpha:  1.163e-01  linmin: -2.475e-02  cgtest:  1.611e-02  t[s]:    260.52
	FillingsUpdate:  mu: +0.300025138  nElectrons: 528.000000
LCAOMinimize: Iter:   5  F: -2046.0322641772518182  |grad|_K:  2.554e-04  alpha:  1.897e-01  linmin:  9.705e-03  cgtest: -2.231e-02  t[s]:    305.42
	FillingsUpdate:  mu: +0.303683972  nElectrons: 528.000000
LCAOMinimize: Iter:   6  F: -2046.0481574751456719  |grad|_K:  2.040e-04  alpha:  2.227e-01  linmin:  2.515e-05  cgtest:  6.189e-02  t[s]:    350.26
	FillingsUpdate:  mu: +0.304839577  nElectrons: 528.000000
LCAOMinimize: Iter:   7  F: -2046.0553820445504698  |grad|_K:  8.082e-05  alpha:  1.525e-01  linmin:  3.403e-04  cgtest: -1.854e-02  t[s]:    394.50
	FillingsUpdate:  mu: +0.305440532  nElectrons: 528.000000
LCAOMinimize: Iter:   8  F: -2046.0563349851954627  |grad|_K:  2.786e-05  alpha:  1.297e-01  linmin:  5.805e-04  cgtest:  1.630e-03  t[s]:    439.44
	FillingsUpdate:  mu: +0.305545821  nElectrons: 528.000000
LCAOMinimize: Iter:   9  F: -2046.0564362376417193  |grad|_K:  9.973e-06  alpha:  1.160e-01  linmin:  7.030e-05  cgtest:  7.379e-03  t[s]:    484.64
	FillingsUpdate:  mu: +0.305579295  nElectrons: 528.000000
LCAOMinimize: Iter:  10  F: -2046.0564520964171606  |grad|_K:  4.710e-06  alpha:  1.417e-01  linmin:  3.808e-04  cgtest: -2.382e-04  t[s]:    528.44
	FillingsUpdate:  mu: +0.305609734  nElectrons: 528.000000
LCAOMinimize: Iter:  11  F: -2046.0564573683034268  |grad|_K:  3.819e-06  alpha:  2.112e-01  linmin:  6.592e-06  cgtest:  8.310e-04  t[s]:    573.33
	FillingsUpdate:  mu: +0.305595233  nElectrons: 528.000000
LCAOMinimize: Iter:  12  F: -2046.0564609585942435  |grad|_K:  2.987e-06  alpha:  2.187e-01  linmin:  1.884e-05  cgtest: -2.513e-04  t[s]:    617.41
	FillingsUpdate:  mu: +0.305608679  nElectrons: 528.000000
LCAOMinimize: Iter:  13  F: -2046.0564622153990513  |grad|_K:  1.205e-06  alpha:  1.252e-01  linmin:  4.510e-05  cgtest: -3.999e-04  t[s]:    661.44
	FillingsUpdate:  mu: +0.305609563  nElectrons: 528.000000
LCAOMinimize: Iter:  14  F: -2046.0564624298613126  |grad|_K:  4.089e-07  alpha:  1.313e-01  linmin:  4.072e-05  cgtest:  6.273e-04  t[s]:    705.79
	FillingsUpdate:  mu: +0.305608848  nElectrons: 528.000000
LCAOMinimize: Iter:  15  F: -2046.0564624641297087  |grad|_K:  2.766e-07  alpha:  1.818e-01  linmin: -9.567e-04  cgtest:  3.903e-03  t[s]:    749.47
LCAOMinimize: Converged (|Delta F|<1.000000e-06 for 2 iters).


---- Citations for features of the code used in this run ----

   Software package:
      R. Sundararaman, K. Letchworth-Weaver, K.A. Schwarz, D. Gunceler, Y. Ozhabes and T.A. Arias, 'JDFTx: software for joint density-functional theory', SoftwareX 6, 278 (2017)

   gga-PBEsol exchange-correlation functional:
      J.P. Perdew et al., Phys. Rev. Lett. 100, 136406 (2008)

   Pseudopotentials:
      KF Garrity, JW Bennett, KM Rabe and D Vanderbilt, Comput. Mater. Sci. 81, 446 (2014)

This list may not be complete. Please suggest additional citations or
report any other bugs at https://github.com/shankar1729/jdftx/issues

Initialization completed successfully at t[s]:    767.05


-------- Electronic minimization -----------
Will mix electronic density at each iteration.
	FillingsUpdate:  mu: +0.305608848  nElectrons: 528.000000
	FillingsUpdate:  mu: +0.296427127  nElectrons: 528.000000
SCF: Cycle:  0   F: -2048.063303166583410   dF: -2.007e+00   |Residual|: 6.407e-01   |deigs|: 3.916e-02  t[s]:    931.87
	FillingsUpdate:  mu: +0.300773746  nElectrons: 528.000000
SCF: Cycle:  1   F: -2048.231944599078361   dF: -1.686e-01   |Residual|: 3.643e-01   |deigs|: 1.547e-02  t[s]:   1065.41
	FillingsUpdate:  mu: +0.300728457  nElectrons: 528.000000
SCF: Cycle:  2   F: -2048.341458033708932   dF: -1.095e-01   |Residual|: 2.186e-01   |deigs|: 7.911e-03  t[s]:   1200.92
	FillingsUpdate:  mu: +0.301788664  nElectrons: 528.000000
SCF: Cycle:  3   F: -2048.352336698420913   dF: -1.088e-02   |Residual|: 1.565e-01   |deigs|: 3.545e-03  t[s]:   1334.69
	FillingsUpdate:  mu: +0.303066664  nElectrons: 528.000000
SCF: Cycle:  4   F: -2048.408396818928395   dF: -5.606e-02   |Residual|: 3.071e-02   |deigs|: 1.814e-03  t[s]:   1464.56
	FillingsUpdate:  mu: +0.303544188  nElectrons: 528.000000
SCF: Cycle:  5   F: -2048.409357241864200   dF: -9.604e-04   |Residual|: 1.836e-02   |deigs|: 6.105e-04  t[s]:   1546.09
	FillingsUpdate:  mu: +0.304133372  nElectrons: 528.000000
SCF: Cycle:  6   F: -2048.409307373378851   dF: +4.987e-05   |Residual|: 1.376e-02   |deigs|: 7.029e-04  t[s]:   1627.82
	FillingsUpdate:  mu: +0.304349888  nElectrons: 528.000000
SCF: Cycle:  7   F: -2048.409908210772301   dF: -6.008e-04   |Residual|: 6.855e-03   |deigs|: 3.687e-04  t[s]:   1710.81
	FillingsUpdate:  mu: +0.304479468  nElectrons: 528.000000
SCF: Cycle:  8   F: -2048.409990277246379   dF: -8.207e-05   |Residual|: 3.594e-03   |deigs|: 2.002e-04  t[s]:   1791.77
	FillingsUpdate:  mu: +0.304569851  nElectrons: 528.000000
SCF: Cycle:  9   F: -2048.410011014659176   dF: -2.074e-05   |Residual|: 2.230e-03   |deigs|: 1.304e-04  t[s]:   1873.37
	FillingsUpdate:  mu: +0.304639798  nElectrons: 528.000000
SCF: Cycle: 10   F: -2048.410023075643039   dF: -1.206e-05   |Residual|: 7.202e-04   |deigs|: 1.020e-04  t[s]:   1954.41
	FillingsUpdate:  mu: +0.304656046  nElectrons: 528.000000
SCF: Cycle: 11   F: -2048.410024141990107   dF: -1.066e-06   |Residual|: 3.747e-04   |deigs|: 3.597e-05  t[s]:   2036.96
	FillingsUpdate:  mu: +0.304662285  nElectrons: 528.000000
SCF: Cycle: 12   F: -2048.410024353081099   dF: -2.111e-07   |Residual|: 2.329e-04   |deigs|: 2.831e-05  t[s]:   2117.69
	FillingsUpdate:  mu: +0.304664053  nElectrons: 528.000000
SCF: Cycle: 13   F: -2048.410024475901082   dF: -1.228e-07   |Residual|: 1.655e-04   |deigs|: 2.409e-05  t[s]:   2199.35
	FillingsUpdate:  mu: +0.304665358  nElectrons: 528.000000
SCF: Cycle: 14   F: -2048.410024552912546   dF: -7.701e-08   |Residual|: 5.553e-05   |deigs|: 2.090e-05  t[s]:   2280.75
	FillingsUpdate:  mu: +0.304665500  nElectrons: 528.000000
SCF: Cycle: 15   F: -2048.410024556990265   dF: -4.078e-09   |Residual|: 3.363e-05   |deigs|: 1.843e-05  t[s]:   2362.68
	FillingsUpdate:  mu: +0.304665604  nElectrons: 528.000000
SCF: Cycle: 16   F: -2048.410024559902013   dF: -2.912e-09   |Residual|: 1.828e-05   |deigs|: 1.704e-05  t[s]:   2444.10
SCF: Converged (|Delta E|<1.000000e-08 for 2 iters).

Setting wave functions to eigenvectors of Hamiltonian

# Ionic positions in lattice coordinates:
ion Re   0.240940000000000   0.268580000000000   0.257490000000000 1
ion Re   0.000000000000000   0.000000000000000   0.000000000000000 0
ion Re   0.257850000000000   0.261380000000000   0.745960000000000 1
ion Re   0.003580000000000  -0.012380000000000   0.512770000000000 1
ion Re   0.263240000000000   0.749750000000000   0.249520000000000 1
ion Re   0.007480000000000   0.511950000000000  -0.004790000000000 1
ion Re   0.257910000000000   0.747550000000000   0.749150000000000 1
ion Re   0.017000000000000   0.493350000000000   0.502090000000000 1
ion Re   0.736860000000000   0.233120000000000   0.258920000000000 1
ion Re   0.505390000000000   0.019290000000000   0.009920000000000 1
ion Re   0.734340000000000   0.269380000000000   0.767470000000000 1
ion Re   0.502690000000000   0.017560000000000   0.499180000000000 1
ion Re   0.749870000000000   0.750090000000000   0.257760000000000 1
ion Re   0.492550000000000   0.500320000000000   0.005710000000000 1
ion Re   0.744810000000000   0.753670000000000   0.745860000000000 1
ion Re   0.485330000000000   0.499120000000000   0.498590000000000 1
ion O   0.146510000000000   0.364290000000000   0.103790000000000 1
ion O   0.114790000000000   0.401310000000000   0.381200000000000 1
ion O   0.380650000000000   0.351890000000000   0.125720000000000 1
ion O   0.127800000000000   0.131590000000000   0.378200000000000 1
ion O   0.366850000000000   0.112360000000000   0.152760000000000 1
ion O   0.362640000000000   0.130460000000000   0.378470000000000 1
ion O   0.155290000000000   0.378150000000000   0.612850000000000 1
ion O   0.128650000000000   0.407390000000000   0.860910000000000 1
ion O   0.388010000000000   0.362610000000000   0.626120000000000 1
ion O   0.118720000000000   0.131480000000000   0.870300000000000 1
ion O   0.378940000000000   0.114130000000000   0.644990000000000 1
ion O   0.369490000000000   0.117870000000000   0.879290000000000 1
ion O   0.140420000000000   0.886000000000000   0.118570000000000 1
ion O   0.135590000000000   0.900660000000000   0.349050000000000 1
ion O   0.383840000000000   0.859380000000000   0.130030000000000 1
ion O   0.106750000000000   0.642370000000000   0.379420000000000 1
ion O   0.374880000000000   0.616770000000000   0.143790000000000 1
ion O   0.356290000000000   0.614200000000000   0.400700000000000 1
ion O   0.143620000000000   0.864430000000000   0.604510000000000 1
ion O   0.140090000000000   0.889090000000000   0.872200000000000 1
ion O   0.396870000000000   0.850630000000000   0.628690000000000 1
ion O   0.117510000000000   0.626850000000000   0.873550000000000 1
ion O   0.369370000000000   0.608180000000000   0.633010000000000 1
ion O   0.356030000000000   0.621140000000000   0.878430000000000 1
ion O   0.635120000000000   0.361660000000000   0.125630000000000 1
ion O   0.641210000000000   0.391600000000000   0.369460000000000 1
ion O   0.875330000000000   0.343190000000000   0.130320000000000 1
ion O   0.605360000000000   0.140580000000000   0.367340000000000 1
ion O   0.875930000000000   0.129490000000000   0.127610000000000 1
ion O   0.858750000000000   0.105330000000000   0.378240000000000 1
ion O   0.631160000000000   0.379680000000000   0.604050000000000 1
ion O   0.638600000000000   0.383600000000000   0.864000000000000 1
ion O   0.888380000000000   0.342800000000000   0.626020000000000 1
ion O   0.603360000000000   0.144940000000000   0.866860000000000 1
ion O   0.874390000000000   0.119000000000000   0.635880000000000 1
ion O   0.861410000000000   0.127160000000000   0.896310000000000 1
ion O   0.645960000000000   0.881070000000000   0.116870000000000 1
ion O   0.610870000000000   0.889650000000000   0.364600000000000 1
ion O   0.860340000000000   0.853330000000000   0.121550000000000 1
ion O   0.612290000000000   0.624050000000000   0.367370000000000 1
ion O   0.857880000000000   0.617200000000000   0.146720000000000 1
ion O   0.856020000000000   0.635040000000000   0.380750000000000 1
ion O   0.644770000000000   0.876950000000000   0.619970000000000 1
ion O   0.627190000000000   0.883320000000000   0.862300000000000 1
ion O   0.873590000000000   0.845880000000000   0.624880000000000 1
ion O   0.593780000000000   0.635630000000000   0.869560000000000 1
ion O   0.877770000000000   0.596300000000000   0.638100000000000 1
ion O   0.853190000000000   0.620110000000000   0.880770000000000 1

# Forces in Lattice coordinates:
force Re  -2.043691367689586  -2.801593896405002  -0.812106916032500 1
force Re   1.483700233378629   1.316288113549171   0.789914197378792 0
force Re  -0.900454906086615  -1.571139722868574   1.237823413000954 1
force Re  -0.733306892247602   0.789673758743163  -1.085770331244376 1
force Re  -1.598167010785572   0.172867186085437  -0.541637491566945 1
force Re  -2.586943934355365  -2.214830547662108  -0.297293700685329 1
force Re  -0.203388179680083   0.185209928781889  -1.093769867819854 1
force Re  -0.382821264255024   3.109095628253716   3.372549263819288 1
force Re   4.404040662484091   3.725844173839790   1.313280110639957 1
force Re  -2.022372918026496  -2.668943127901244  -1.108548678765247 1
force Re  -0.560143666243213  -4.196804114240439  -5.001440365655236 1
force Re  -2.997741402636096  -3.544813951211266  -0.991514137462545 1
force Re  -2.811590751260606  -2.190355615462884   0.430909947288575 1
force Re   0.356226141750237   0.181096691457541   0.311875158168566 1
force Re  -0.561770769042363  -1.329471728319806   1.712453815783541 1
force Re   3.514148537568428   1.275994306779205   1.443052457600554 1
force O  -0.204941942446491   0.669163824229024   0.456399318014085 1
force O  -0.273725608460414  -3.627262447081068  -4.173488071155273 1
force O   1.671291082588513   1.911751931296342   0.206141128841025 1
force O  -0.788241874201809  -0.171232317099667   0.178927104174603 1
force O   0.206211170564703  -0.220920319592929  -0.540833280342965 1
force O   1.050673044334405   0.737873322035909   1.442557969232374 1
force O  -1.156612726579462  -0.209871410381681  -1.069749673591385 1
force O  -0.310205576404958  -1.280812785971663  -1.047314203089546 1
force O   0.229600071121962  -0.028095049342317   0.031477411389481 1
force O  -0.038346130107401   0.347078058013035   0.270486581580769 1
force O   0.036456931086900  -0.011858750422447  -0.433837580646313 1
force O   0.649517233479467   0.639806618732998   1.027020079451044 1
force O  -0.835736049673421  -0.565680508582917  -0.551876619779406 1
force O  -0.140947835227301  -0.118123398932561   0.615392571509129 1
force O   1.472699401640937   1.118092950282494   0.393148994588139 1
force O   0.392369056421199   0.255237612094346   0.146282158406228 1
force O  -0.373544027835420  -0.990915927612162  -0.757447486612655 1
force O  -1.418590483357817  -0.086838531994280  -1.318484189328486 1
force O   0.408446578700939   0.158131426290754   0.851560871672113 1
force O  -0.788731145406191  -1.247858002723238  -1.016585425681536 1
force O   0.041331333569666   0.471131050977218   0.109062205287895 1
force O   1.106879934323076   1.919201396027491   0.394875185647825 1
force O   0.068192453076367   0.669052905734329   0.669181819905565 1
force O   1.241863391721534  -0.098605159749838   1.662802720102235 1
force O  -1.616697089363074   0.185693366155292  -1.244462905113322 1
force O  -1.111419439681008  -1.518433236695388  -1.163065273762113 1
force O   0.976828418549640   1.309307567744091   0.473225175676681 1
force O  -0.664589148804533  -0.267322879051950   0.108754684733687 1
force O  -0.779956961741783  -1.916234020695387  -1.191075593007667 1
force O   0.679215845869076   0.249263088243155   1.202523293213767 1
force O   0.948390775903956   0.444581615373072   1.614417286302689 1
force O  -0.225127206725336   3.173011653694710   3.060224554073899 1
force O   0.934714124092152   1.033140494957273   0.358644467471160 1
force O   1.011997246124091   1.131204881499234   0.389168321804190 1
force O  -0.312276152449454  -1.218380235109537  -0.730820698519572 1
force O  -0.598672470726983  -0.279531356976571  -0.416771470647148 1
force O  -1.967691011690776  -0.132263798821270  -1.526707693801350 1
force O   0.499974573031618   0.466236553978714   0.562651028385507 1
force O   3.651996136939826   3.193668186726865   0.255903847908534 1
force O   0.308087594464811   1.023564691347329   0.415418623255809 1
force O   0.221800261892685  -1.067402129007626  -1.058896326234374 1
force O   1.258938822530137  -0.009495536550145   1.367815771949309 1
force O  -2.236566288124544  -0.157103893333548  -2.291907908774087 1
force O   0.155099714944877   0.288406914228825   0.461463783426818 1
force O   3.003475838996041   2.357174717865200   0.390131814674574 1
force O   0.574892974354825   0.549078876282954   0.262528396968777 1
force O  -0.266508101085067   0.426258876536228   0.472662841419236 1
force O   0.950731684809554   0.259466173746302   1.003797871185897 1

# Energy components:
   Eewald =    -1260.7774238120362043
       EH =      651.1674916853679633
     Eloc =    -1707.5015430862360972
      Enl =     -144.1683334831687375
      Exc =     -588.6973374203437288
 Exc_core =      247.8565200543940819
       KE =      753.8699089228689445
-------------------------------------
     Etot =    -2048.2507171391534939
       TS =        0.1593074207483866
-------------------------------------
        F =    -2048.4100245599020127

IonicMinimize: Iter:   0  F: -2048.410024559902013  |grad|_K:  6.895e-02  t[s]:   2472.23

#--- Lowdin population analysis ---
# oxidation-state Re +0.818 +0.835 +0.840 +0.833 +0.873 +0.878 +0.808 +0.853 +0.891 +0.872 +0.871 +0.779 +0.948 +0.710 +0.911 +0.908
# oxidation-state O -0.279 -0.148 -0.230 -0.276 -0.215 -0.254 -0.228 -0.248 -0.185 -0.274 -0.227 -0.296 -0.293 -0.284 -0.217 -0.289 -0.234 -0.217 -0.217 -0.251 -0.270 -0.172 -0.280 -0.197 -0.261 -0.301 -0.343 -0.138 -0.230 -0.302 -0.337 -0.088 -0.265 -0.193 -0.308 -0.253 -0.266 -0.318 -0.203 -0.343 -0.300 -0.259 -0.220 -0.315 -0.193 -0.266 -0.320 -0.312


-------- Electronic minimization -----------
Will mix electronic density at each iteration.
	FillingsUpdate:  mu: +0.304665604  nElectrons: 528.000000
	FillingsUpdate:  mu: +0.298458041  nElectrons: 528.000000
SCF: Cycle:  0   F: -2041.523165715202140   dF: +5.096e+00   |Residual|: 1.371e+00   |deigs|: 9.252e-03  t[s]:   2663.33
	FillingsUpdate:  mu: +0.305841848  nElectrons: 528.000000
SCF: Cycle:  1   F: -2046.485725463551944   dF: -4.963e+00   |Residual|: 1.084e+00   |deigs|: 1.553e-02  t[s]:   2796.08
	FillingsUpdate:  mu: +0.304538867  nElectrons: 528.000000
SCF: Cycle:  2   F: -2048.378283536210802   dF: -1.893e+00   |Residual|: 2.693e-01   |deigs|: 1.853e-02  t[s]:   2930.54
	FillingsUpdate:  mu: +0.302211549  nElectrons: 528.000000
SCF: Cycle:  3   F: -2048.322401441822876   dF: +5.588e-02   |Residual|: 2.708e-01   |deigs|: 4.464e-03  t[s]:   3066.53
	FillingsUpdate:  mu: +0.302982321  nElectrons: 528.000000
SCF: Cycle:  4   F: -2048.632812809165898   dF: -3.104e-01   |Residual|: 7.603e-02   |deigs|: 2.623e-03  t[s]:   3198.31
	FillingsUpdate:  mu: +0.303082774  nElectrons: 528.000000
SCF: Cycle:  5   F: -2048.639246421404096   dF: -6.434e-03   |Residual|: 4.346e-02   |deigs|: 7.611e-04  t[s]:   3329.93
	FillingsUpdate:  mu: +0.303147307  nElectrons: 528.000000
SCF: Cycle:  6   F: -2048.646981736954785   dF: -7.735e-03   |Residual|: 2.607e-02   |deigs|: 5.131e-04  t[s]:   3455.58
	FillingsUpdate:  mu: +0.303109870  nElectrons: 528.000000
SCF: Cycle:  7   F: -2048.648450931555544   dF: -1.469e-03   |Residual|: 1.495e-02   |deigs|: 3.988e-04  t[s]:   3537.78
	FillingsUpdate:  mu: +0.303017700  nElectrons: 528.000000
SCF: Cycle:  8   F: -2048.649050161828200   dF: -5.992e-04   |Residual|: 1.019e-02   |deigs|: 2.917e-04  t[s]:   3620.50
	FillingsUpdate:  mu: +0.303047204  nElectrons: 528.000000
SCF: Cycle:  9   F: -2048.649300722490807   dF: -2.506e-04   |Residual|: 6.276e-03   |deigs|: 1.716e-04  t[s]:   3702.14
	FillingsUpdate:  mu: +0.303065979  nElectrons: 528.000000
SCF: Cycle: 10   F: -2048.649423984952591   dF: -1.233e-04   |Residual|: 2.449e-03   |deigs|: 1.159e-04  t[s]:   3785.04
	FillingsUpdate:  mu: +0.303068986  nElectrons: 528.000000
SCF: Cycle: 11   F: -2048.649438664225272   dF: -1.468e-05   |Residual|: 1.196e-03   |deigs|: 4.317e-05  t[s]:   3868.31
	FillingsUpdate:  mu: +0.303065907  nElectrons: 528.000000
SCF: Cycle: 12   F: -2048.649441436519282   dF: -2.772e-06   |Residual|: 7.418e-04   |deigs|: 2.249e-05  t[s]:   3950.58
	FillingsUpdate:  mu: +0.303064704  nElectrons: 528.000000
SCF: Cycle: 13   F: -2048.649441659849799   dF: -2.233e-07   |Residual|: 5.148e-04   |deigs|: 1.787e-05  t[s]:   4032.87
	FillingsUpdate:  mu: +0.303065623  nElectrons: 528.000000
SCF: Cycle: 14   F: -2048.649442444015222   dF: -7.842e-07   |Residual|: 2.002e-04   |deigs|: 1.300e-05  t[s]:   4115.69
	FillingsUpdate:  mu: +0.303065555  nElectrons: 528.000000
SCF: Cycle: 15   F: -2048.649442549621199   dF: -1.056e-07   |Residual|: 1.022e-04   |deigs|: 4.287e-06  t[s]:   4196.35
	FillingsUpdate:  mu: +0.303066109  nElectrons: 528.000000
SCF: Cycle: 16   F: -2048.649442563100365   dF: -1.348e-08   |Residual|: 6.114e-05   |deigs|: 2.337e-06  t[s]:   4279.38
	FillingsUpdate:  mu: +0.303066279  nElectrons: 528.000000
SCF: Cycle: 17   F: -2048.649442567468213   dF: -4.368e-09   |Residual|: 3.899e-05   |deigs|: 1.856e-06  t[s]:   4361.03
	FillingsUpdate:  mu: +0.303066394  nElectrons: 528.000000
SCF: Cycle: 18   F: -2048.649442570094379   dF: -2.626e-09   |Residual|: 1.946e-05   |deigs|: 1.870e-06  t[s]:   4441.38
SCF: Converged (|Delta E|<1.000000e-08 for 2 iters).

Setting wave functions to eigenvectors of Hamiltonian

# Ionic positions in lattice coordinates:
ion Re   0.239925846010678   0.266344484072026   0.258460549013304 1
ion Re   0.000000000000000   0.000000000000000   0.000000000000000 0
ion Re   0.256895977802205   0.259345167438058   0.748451821302248 1
ion Re   0.002813002288127  -0.010692710346483   0.511435005442636 1
ion Re   0.261456992886552   0.750821019200167   0.249439593128425 1
ion Re   0.005365454310312   0.510435116021614  -0.003214766389035 1
ion Re   0.258030223434513   0.748296450318743   0.747835369927053 1
ion Re   0.013925976640493   0.495903209990241   0.505067768268136 1
ion Re   0.740152644398794   0.235319728955484   0.257231873183365 1
ion Re   0.504467600461269   0.017325650850221   0.010470231681143 1
ion Re   0.737368805132415   0.266548317158437   0.763341640990166 1
ion Re   0.500894470849361   0.014882861983847   0.500617513391591 1
ion Re   0.747180700712904   0.748401822784765   0.260296001864507 1
ion Re   0.492781932913163   0.500269711338725   0.005870461246394 1
ion Re   0.743976734830980   0.751599582695445   0.748691656298921 1
ion Re   0.488481818808259   0.498665027318921   0.498404241222115 1
ion O   0.145808833886897   0.364997457652255   0.104154587319110 1
ion O   0.117601950904093   0.398717717378840   0.377727471041207 1
ion O   0.381816697021243   0.353444200317802   0.124525602570616 1
ion O   0.126844214173808   0.131628526714374   0.378802810155785 1
ion O   0.367406127963921   0.112227804432711   0.152112263329178 1
ion O   0.363031408984239   0.130347331400696   0.379492933177086 1
ion O   0.154407629989698   0.378793306136093   0.612107609607008 1
ion O   0.129213039238576   0.406388903141609   0.860285186427380 1
ion O   0.388286136754391   0.362470860383107   0.626076861501959 1
ion O   0.118424848456893   0.131805960560060   0.870502533315845 1
ion O   0.379163625696456   0.114275764847337   0.644455744409992 1
ion O   0.369603485731931   0.117967837050467   0.880011832987758 1
ion O   0.139860155437184   0.885875350659146   0.118467595756616 1
ion O   0.135219306570905   0.900326088210635   0.349898151858198 1
ion O   0.385011083493443   0.859979634254946   0.129461384363030 1
ion O   0.107062460440035   0.642461472753166   0.379335890601292 1
ion O   0.375132910799987   0.616028014343237   0.143424249234464 1
ion O   0.355141641179170   0.615197762987047   0.399712962135969 1
ion O   0.143706870179334   0.864113486646177   0.605310950610538 1
ion O   0.140049026247848   0.888309142097454   0.871791838398530 1
ion O   0.396686204628613   0.851138828015125   0.628615352984123 1
ion O   0.117915499039689   0.628564557233435   0.872808100520684 1
ion O   0.368913268262342   0.608691556478191   0.633521764541287 1
ion O   0.356900754834354   0.619850586202245   0.879979100778411 1
ion O   0.633592585416686   0.363037142424420   0.124702441229899 1
ion O   0.640947042330660   0.390681138515401   0.369113814984752 1
ion O   0.875792465294820   0.344188256327092   0.129970906763911 1
ion O   0.604620647792679   0.140480843441859   0.367846893958445 1
ion O   0.876239206340557   0.127968092841146   0.127256687629546 1
ion O   0.858986015824809   0.104873145813579   0.379319327915004 1
ion O   0.631476711299040   0.379184821498304   0.605440015729195 1
ion O   0.635816648435290   0.386292758237174   0.866511003168740 1
ion O   0.888948990252741   0.343527604610893   0.625660651935313 1
ion O   0.603970590393188   0.145742693814311   0.866466899342548 1
ion O   0.874797874185881   0.117947685049299   0.635613388516492 1
ion O   0.860966959744822   0.127231256497538   0.896160093679913 1
ion O   0.644250177305732   0.882317973135710   0.115870822557100 1
ion O   0.611059759533450   0.889785390626110   0.364890762919436 1
ion O   0.863364109585244   0.855615512875771   0.119101295015844 1
ion O   0.612082620912548   0.624995614155084   0.367335584955719 1
ion O   0.859004719634574   0.616247166556432   0.145780873033707 1
ion O   0.856994336894730   0.633970251555043   0.381899793152597 1
ion O   0.643053502126085   0.878584561300093   0.618164317810812 1
ion O   0.627075347387660   0.883420172293483   0.862679054146079 1
ion O   0.876113224206083   0.847361708232261   0.623191811341041 1
ion O   0.594147845876667   0.635956246389041   0.869424469280465 1
ion O   0.877085733409092   0.596732129234100   0.638606909733026 1
ion O   0.853830127847371   0.619636151639710   0.881495644577280 1

# Forces in Lattice coordinates:
force Re  -1.333560839435614  -2.108996639515608  -0.725255829619926 1
force Re   1.100226410076679   0.942490223703998   0.569729583599720 0
force Re  -0.768447560485495  -1.277943783854434   0.864096056576009 1
force Re  -0.682158840549506   0.430737625828692  -0.990508605469377 1
force Re  -1.313380796740394   0.162819643661435  -0.502585771493157 1
force Re  -1.881142301556360  -1.599124564440684  -0.350281937272989 1
force Re  -0.180097852232428  -0.036952151607362  -0.740060435864445 1
force Re  -0.426174457933514   1.229732096765221   1.177429697789475 1
force Re   3.170065562240370   2.754969829955344   0.935187511388309 1
force Re  -1.731963349496576  -2.261740376402301  -1.186920325829355 1
force Re  -0.387201274395823  -2.206310854884806  -2.891131180603836 1
force Re  -2.281613504968471  -2.742991927289215  -0.856193156678630 1
force Re  -1.656228359649926  -1.204859465341324   0.040552501645086 1
force Re   0.202628486344922   0.007326772435585   0.224282772642674 1
force Re  -0.387831028819542  -0.624564197217993   1.144665847573899 1
force Re   2.463507595143894   0.889928272891153   1.041700073137894 1
force O  -0.191222424436412   0.603051983461059   0.470164398679641 1
force O  -0.143061716393441  -1.958110040403274  -2.290585986627534 1
force O   1.135083825354766   1.439045576131600   0.255308180610912 1
force O  -0.790339383543755  -0.206054061022114   0.142747149254912 1
force O   0.176539390930116  -0.224346363262210  -0.524624100053285 1
force O   0.825491575879098   0.601099562723753   1.227858176574245 1
force O  -0.967275241857878  -0.178070136968691  -0.796273273800909 1
force O  -0.316325210564534  -1.169819894633399  -0.888257218050901 1
force O   0.152587442662621  -0.046903209563059   0.032280760215291 1
force O   0.031782902685447   0.389997891304722   0.273289748047475 1
force O  -0.031113955743276  -0.071374147034118  -0.430221573844215 1
force O   0.602418648805104   0.590424045012742   0.986410550401053 1
force O  -0.766847903591849  -0.527732899172696  -0.517902560331140 1
force O  -0.132543773674894  -0.097168403667517   0.568429449865809 1
force O   1.256870536839270   0.946028349136419   0.369254829230927 1
force O   0.307803768075415   0.216378784113336   0.140774271548830 1
force O  -0.348811890256613  -0.788130158846738  -0.620275628601978 1
force O  -0.848198721784948  -0.051949986420937  -0.849256605590575 1
force O   0.281190101452448   0.235003833220539   0.707858868208400 1
force O  -0.719395939857506  -1.102357801114827  -0.935971082936475 1
force O   0.086539160839633   0.500015239449276   0.093617621491346 1
force O   0.572354239955175   1.319307065933437   0.384575604496791 1
force O   0.116514620631046   0.587653846509618   0.540018177549652 1
force O   0.980389592347926  -0.013761749337558   1.308348985083194 1
force O  -1.250451192210579   0.210297987170455  -0.903547838301422 1
force O  -1.027361392376937  -1.425712479770543  -1.111390928847540 1
force O   1.014910355672215   1.321023171901179   0.447560250687488 1
force O  -0.244422113254688   0.000101625607618   0.166221059483359 1
force O  -0.729429332763156  -1.663977699685552  -0.974092814503559 1
force O   0.685372481600596   0.311974073637249   1.134476572685905 1
force O   0.872512679368181   0.426943071339481   1.430199668091745 1
force O  -0.375179596179599   1.075225902517935   1.091117911647912 1
force O   0.979358938784042   1.097966719588080   0.364882126466919 1
force O   0.719494947440932   0.802473732001598   0.452601984688089 1
force O  -0.295679783285306  -0.979185949486850  -0.561604437208902 1
force O  -0.541102821253839  -0.268963754272749  -0.455224043865042 1
force O  -1.550193107324682  -0.149534154786778  -1.153246268750854 1
force O   0.428820347553739   0.320844852519341   0.464419097735590 1
force O   2.556265111301928   2.179306141417345   0.520216989256635 1
force O   0.411464706370079   1.067765479850133   0.431494882978422 1
force O   0.206383615811496  -0.879215212841562  -0.872732619638898 1
force O   0.972437156129478  -0.007363109136187   1.114431451176894 1
force O  -1.654285324525422  -0.205219113812458  -1.680113064440803 1
force O   0.144327545716730   0.230687645875852   0.405686980623546 1
force O   2.191531598312015   1.721180379501378   0.416815736483269 1
force O   0.691726899522872   0.686017795210048   0.313261525989443 1
force O  -0.253308581504299   0.549900261586468   0.626796084187995 1
force O   0.867664038934554   0.228676571317389   0.929550845200637 1

# Energy components:
   Eewald =    -1265.0110049368427099
       EH =      647.3145071586284303
     Eloc =    -1698.9870024491351614
      Enl =     -144.1541155298541526
      Exc =     -588.4433538582761685
 Exc_core =      247.8564463089822993
       KE =      752.9285218154860786
-------------------------------------
     Etot =    -2048.4960014910111568
       TS =        0.1534410790831109
-------------------------------------
        F =    -2048.6494425700943793

IonicMinimize: Iter:   1  F: -2048.649442570094379  |grad|_K:  4.684e-02  alpha:  3.243e-01  linmin: -9.678e-01  t[s]:   4469.78

#--- Lowdin population analysis ---
# oxidation-state Re +0.838 +0.846 +0.841 +0.837 +0.874 +0.870 +0.821 +0.851 +0.895 +0.872 +0.861 +0.801 +0.934 +0.759 +0.895 +0.906
# oxidation-state O -0.275 -0.197 -0.247 -0.267 -0.219 -0.255 -0.231 -0.250 -0.197 -0.273 -0.229 -0.288 -0.288 -0.279 -0.229 -0.278 -0.241 -0.233 -0.224 -0.254 -0.265 -0.192 -0.276 -0.212 -0.266 -0.298 -0.325 -0.170 -0.232 -0.295 -0.319 -0.148 -0.259 -0.208 -0.296 -0.250 -0.256 -0.303 -0.245 -0.322 -0.291 -0.255 -0.235 -0.303 -0.218 -0.264 -0.284 -0.295


-------- Electronic minimization -----------
Will mix electronic density at each iteration.
	FillingsUpdate:  mu: +0.303066394  nElectrons: 528.000000
	FillingsUpdate:  mu: +0.297643647  nElectrons: 528.000000
SCF: Cycle:  0   F: -2038.082975023347899   dF: +8.483e+00   |Residual|: 1.563e+00   |deigs|: 1.012e-02  t[s]:   4662.66
	FillingsUpdate:  mu: +0.304124761  nElectrons: 528.000000
SCF: Cycle:  1   F: -2045.263734446074750   dF: -7.181e+00   |Residual|: 1.372e+00   |deigs|: 1.894e-02  t[s]:   4797.69
	FillingsUpdate:  mu: +0.304515853  nElectrons: 528.000000
SCF: Cycle:  2   F: -2048.525893061507759   dF: -3.262e+00   |Residual|: 3.601e-01   |deigs|: 2.360e-02  t[s]:   4932.98
	FillingsUpdate:  mu: +0.300916705  nElectrons: 528.000000
SCF: Cycle:  3   F: -2048.463117334088565   dF: +6.278e-02   |Residual|: 3.178e-01   |deigs|: 5.983e-03  t[s]:   5067.86
	FillingsUpdate:  mu: +0.301354939  nElectrons: 528.000000
SCF: Cycle:  4   F: -2048.807253350827068   dF: -3.441e-01   |Residual|: 1.042e-01   |deigs|: 3.645e-03  t[s]:   5200.35
	FillingsUpdate:  mu: +0.301503554  nElectrons: 528.000000
SCF: Cycle:  5   F: -2048.816195368134686   dF: -8.942e-03   |Residual|: 5.311e-02   |deigs|: 8.963e-04  t[s]:   5333.68
	FillingsUpdate:  mu: +0.301776697  nElectrons: 528.000000
SCF: Cycle:  6   F: -2048.831604809433429   dF: -1.541e-02   |Residual|: 3.316e-02   |deigs|: 6.041e-04  t[s]:   5463.21
	FillingsUpdate:  mu: +0.301612149  nElectrons: 528.000000
SCF: Cycle:  7   F: -2048.833441111214142   dF: -1.836e-03   |Residual|: 1.734e-02   |deigs|: 3.814e-04  t[s]:   5574.73
	FillingsUpdate:  mu: +0.301533455  nElectrons: 528.000000
SCF: Cycle:  8   F: -2048.834059551266364   dF: -6.184e-04   |Residual|: 1.061e-02   |deigs|: 2.019e-04  t[s]:   5656.39
	FillingsUpdate:  mu: +0.301574340  nElectrons: 528.000000
SCF: Cycle:  9   F: -2048.834409512369803   dF: -3.500e-04   |Residual|: 5.719e-03   |deigs|: 1.458e-04  t[s]:   5738.68
	FillingsUpdate:  mu: +0.301586994  nElectrons: 528.000000
SCF: Cycle: 10   F: -2048.834508500271113   dF: -9.899e-05   |Residual|: 1.848e-03   |deigs|: 8.100e-05  t[s]:   5819.37
	FillingsUpdate:  mu: +0.301586322  nElectrons: 528.000000
SCF: Cycle: 11   F: -2048.834516512152277   dF: -8.012e-06   |Residual|: 1.040e-03   |deigs|: 3.352e-05  t[s]:   5900.90
	FillingsUpdate:  mu: +0.301584776  nElectrons: 528.000000
SCF: Cycle: 12   F: -2048.834517938644240   dF: -1.426e-06   |Residual|: 6.543e-04   |deigs|: 1.810e-05  t[s]:   5982.60
	FillingsUpdate:  mu: +0.301584655  nElectrons: 528.000000
SCF: Cycle: 13   F: -2048.834518483171905   dF: -5.445e-07   |Residual|: 2.742e-04   |deigs|: 1.313e-05  t[s]:   6063.48
	FillingsUpdate:  mu: +0.301585013  nElectrons: 528.000000
SCF: Cycle: 14   F: -2048.834518701021352   dF: -2.178e-07   |Residual|: 1.214e-04   |deigs|: 5.401e-06  t[s]:   6145.70
	FillingsUpdate:  mu: +0.301585578  nElectrons: 528.000000
SCF: Cycle: 15   F: -2048.834518717031642   dF: -1.601e-08   |Residual|: 7.634e-05   |deigs|: 2.482e-06  t[s]:   6227.60
	FillingsUpdate:  mu: +0.301585781  nElectrons: 528.000000
SCF: Cycle: 16   F: -2048.834518725684120   dF: -8.652e-09   |Residual|: 4.665e-05   |deigs|: 1.790e-06  t[s]:   6310.54
	FillingsUpdate:  mu: +0.301585920  nElectrons: 528.000000
SCF: Cycle: 17   F: -2048.834518730746368   dF: -5.062e-09   |Residual|: 1.887e-05   |deigs|: 1.221e-06  t[s]:   6391.19
SCF: Converged (|Delta E|<1.000000e-08 for 2 iters).

Setting wave functions to eigenvectors of Hamiltonian

# Ionic positions in lattice coordinates:
ion Re   0.239472979697748   0.263336143928398   0.259072365542107 1
ion Re   0.000000000000000   0.000000000000000   0.000000000000000 0
ion Re   0.255529198422439   0.256554175819426   0.751664413916856 1
ion Re   0.001754423796040  -0.008725954170221   0.509435630916788 1
ion Re   0.258825227191062   0.752569810292291   0.249090170948328 1
ion Re   0.002926389979733   0.508783095705305  -0.001779576034885 1
ion Re   0.258200536662691   0.748571539173285   0.746666556932369 1
ion Re   0.012375242367612   0.497045103210761   0.505573112971543 1
ion Re   0.744031054002582   0.238232258196191   0.255082673082130 1
ion Re   0.503242813020925   0.014544981899955   0.010479293291946 1
ion Re   0.739257300364316   0.265184550432967   0.759920673520887 1
ion Re   0.498694392794048   0.011304140365773   0.502210359206731 1
ion Re   0.745137188781219   0.747580097247428   0.261506810509153 1
ion Re   0.493015228543450   0.499836133798463   0.006271794502487 1
ion Re   0.742745604288230   0.750379685116113   0.751365296365760 1
ion Re   0.492061466114604   0.498092041777969   0.498303803453480 1
ion O   0.144500214307357   0.366162095315465   0.105003590377126 1
ion O   0.119551209341817   0.397016177836131   0.375256746619505 1
ion O   0.382774799391360   0.355487578892938   0.123477506320686 1
ion O   0.124986060746384   0.131628122180795   0.379938250703597 1
ion O   0.368411324721672   0.111963972794870   0.150897848102793 1
ion O   0.363439906268851   0.130154278728837   0.381229485681816 1
ion O   0.152932631734161   0.379660366893539   0.611314603520177 1
ion O   0.130011192247648   0.404575624532617   0.859461335628699 1
ion O   0.388592797250416   0.362212635426665   0.626105886703359 1
ion O   0.118022405665799   0.132531925278248   0.870788580421394 1
ion O   0.379442421980484   0.114435112314842   0.643537627372433 1
ion O   0.369772451390246   0.118094304042869   0.881443020785913 1
ion O   0.138886453507688   0.885636026138179   0.118254476225030 1
ion O   0.134529579034437   0.899770281231474   0.351413418058699 1
ion O   0.386846908770121   0.860866018709446   0.128684876008821 1
ion O   0.107447038732913   0.642615251875498   0.379292247622673 1
ion O   0.375330093204035   0.615054802832219   0.142901787304010 1
ion O   0.354246688258764   0.616110118316008   0.398665279637946 1
ion O   0.143509697284603   0.864066859058523   0.606481376631972 1
ion O   0.139944628689857   0.887067847771792   0.870997579675559 1
ion O   0.396458866020061   0.852236230604245   0.628321606386264 1
ion O   0.117559766978428   0.630549052672414   0.872613350796738 1
ion O   0.368409812140584   0.609533618890902   0.634137950286711 1
ion O   0.358053671456222   0.618271440108150   0.882064676198383 1
ion O   0.631369078056497   0.365074718049692   0.123573211964816 1
ion O   0.640542390543454   0.388989781320171   0.368387259362699 1
ion O   0.876880473968420   0.346235950213069   0.129114057988894 1
ion O   0.604232138573793   0.140664624758014   0.368262770762273 1
ion O   0.876488878441478   0.125466782256893   0.126953848007568 1
ion O   0.859491979579225   0.104244472912156   0.381180851319014 1
ion O   0.632087303037154   0.378427828698831   0.607710011682885 1
ion O   0.634466195281273   0.386799695100507   0.867259662059857 1
ion O   0.890175262763089   0.345170575306085   0.624825723125767 1
ion O   0.604481492886901   0.146470827723092   0.866632371265815 1
ion O   0.875198760593968   0.116447325201829   0.635371990148237 1
ion O   0.860307703928671   0.127390407753776   0.895639298198654 1
ion O   0.641850584388207   0.883846020581814   0.114701156051799 1
ion O   0.611479619720939   0.889743471776041   0.365386796563762 1
ion O   0.866480752333466   0.857622520296838   0.117582886618251 1
ion O   0.611958758046318   0.626925393957521   0.367148242170508 1
ion O   0.860783308093030   0.614784786930658   0.144336654259784 1
ion O   0.858246258186228   0.632451808520748   0.383663792836777 1
ion O   0.640980159510073   0.880308103003325   0.616050270183924 1
ion O   0.626939410654513   0.883496681542764   0.863329307333683 1
ion O   0.879057606970516   0.849031358126284   0.621584251044021 1
ion O   0.595085333890230   0.636904777283229   0.869029800666263 1
ion O   0.875418460159120   0.597848026102409   0.640018648519002 1
ion O   0.854955186633612   0.618753867562100   0.882835605031216 1

# Forces in Lattice coordinates:
force Re  -0.743558988718478  -1.546599487959097  -0.686490018777795 1
force Re   0.668216657659811   0.519981936652636   0.264238060216586 0
force Re  -0.595095321699490  -0.927043111910276   0.430756545699352 1
force Re  -0.565809324806141   0.166571966224530  -0.731216481697812 1
force Re  -0.917915807840593   0.122115369103130  -0.374430971180463 1
force Re  -1.268461077248891  -1.077038121735882  -0.403069527711281 1
force Re  -0.215883404135389  -0.211488421598777  -0.418158126257934 1
force Re  -0.428326122961938   0.714000701274929   0.570839001092105 1
force Re   1.879931522688988   1.690136135856578   0.561151002273040 1
force Re  -1.404267301187509  -1.791344502807895  -1.187234353296228 1
force Re  -0.254490245472241  -1.562883543841503  -2.002234953019475 1
force Re  -1.412837450604911  -1.729979600034827  -0.665456388053835 1
force Re  -0.821851366789360  -0.601228248126775  -0.098148296422794 1
force Re   0.090553410514783  -0.063718312413949   0.147399811144672 1
force Re  -0.229992718058513  -0.249753940723993   0.597697289801359 1
force Re   1.441970669272936   0.503055971546684   0.652663551722983 1
force O  -0.174328997168281   0.515243686457032   0.473754210999167 1
force O  -0.106234020760230  -1.351895242049799  -1.597706448522849 1
force O   0.701877571208097   1.029562462919734   0.285325605889423 1
force O  -0.747358059117881  -0.206643314675216   0.100627769115439 1
force O   0.130599491303514  -0.161515834692738  -0.436708436158956 1
force O   0.526543844332044   0.431993577825592   0.940202464546663 1
force O  -0.738599155695897  -0.175826617085319  -0.517860722109820 1
force O  -0.309080665018846  -1.016664818370032  -0.679443692697803 1
force O   0.086544534076628  -0.069378984500612   0.050243262908303 1
force O   0.097775678361839   0.404034980905700   0.270118411762202 1
force O  -0.106695571868006  -0.130476408807076  -0.389275117423511 1
force O   0.483358760143670   0.506574998936234   0.861764344880800 1
force O  -0.655268120415395  -0.464448514829240  -0.459957571158439 1
force O  -0.122912655709635  -0.129234046689583   0.428618907693683 1
force O   0.943001568953836   0.707472333905163   0.316026764964088 1
force O   0.225302876004368   0.176464450926651   0.106057341197513 1
force O  -0.318225417687407  -0.556888030346273  -0.475975750493158 1
force O  -0.373610757749988   0.001134979546747  -0.493896811456942 1
force O   0.158274723774478   0.298268366321663   0.546455107147181 1
force O  -0.629449640075998  -0.894388533362805  -0.795298645524013 1
force O   0.073426856271338   0.448619140391740   0.069985895235887 1
force O   0.190734884069574   0.829423352531113   0.343162275258670 1
force O   0.174971264023058   0.464302189006616   0.385950000923220 1
force O   0.719222245346140   0.057521142246435   0.930257925552002 1
force O  -0.780184655742142   0.235619841891846  -0.531507197287588 1
force O  -0.882739551605216  -1.227618148501590  -0.969692746235375 1
force O   1.035559478777654   1.269408637416270   0.378525127739839 1
force O   0.020727906573730   0.103971505680519   0.216310008351105 1
force O  -0.613147093608634  -1.243916583210489  -0.642052408219013 1
force O   0.638486531166016   0.382805123377127   0.958754006476504 1
force O   0.744730494231409   0.402100760937186   1.157567882800588 1
force O  -0.375199906279434   0.457430952763103   0.462954057098237 1
force O   0.885398108204871   1.024671400920674   0.343779943009162 1
force O   0.480842412783752   0.520508888701650   0.470681306949564 1
force O  -0.270235230224195  -0.743437020649826  -0.423932987826890 1
force O  -0.443078381886421  -0.246547297957028  -0.460730759595390 1
force O  -1.068411686810080  -0.179388620765053  -0.732299840763862 1
force O   0.343902835112500   0.150505910028635   0.326446076446096 1
force O   1.889143151318303   1.575475786706654   0.619655235642507 1
force O   0.396746732970830   0.945982699082819   0.416864382606931 1
force O   0.179164972557856  -0.634652312816925  -0.621961329283023 1
force O   0.599392838061624  -0.040091738725801   0.734660500888572 1
force O  -1.118070597290226  -0.233599146599667  -1.105289069118077 1
force O   0.131356463238717   0.205730320831856   0.366737098272419 1
force O   1.521171120377162   1.214844138407451   0.428320265126103 1
force O   0.700067320106156   0.682355776768840   0.344861283362462 1
force O  -0.193460425677448   0.490507585373774   0.539846376668436 1
force O   0.725409602401233   0.217058133829275   0.802139201752179 1

# Energy components:
   Eewald =    -1268.5017557375933848
       EH =      644.0058499381641468
     Eloc =    -1691.8294502851076686
      Enl =     -144.1389270432920284
      Exc =     -588.2417429551926489
 Exc_core =      247.8563999181440067
       KE =      752.1628393177360294
-------------------------------------
     Etot =    -2048.6867868471408656
       TS =        0.1477318836056678
-------------------------------------
        F =    -2048.8345187307463675

IonicMinimize: Iter:   2  F: -2048.834518730746368  |grad|_K:  3.240e-02  alpha:  4.141e-01  linmin: -9.832e-01  t[s]:   6419.41

#--- Lowdin population analysis ---
# oxidation-state Re +0.842 +0.853 +0.845 +0.842 +0.870 +0.862 +0.832 +0.856 +0.895 +0.871 +0.862 +0.822 +0.917 +0.794 +0.885 +0.900
# oxidation-state O -0.272 -0.212 -0.257 -0.259 -0.224 -0.254 -0.238 -0.253 -0.212 -0.269 -0.235 -0.277 -0.279 -0.271 -0.242 -0.269 -0.247 -0.246 -0.233 -0.260 -0.259 -0.210 -0.270 -0.228 -0.269 -0.293 -0.301 -0.207 -0.236 -0.287 -0.299 -0.175 -0.262 -0.227 -0.290 -0.253 -0.248 -0.288 -0.268 -0.300 -0.282 -0.259 -0.246 -0.290 -0.240 -0.265 -0.275 -0.282


-------- Electronic minimization -----------
Will mix electronic density at each iteration.
	FillingsUpdate:  mu: +0.301585920  nElectrons: 528.000000
	FillingsUpdate:  mu: +0.293715415  nElectrons: 528.000000
SCF: Cycle:  0   F: -2036.871182526216217   dF: +9.510e+00   |Residual|: 1.608e+00   |deigs|: 1.035e-02  t[s]:   6608.96
	FillingsUpdate:  mu: +0.298622299  nElectrons: 528.000000
SCF: Cycle:  1   F: -2044.558857321270580   dF: -7.688e+00   |Residual|: 1.408e+00   |deigs|: 2.125e-02  t[s]:   6742.39
	FillingsUpdate:  mu: +0.302900776  nElectrons: 528.000000
SCF: Cycle:  2   F: -2048.676305826517364   dF: -4.117e+00   |Residual|: 3.774e-01   |deigs|: 2.730e-02  t[s]:   6876.74
	FillingsUpdate:  mu: +0.298935539  nElectrons: 528.000000
SCF: Cycle:  3   F: -2048.576152263454787   dF: +1.002e-01   |Residual|: 3.209e-01   |deigs|: 6.519e-03  t[s]:   7010.98
	FillingsUpdate:  mu: +0.299648267  nElectrons: 528.000000
SCF: Cycle:  4   F: -2048.950300968280317   dF: -3.741e-01   |Residual|: 9.986e-02   |deigs|: 4.682e-03  t[s]:   7144.02
	FillingsUpdate:  mu: +0.300001940  nElectrons: 528.000000
SCF: Cycle:  5   F: -2048.964697706679544   dF: -1.440e-02   |Residual|: 5.105e-02   |deigs|: 1.037e-03  t[s]:   7276.14
	FillingsUpdate:  mu: +0.300153461  nElectrons: 528.000000
SCF: Cycle:  6   F: -2048.978356550550870   dF: -1.366e-02   |Residual|: 3.185e-02   |deigs|: 4.609e-04  t[s]:   7402.17
	FillingsUpdate:  mu: +0.299973093  nElectrons: 528.000000
SCF: Cycle:  7   F: -2048.979766876988833   dF: -1.410e-03   |Residual|: 1.625e-02   |deigs|: 3.962e-04  t[s]:   7507.12
	FillingsUpdate:  mu: +0.299922209  nElectrons: 528.000000
SCF: Cycle:  8   F: -2048.980202386378096   dF: -4.355e-04   |Residual|: 9.983e-03   |deigs|: 1.848e-04  t[s]:   7590.70
	FillingsUpdate:  mu: +0.299967274  nElectrons: 528.000000
SCF: Cycle:  9   F: -2048.980574907552182   dF: -3.725e-04   |Residual|: 5.305e-03   |deigs|: 1.477e-04  t[s]:   7671.38
	FillingsUpdate:  mu: +0.299965925  nElectrons: 528.000000
SCF: Cycle: 10   F: -2048.980674274420835   dF: -9.937e-05   |Residual|: 1.701e-03   |deigs|: 6.009e-05  t[s]:   7751.96
	FillingsUpdate:  mu: +0.299961681  nElectrons: 528.000000
SCF: Cycle: 11   F: -2048.980680253848277   dF: -5.979e-06   |Residual|: 9.576e-04   |deigs|: 2.368e-05  t[s]:   7833.84
	FillingsUpdate:  mu: +0.299960933  nElectrons: 528.000000
SCF: Cycle: 12   F: -2048.980680997052787   dF: -7.432e-07   |Residual|: 6.349e-04   |deigs|: 1.431e-05  t[s]:   7915.39
	FillingsUpdate:  mu: +0.299959296  nElectrons: 528.000000
SCF: Cycle: 13   F: -2048.980681788094898   dF: -7.910e-07   |Residual|: 2.175e-04   |deigs|: 9.335e-06  t[s]:   7997.93
	FillingsUpdate:  mu: +0.299959789  nElectrons: 528.000000
SCF: Cycle: 14   F: -2048.980681863473819   dF: -7.538e-08   |Residual|: 1.252e-04   |deigs|: 3.544e-06  t[s]:   8078.96
	FillingsUpdate:  mu: +0.299960299  nElectrons: 528.000000
SCF: Cycle: 15   F: -2048.980681877535517   dF: -1.406e-08   |Residual|: 7.254e-05   |deigs|: 2.264e-06  t[s]:   8160.99
	FillingsUpdate:  mu: +0.299960217  nElectrons: 528.000000
SCF: Cycle: 16   F: -2048.980681887259379   dF: -9.724e-09   |Residual|: 4.615e-05   |deigs|: 1.741e-06  t[s]:   8243.80
	FillingsUpdate:  mu: +0.299960327  nElectrons: 528.000000
SCF: Cycle: 17   F: -2048.980681892315260   dF: -5.056e-09   |Residual|: 1.556e-05   |deigs|: 1.138e-06  t[s]:   8325.10
SCF: Converged (|Delta E|<1.000000e-08 for 2 iters).

Setting wave functions to eigenvectors of Hamiltonian

# Ionic positions in lattice coordinates:
ion Re   0.240598696944708   0.259490040716006   0.258440512945242 1
ion Re   0.000000000000000   0.000000000000000   0.000000000000000 0
ion Re   0.254100967315294   0.253751879169935   0.754312780789382 1
ion Re   0.000375516333149  -0.007090151512433   0.507492981297227 1
ion Re   0.255982078894949   0.754556440565801   0.248578633310865 1
ion Re   0.000702645522304   0.507387421107421  -0.001291904813107 1
ion Re   0.257980450978656   0.747769707046469   0.746517205808515 1
ion Re   0.010133733149160   0.498666272446336   0.505788217628676 1
ion Re   0.746945067043518   0.240860718754305   0.253321884114536 1
ion Re   0.501849584370909   0.011305295987691   0.009154306935262 1
ion Re   0.741918696727794   0.262949914528981   0.755813636168476 1
ion Re   0.497150427832346   0.008315242202498   0.502783853439967 1
ion Re   0.744525837997474   0.747509207039170   0.261181226212523 1
ion Re   0.493124026032419   0.499105119478908   0.006883603603109 1
ion Re   0.741708604207847   0.750304978510830   0.752715243213052 1
ion Re   0.494741753478653   0.497443833185918   0.498544804154714 1
ion O   0.142319416803158   0.367805181508559   0.106722648773694 1
ion O   0.122008835459683   0.394875604998128   0.372056627540153 1
ion O   0.383065428541798   0.357892136393525   0.123060610378227 1
ion O   0.121876892476374   0.131652278510307   0.381711160391484 1
ion O   0.369689504706312   0.111796665515393   0.149146691606759 1
ion O   0.363373523659845   0.129957189688976   0.383717225239063 1
ion O   0.150964249377141   0.380334157352058   0.610901928069216 1
ion O   0.130875696278432   0.401655846953573   0.858789478313571 1
ion O   0.388832723216708   0.361679566226166   0.626430684651629 1
ion O   0.117612129148015   0.133811945953678   0.871170966740268 1
ion O   0.379566422505547   0.114468138890708   0.642335859025059 1
ion O   0.369780634479577   0.118340496658374   0.883740150936999 1
ion O   0.137484858190344   0.885230383839894   0.117857570584086 1
ion O   0.133667346450902   0.898763575235220   0.353432418164255 1
ion O   0.389031891146920   0.861870798637586   0.127964422634044 1
ion O   0.107876440634875   0.642908344936100   0.379201884509339 1
ion O   0.375190299208780   0.614187636973343   0.142223366063675 1
ion O   0.354274879543704   0.616753516833337   0.397537502195651 1
ion O   0.142687630191581   0.864800317609663   0.607894731635030 1
ion O   0.139583533393437   0.885496785642108   0.869781576683747 1
ion O   0.396058018437443   0.853992582859928   0.627816325481185 1
ion O   0.115995713232779   0.632502600453748   0.873398153750627 1
ion O   0.368312997425230   0.610567978882327   0.634567456975959 1
ion O   0.359380905508932   0.616821497132731   0.884262540438700 1
ion O   0.629139061886750   0.367460989730992   0.122555250496936 1
ion O   0.639947712140123   0.386457953818113   0.367227298833502 1
ion O   0.879252800747461   0.349802321975477   0.127185923951785 1
ion O   0.604499091561042   0.140847974760508   0.368790623669936 1
ion O   0.876205503278477   0.122384917542676   0.127249559041173 1
ion O   0.860343724933450   0.103924187825218   0.383550037065332 1
ion O   0.633045623206675   0.377645843988772   0.610672764079884 1
ion O   0.633038816095450   0.386961203307397   0.867540034920801 1
ion O   0.892013226842851   0.347930703788860   0.623543945086652 1
ion O   0.604713048966040   0.146789361526779   0.867840637022641 1
ion O   0.875451915257666   0.114614993190713   0.635142699962702 1
ion O   0.859602531183542   0.127624807292325   0.894450381921794 1
ion O   0.639307547454890   0.884878704873319   0.113989842319664 1
ion O   0.612366520523733   0.889149246197623   0.365994388097113 1
ion O   0.870137947561469   0.859624461594887   0.116892768997842 1
ion O   0.611816976110266   0.629766654873945   0.367051267285679 1
ion O   0.863009108890516   0.613011755230743   0.142656377063920 1
ion O   0.859290437998165   0.630824584344507   0.385540294844314 1
ion O   0.638929072862971   0.881482170795799   0.614211639426431 1
ion O   0.626704066576364   0.883637710510676   0.864410867784324 1
ion O   0.882021004970215   0.850751447523239   0.620571495510914 1
ion O   0.596749095578286   0.638445076230147   0.868542220035445 1
ion O   0.873148165044438   0.599495940369316   0.641915950121382 1
ion O   0.856478134329644   0.617602289208850   0.884874277690545 1

# Forces in Lattice coordinates:
force Re  -0.445147634828804  -1.084077938547162  -0.570559061027803 1
force Re   0.258750540351920   0.138736486677906  -0.059212733847595 0
force Re  -0.422952647966847  -0.639458641735481   0.094715540140922 1
force Re  -0.388370092498467   0.022559628395104  -0.468473963306815 1
force Re  -0.531185676598675   0.053224867957398  -0.194592268055738 1
force Re  -0.876336543052114  -0.781200860975430  -0.357562208532509 1
force Re  -0.206924158650150  -0.176355294079699  -0.191958053151264 1
force Re  -0.415896310676848   0.211383544852766   0.050205310614363 1
force Re   1.042914090291720   0.971216494539455   0.307351764954262 1
force Re  -0.950445331879967  -1.263054894913465  -0.955369306443739 1
force Re  -0.088333674923433  -0.974828141290183  -1.170388109817036 1
force Re  -0.770649405368501  -0.946589926432886  -0.438270350549824 1
force Re  -0.364701457386499  -0.290189374339904  -0.207847925352079 1
force Re   0.068324041213040  -0.051954389774901   0.022591412295470 1
force Re  -0.118127801136838  -0.133506556097332   0.302156214071714 1
force Re   0.791268088816294   0.257426168485287   0.351762025612093 1
force O  -0.134170327470386   0.402194882268955   0.436339483259536 1
force O  -0.066908526310873  -0.773580477985103  -0.938967531283241 1
force O   0.414839193963311   0.688009070718763   0.268005067274039 1
force O  -0.604222521251552  -0.144698318060018   0.039616536510694 1
force O   0.076396031232411  -0.102911622984601  -0.341987849840566 1
force O   0.239560341539369   0.248733400197923   0.598223347505220 1
force O  -0.567210294755584  -0.163843372407330  -0.321062698811283 1
force O  -0.268590303484985  -0.806035760313696  -0.455704695166317 1
force O   0.078093484812976  -0.063272254548021   0.068925528648549 1
force O   0.107617109410395   0.341686907776753   0.246301132779140 1
force O  -0.145962890982946  -0.150078591609003  -0.308357332697534 1
force O   0.268182435936388   0.384368922328101   0.613627178482467 1
force O  -0.494676636266760  -0.377505887700899  -0.368793163440185 1
force O  -0.113390095527021  -0.193525588981273   0.243827575177165 1
force O   0.551330933931315   0.408442526638771   0.217450406896368 1
force O   0.148875929952294   0.143391392816049   0.072076416455332 1
force O  -0.275768289448909  -0.328847281920333  -0.335254340937485 1
force O  -0.108059753302043   0.044894581506959  -0.320592157441074 1
force O   0.091293613023649   0.306217006502177   0.431774081858853 1
force O  -0.527043761940901  -0.658386583721964  -0.611905128399268 1
force O  -0.048931158707177   0.267668902376849   0.035716405180716 1
force O   0.041318003131830   0.528308166014943   0.262354369056576 1
force O   0.204821918672978   0.314107259203089   0.247359464170100 1
force O   0.489514237551300   0.095312167496706   0.600800890593972 1
force O  -0.337337630421334   0.248032847907056  -0.215060564081683 1
force O  -0.700438790031748  -0.908549212192696  -0.702347316252201 1
force O   0.874916931766399   1.014878586446744   0.276962816930470 1
force O   0.159490483674945   0.124744707433657   0.215658829089576 1
force O  -0.448885637495085  -0.770354050536318  -0.301337928060214 1
force O   0.523984163988119   0.424554719108481   0.696961109226227 1
force O   0.512740280352614   0.324458953654152   0.755225250016864 1
force O  -0.338043316711241   0.033427696920759   0.020417702985736 1
force O   0.682066894126247   0.849093804208539   0.309315017263704 1
force O   0.342634296971132   0.330019995615177   0.416883597647461 1
force O  -0.242398177999626  -0.457706316926302  -0.232765900391542 1
force O  -0.290457624111648  -0.229414994477806  -0.419310355157470 1
force O  -0.641088264866227  -0.195603432183716  -0.385884915009074 1
force O   0.280652404343465   0.043761913474252   0.203453764689268 1
force O   1.433805631628786   1.170260293244559   0.619819721478339 1
force O   0.280283325808064   0.673240443875957   0.375565977759318 1
force O   0.158857096007700  -0.352181385561409  -0.351236219446087 1
force O   0.337708156500800  -0.053563803374802   0.442924212745781 1
force O  -0.670273674910991  -0.213204612405100  -0.649148264679154 1
force O   0.115101451607992   0.176822508442106   0.291831223974109 1
force O   1.029477495387552   0.847774041818051   0.404320269324290 1
force O   0.602799289105933   0.566285128512826   0.363009778161621 1
force O  -0.112474091077973   0.412801419365952   0.403087398594801 1
force O   0.509031765066680   0.215139200472350   0.569243152759056 1

# Energy components:
   Eewald =    -1270.9775770135731818
       EH =      641.5620582378295467
     Eloc =    -1686.6337749760696170
      Enl =     -144.1260760468141484
      Exc =     -588.0920807677885023
 Exc_core =      247.8563647220204587
       KE =      751.5726846818195099
-------------------------------------
     Etot =    -2048.8384011625757921
       TS =        0.1422807297393389
-------------------------------------
        F =    -2048.9806818923152605

IonicMinimize: Iter:   3  F: -2048.980681892315260  |grad|_K:  2.107e-02  alpha:  4.043e-01  linmin: -9.877e-01  t[s]:   8353.74

#--- Lowdin population analysis ---
# oxidation-state Re +0.848 +0.855 +0.850 +0.850 +0.863 +0.861 +0.840 +0.860 +0.887 +0.869 +0.862 +0.839 +0.901 +0.825 +0.878 +0.886
# oxidation-state O -0.272 -0.230 -0.256 -0.256 -0.234 -0.252 -0.243 -0.255 -0.224 -0.263 -0.243 -0.267 -0.268 -0.262 -0.250 -0.262 -0.252 -0.254 -0.244 -0.267 -0.257 -0.224 -0.261 -0.239 -0.265 -0.284 -0.288 -0.231 -0.237 -0.281 -0.280 -0.204 -0.266 -0.243 -0.282 -0.258 -0.249 -0.275 -0.277 -0.284 -0.275 -0.263 -0.250 -0.279 -0.253 -0.269 -0.266 -0.275


-------- Electronic minimization -----------
Will mix electronic density at each iteration.
	FillingsUpdate:  mu: +0.299960327  nElectrons: 528.000000
	FillingsUpdate:  mu: +0.291563157  nElectrons: 528.000000
SCF: Cycle:  0   F: -2042.218966372706745   dF: +4.985e+00   |Residual|: 1.241e+00   |deigs|: 7.120e-03  t[s]:   8545.73
	FillingsUpdate:  mu: +0.296530896  nElectrons: 528.000000
SCF: Cycle:  1   F: -2046.591591670938215   dF: -4.373e+00   |Residual|: 1.016e+00   |deigs|: 1.594e-02  t[s]:   8682.06
	FillingsUpdate:  mu: +0.299888378  nElectrons: 528.000000
SCF: Cycle:  2   F: -2048.906980259739612   dF: -2.315e+00   |Residual|: 2.533e-01   |deigs|: 2.054e-02  t[s]:   8815.07
	FillingsUpdate:  mu: +0.297970632  nElectrons: 528.000000
SCF: Cycle:  3   F: -2048.867604964771999   dF: +3.938e-02   |Residual|: 2.042e-01   |deigs|: 3.573e-03  t[s]:   8948.81
	FillingsUpdate:  mu: +0.298636211  nElectrons: 528.000000
SCF: Cycle:  4   F: -2049.053474263477710   dF: -1.859e-01   |Residual|: 5.634e-02   |deigs|: 3.207e-03  t[s]:   9082.92
	FillingsUpdate:  mu: +0.298810719  nElectrons: 528.000000
SCF: Cycle:  5   F: -2049.060058043899062   dF: -6.584e-03   |Residual|: 3.866e-02   |deigs|: 5.984e-04  t[s]:   9207.74
	FillingsUpdate:  mu: +0.298800029  nElectrons: 528.000000
SCF: Cycle:  6   F: -2049.064659506231692   dF: -4.601e-03   |Residual|: 1.967e-02   |deigs|: 2.623e-04  t[s]:   9317.28
	FillingsUpdate:  mu: +0.298707389  nElectrons: 528.000000
SCF: Cycle:  7   F: -2049.065198127045733   dF: -5.386e-04   |Residual|: 1.095e-02   |deigs|: 2.445e-04  t[s]:   9398.36
	FillingsUpdate:  mu: +0.298708216  nElectrons: 528.000000
SCF: Cycle:  8   F: -2049.065428514814357   dF: -2.304e-04   |Residual|: 7.348e-03   |deigs|: 8.994e-05  t[s]:   9479.75
	FillingsUpdate:  mu: +0.298738555  nElectrons: 528.000000
SCF: Cycle:  9   F: -2049.065630655847144   dF: -2.021e-04   |Residual|: 3.139e-03   |deigs|: 9.018e-05  t[s]:   9561.92
	FillingsUpdate:  mu: +0.298730294  nElectrons: 528.000000
SCF: Cycle: 10   F: -2049.065667432033479   dF: -3.678e-05   |Residual|: 1.231e-03   |deigs|: 4.378e-05  t[s]:   9643.48
	FillingsUpdate:  mu: +0.298720149  nElectrons: 528.000000
SCF: Cycle: 11   F: -2049.065668399111019   dF: -9.671e-07   |Residual|: 8.215e-04   |deigs|: 2.302e-05  t[s]:   9726.96
	FillingsUpdate:  mu: +0.298723231  nElectrons: 528.000000
SCF: Cycle: 12   F: -2049.065669773730406   dF: -1.375e-06   |Residual|: 4.336e-04   |deigs|: 1.365e-05  t[s]:   9810.09
	FillingsUpdate:  mu: +0.298722326  nElectrons: 528.000000
SCF: Cycle: 13   F: -2049.065670174588377   dF: -4.009e-07   |Residual|: 1.408e-04   |deigs|: 5.380e-06  t[s]:   9890.54
	FillingsUpdate:  mu: +0.298722646  nElectrons: 528.000000
SCF: Cycle: 14   F: -2049.065670182371377   dF: -7.783e-09   |Residual|: 8.817e-05   |deigs|: 2.455e-06  t[s]:   9973.01
	FillingsUpdate:  mu: +0.298722654  nElectrons: 528.000000
SCF: Cycle: 15   F: -2049.065670202727233   dF: -2.036e-08   |Residual|: 3.801e-05   |deigs|: 1.889e-06  t[s]:  10056.12
	FillingsUpdate:  mu: +0.298722653  nElectrons: 528.000000
SCF: Cycle: 16   F: -2049.065670205143306   dF: -2.416e-09   |Residual|: 1.929e-05   |deigs|: 1.212e-06  t[s]:  10139.28
	FillingsUpdate:  mu: +0.298722637  nElectrons: 528.000000
SCF: Cycle: 17   F: -2049.065670205833158   dF: -6.899e-10   |Residual|: 1.073e-05   |deigs|: 1.085e-06  t[s]:  10220.88
SCF: Converged (|Delta E|<1.000000e-08 for 2 iters).

Setting wave functions to eigenvectors of Hamiltonian

# Ionic positions in lattice coordinates:
ion Re   0.241923526521987   0.255962664921566   0.257393624592685 1
ion Re   0.000000000000000   0.000000000000000   0.000000000000000 0
ion Re   0.253206677649538   0.251658832337623   0.755439705834241 1
ion Re  -0.000693086439413  -0.006210921298030   0.506193576785084 1
ion Re   0.254092808218877   0.755643389753834   0.248500651671962 1
ion Re  -0.001263342003726   0.505816961361896  -0.000967959080271 1
ion Re   0.257229786303817   0.747086490819693   0.746989773613371 1
ion Re   0.008273479728075   0.499613887777742   0.505193470052362 1
ion Re   0.748798809190779   0.242788522103157   0.252071969203820 1
ion Re   0.501133032212675   0.008450294195949   0.007321840538001 1
ion Re   0.744626568840671   0.260507504038281   0.752743989131930 1
ion Re   0.496377519247058   0.006674397996085   0.502630200505635 1
ion Re   0.744882322008492   0.747755036807881   0.259767331684220 1
ion Re   0.493551745466732   0.498691577689729   0.006754814910988 1
ion Re   0.741205520543298   0.750094412549515   0.753499171562988 1
ion Re   0.496552836600670   0.496921842040327   0.498652419181248 1
ion O   0.140008737210983   0.369327704847783   0.108852296902497 1
ion O   0.123845810584025   0.393346820201377   0.369537255154438 1
ion O   0.382964325064732   0.359930116783947   0.123188728309577 1
ion O   0.118723282947429   0.131976610306737   0.383179947273702 1
ion O   0.370762264720181   0.111843856237058   0.147373662027147 1
ion O   0.362735922198799   0.129848533874870   0.385886658412064 1
ion O   0.148829862522400   0.380743786044500   0.610920287855382 1
ion O   0.131479421283660   0.398524850609136   0.858632674361739 1
ion O   0.389188279128461   0.360992384987788   0.626912824197980 1
ion O   0.117217195797356   0.135069142735496   0.871712030463396 1
ion O   0.379418134013027   0.114359079610553   0.641336449344810 1
ion O   0.369164772643265   0.118945543105612   0.885851314011043 1
ion O   0.136249155240475   0.884695974701227   0.117395793396442 1
ion O   0.133114806461945   0.897322061219719   0.355093970088772 1
ion O   0.390401101308650   0.862416608728331   0.127732872598682 1
ion O   0.108177496404400   0.643339000101727   0.379062810056829 1
ion O   0.374597927968290   0.613932806260344   0.141568141589888 1
ion O   0.354946860520600   0.617430823540721   0.396065297536439 1
ion O   0.141573772064008   0.865923804407470   0.609380036797801 1
ion O   0.138853690427538   0.884203993037547   0.868631439611876 1
ion O   0.395068357745124   0.855381723466785   0.627702227420154 1
ion O   0.114332029907343   0.634270876731692   0.874285845288802 1
ion O   0.368828896314126   0.611253157646323   0.634683936198184 1
ion O   0.360518577206836   0.615936741856054   0.885879975778093 1
ion O   0.628013907111496   0.369359676957638   0.121974077994800 1
ion O   0.638964452912976   0.384188358616574   0.366423254197965 1
ion O   0.881963104709594   0.353316600336541   0.125026564604437 1
ion O   0.605292470814952   0.140812963542097   0.369330279630945 1
ion O   0.875291570416554   0.120075006020641   0.128305254431879 1
ion O   0.861174493442271   0.104502625912491   0.385234422670539 1
ion O   0.633816849907240   0.377415223795246   0.612779033581410 1
ion O   0.632061078175894   0.386666320850565   0.867101296366900 1
ion O   0.893514444142532   0.350892590720363   0.622515505680597 1
ion O   0.604991568773564   0.146769960543295   0.869362510810913 1
ion O   0.875016879335578   0.113391836580185   0.635368841519107 1
ion O   0.859499107722828   0.127574194064920   0.892862508535957 1
ion O   0.637571167992088   0.884882119059103   0.114040906334437 1
ion O   0.613622318187972   0.888233714080844   0.366395646805707 1
ion O   0.874018644467307   0.861585661807983   0.116590897017354 1
ion O   0.611416589325096   0.632024195785403   0.367592961897388 1
ion O   0.864813705623626   0.611814344708254   0.141447147669811 1
ion O   0.859987911051359   0.629478824935310   0.387018178508716 1
ion O   0.637550299616270   0.881865744176285   0.613086424497821 1
[...]
ion O   0.374175762245903   0.125318662094942   0.875973493816704 1
ion O   0.124307255566075   0.874918703592976   0.125847729414627 1
ion O   0.124427418042702   0.874429770448842   0.376258178512844 1
ion O   0.374135615246575   0.874769968936905   0.126082233359313 1
ion O   0.123986323936638   0.624895596924429   0.375931307813857 1
ion O   0.374330323373332   0.624773134496790   0.125925442744823 1
ion O   0.374367914941627   0.624692608833824   0.375850957567534 1
ion O   0.124464506405069   0.874783827892667   0.625893265989817 1
ion O   0.124918798934016   0.874779001837101   0.875538383495077 1
ion O   0.374727359572313   0.874966818801366   0.625522398578467 1
ion O   0.124740724513975   0.624895596748361   0.875563420938539 1
ion O   0.374990528787109   0.624985631287670   0.625410846319440 1
ion O   0.374602227002545   0.624758811805333   0.875705332551709 1
ion O   0.624528780111490   0.374777768642062   0.125746199302432 1
ion O   0.624771628342455   0.374854591723314   0.375523336330755 1
ion O   0.874732421660303   0.374926299995334   0.125615451945250 1
ion O   0.624876859900609   0.124796077273377   0.375517790591656 1
ion O   0.874815549834823   0.125146060052176   0.125122535708999 1
ion O   0.874833531095132   0.124707722854392   0.375502311112654 1
ion O   0.624340116256286   0.374671331914119   0.625816013091507 1
ion O   0.624206927869626   0.374684288176990   0.875943618227222 1
ion O   0.874067098522249   0.374812643831296   0.625967292536962 1
ion O   0.624285844754000   0.124595271212390   0.876118430440215 1
ion O   0.874293005847418   0.124648925239272   0.625986313979454 1
ion O   0.874676908386380   0.124800209973763   0.875472225428618 1
ion O   0.624515788596067   0.874654552381732   0.125532422731289 1
ion O   0.624374426332407   0.875432305248304   0.375148502197081 1
ion O   0.874641798088588   0.875063344198820   0.125289718394804 1
ion O   0.624534388964508   0.625079867268981   0.375400203885827 1
ion O   0.874851757471690   0.624995845855217   0.125575106208219 1
ion O   0.874064830602385   0.625142485177269   0.375927537237952 1
ion O   0.624807199244394   0.874542727420924   0.625484451513525 1
ion O   0.623860486654389   0.874913435250356   0.875854742624811 1
ion O   0.874276125222693   0.874824802831381   0.625970262693766 1
ion O   0.624415710995800   0.624729541831968   0.875935073505667 1
ion O   0.874325058166858   0.624540098600935   0.626232182288335 1
ion O   0.874408789274979   0.625099817766236   0.875850084960366 1

# Forces in Lattice coordinates:
force Re   0.000969986200231   0.000250511707131  -0.005658410171766 1
force Re  -0.002154978444517   0.005082478884685   0.026135981717914 0
force Re  -0.000682485894312  -0.003890631607671   0.001676105439872 1
force Re  -0.006619265823429  -0.011679235427187  -0.006357976044674 1
force Re   0.004704202384906   0.008652377186266   0.005016268617720 1
force Re  -0.001069751764887  -0.002671106046774  -0.001701598503189 1
force Re   0.001679050858430  -0.001047340382471  -0.001364497188797 1
force Re   0.002675269073830   0.003033876939949   0.003708879756032 1
force Re   0.001619547065303  -0.000719040530484   0.001119807449285 1
force Re  -0.000378423912868  -0.003101208705984  -0.002965062070255 1
force Re   0.002346314934573   0.005699967512538   0.003399007166807 1
force Re   0.001571659695671  -0.002780182858868   0.003906542182969 1
force Re  -0.004841732419981  -0.003425193916609   0.001565737248812 1
force Re  -0.002731033039811  -0.007091842607445  -0.005073491547245 1
force Re  -0.000120722837951   0.003834882466223  -0.004506941011749 1
force Re   0.001352293206090   0.003439538589311  -0.002268534520255 1
force O  -0.000969113020888  -0.000919522391537   0.000906906964085 1
force O   0.000055592206336  -0.002066619379471  -0.004050959525841 1
force O  -0.000005328248265   0.001183422825294   0.002160005685066 1
force O   0.002473725471643   0.004232137061146   0.003725284389264 1
force O   0.000521014796669   0.002417565099221   0.000974819417527 1
force O  -0.003128221663737  -0.001790175727261  -0.003851094123075 1
force O   0.000130835552841   0.000600533039853  -0.000321886143528 1
force O   0.000279611620187   0.000922900249315  -0.001243761657520 1
force O  -0.000968921442935   0.000002930679662   0.002317606541322 1
force O   0.001581214633387   0.003157821551915   0.003344931608259 1
force O  -0.002847660077591  -0.000019667265575   0.000634394982218 1
force O  -0.003322925940382  -0.003851078544346  -0.003397554625968 1
force O   0.001542748219954  -0.000645319850963  -0.003563448615301 1
force O  -0.003201556360292   0.000375491454349  -0.004556701119689 1
force O  -0.001840396444890   0.000337360574262  -0.002281335389131 1
force O   0.002637058174806  -0.001439037297174  -0.000772985285093 1
force O  -0.003199957086665  -0.002099276116160  -0.001912742901301 1
force O  -0.001226510953769  -0.000781104176599  -0.004763802148575 1
force O   0.002340705309833   0.001880543248013  -0.000353053401276 1
force O  -0.001563030245082  -0.001050666766380  -0.002620003024777 1
force O  -0.002249784854982  -0.001087251478433   0.001066589411374 1
force O   0.000561885286002  -0.002461690624768  -0.001535610887905 1
force O  -0.006629699605109  -0.003684810995309  -0.002439662244952 1
force O   0.002299394396153   0.002457892967705   0.001599388170356 1
force O   0.002252061257284   0.002202419271026   0.001389264051577 1
force O   0.000126261556673  -0.002557247494545  -0.002097763515282 1
force O  -0.002460051922534  -0.000404274696623  -0.001055895265981 1
force O   0.001012134613830   0.000889846356084  -0.000625408066889 1
force O   0.000532943223349  -0.000002479869928   0.000821738460808 1
force O  -0.001915179449457   0.001043568213451   0.000610224633566 1
force O   0.004067991074908   0.001593182697185   0.000622930519427 1
force O   0.002461797341678   0.001038200618178   0.002601195028612 1
force O   0.001073706603868   0.001070846794674  -0.001737375825313 1
force O   0.001603826542494   0.003033187259299  -0.002691048012567 1
force O  -0.001469479354101   0.001312099957590  -0.003116029462437 1
force O  -0.001373436849219  -0.000340137454080  -0.002085691963812 1
force O   0.003077895425426   0.002196106630314   0.002753099049540 1
force O   0.000723964177258  -0.003395538477910  -0.000747381025208 1
force O   0.001379619170349   0.001305334939125   0.001348212538030 1
force O   0.004576519356635  -0.000224445026163   0.001345015692215 1
force O  -0.000256629619571  -0.001981250964201   0.000905381945356 1
force O   0.002174135137237   0.000945829067388   0.001378024622143 1
force O  -0.001601316695688   0.002416589395722   0.001098728033698 1
force O   0.001944433074062   0.001166927111061  -0.000459829172068 1
force O   0.002756623463881   0.003048103430953   0.000491968821521 1
force O  -0.000964883110256  -0.000790120647762   0.000923683500451 1
force O   0.001753426917446  -0.001191788640374  -0.002320355591609 1
force O  -0.000012324750529  -0.000359805131428   0.003093860578672 1

# Energy components:
   Eewald =    -1265.9681243945913138
       EH =      646.2548117236029839
     Eloc =    -1696.6188346489252581
      Enl =     -144.0923725056447324
      Exc =     -588.2685217819824857
 Exc_core =      247.8562570285511129
       KE =      751.7797546164031246
-------------------------------------
     Etot =    -2049.0570299625860571
       TS =        0.1283863310267034
-------------------------------------
        F =    -2049.1854162936128887

IonicMinimize: Iter:  28  F: -2049.185416293612889  |grad|_K:  1.317e-04  alpha:  1.000e+00  linmin:  3.538e-02  t[s]:  42815.27

#--- Lowdin population analysis ---
# oxidation-state Re +0.861 +0.862 +0.861 +0.862 +0.862 +0.862 +0.862 +0.862 +0.862 +0.862 +0.861 +0.862 +0.862 +0.862 +0.862 +0.862
# oxidation-state O -0.258 -0.258 -0.258 -0.258 -0.258 -0.258 -0.259 -0.258 -0.258 -0.258 -0.259 -0.259 -0.259 -0.258 -0.259 -0.258 -0.258 -0.259 -0.258 -0.258 -0.259 -0.258 -0.258 -0.258 -0.258 -0.259 -0.258 -0.258 -0.259 -0.259 -0.258 -0.259 -0.258 -0.258 -0.258 -0.258 -0.258 -0.258 -0.259 -0.259 -0.258 -0.258 -0.259 -0.259 -0.259 -0.258 -0.258 -0.258


-------- Electronic minimization -----------
Will mix electronic density at each iteration.
	FillingsUpdate:  mu: +0.297923393  nElectrons: 528.000000
	FillingsUpdate:  mu: +0.297923378  nElectrons: 528.000000
SCF: Cycle:  0   F: -2049.185413151503326   dF: +1.284e-06   |Residual|: 1.437e-03   |deigs|: 9.807e-08  t[s]:  42954.70
	FillingsUpdate:  mu: +0.297923329  nElectrons: 528.000000
SCF: Cycle:  1   F: -2049.185417730138852   dF: -4.579e-06   |Residual|: 1.324e-03   |deigs|: 4.066e-06  t[s]:  43036.11
	FillingsUpdate:  mu: +0.297923340  nElectrons: 528.000000
SCF: Cycle:  2   F: -2049.185421034786486   dF: -3.305e-06   |Residual|: 2.321e-04   |deigs|: 5.927e-06  t[s]:  43119.12
	FillingsUpdate:  mu: +0.297923354  nElectrons: 528.000000
SCF: Cycle:  3   F: -2049.185421081848290   dF: -4.706e-08   |Residual|: 1.178e-04   |deigs|: 3.421e-07  t[s]:  43200.91
	FillingsUpdate:  mu: +0.297923361  nElectrons: 528.000000
SCF: Cycle:  4   F: -2049.185421109594245   dF: -2.775e-08   |Residual|: 3.860e-05   |deigs|: 3.982e-07  t[s]:  43284.09
	FillingsUpdate:  mu: +0.297923360  nElectrons: 528.000000
SCF: Cycle:  5   F: -2049.185421114944347   dF: -5.350e-09   |Residual|: 2.531e-05   |deigs|: 2.510e-07  t[s]:  43366.00
	FillingsUpdate:  mu: +0.297923358  nElectrons: 528.000000
SCF: Cycle:  6   F: -2049.185421116045745   dF: -1.101e-09   |Residual|: 1.171e-05   |deigs|: 1.429e-07  t[s]:  43447.97
SCF: Converged (|Delta E|<1.000000e-08 for 2 iters).

Setting wave functions to eigenvectors of Hamiltonian

# Ionic positions in lattice coordinates:
ion Re   0.249323804916841   0.249833294292460   0.251014042649133 1
ion Re   0.000000000000000   0.000000000000000   0.000000000000000 0
ion Re   0.249655590788050   0.250195165775892   0.750386055285391 1
ion Re  -0.000607334842878  -0.000246491379296   0.500971846300693 1
ion Re   0.249059631914062   0.749662066395286   0.251075097156825 1
ion Re  -0.000316269849996   0.499983980688433   0.000638550029998 1
ion Re   0.249888693719739   0.749788600818299   0.750464449166998 1
ion Re  -0.001022998958987   0.499766510345164   0.501027691404161 1
ion Re   0.749908595118082   0.249791655479953   0.250404099920325 1
ion Re   0.499017798060190  -0.000248259931208   0.001081052300562 1
ion Re   0.749082913142216   0.249655189698904   0.751031298795412 1
ion Re   0.499720591207313   0.000005306584030   0.500583092267735 1
ion Re   0.749621226609363   0.750214701645918   0.250352052951566 1
ion Re   0.499362509826550   0.499778346347287   0.000953004615909 1
ion Re   0.749347485345786   0.749782891686678   0.750983152652890 1
ion Re   0.499771328960615   0.499945485637753   0.500379690799365 1
ion O   0.124731929502424   0.374759506882671   0.125572810758746 1
ion O   0.123922318023368   0.374990680536192   0.375826353955793 1
ion O   0.374370006121201   0.374788322973208   0.125962285405739 1
ion O   0.124415378415230   0.124746325004977   0.375927125880013 1
ion O   0.374438139356121   0.124499143951751   0.126302075341977 1
ion O   0.374219197840369   0.125226802487473   0.376084357165344 1
ion O   0.124552111512605   0.374723813623760   0.625532448390880 1
ion O   0.124390617630907   0.375160783924613   0.875420640508080 1
ion O   0.374568617399618   0.375061756805045   0.625501874021880 1
ion O   0.124862026827542   0.124853284870265   0.875219909510736 1
ion O   0.375095764554004   0.124863682828334   0.625696427079378 1
ion O   0.374110450658989   0.125260175193093   0.876021575727931 1
ion O   0.124378936128637   0.874926257130241   0.125757506038493 1
ion O   0.124398541277792   0.874494519732281   0.376191785390731 1
ion O   0.374147802257128   0.874749265390393   0.126053582862626 1
ion O   0.123970265002282   0.624916770578543   0.375922284789448 1
ion O   0.374268216802673   0.624739964575062   0.125964648002294 1
ion O   0.374340554387584   0.624691428008706   0.375844525261459 1
ion O   0.124515927410379   0.874830691615101   0.625833004310758 1
ion O   0.124914152229811   0.874831924244653   0.875488745613085 1
ion O   0.374737161295845   0.874934543915683   0.625550548579476 1
ion O   0.124727361700773   0.624899204071855   0.875564674477573 1
ion O   0.374906897160979   0.624955379231124   0.625451610623980 1
ion O   0.374578089089298   0.624778644381254   0.875728650804538 1
ion O   0.624589733421044   0.374819938740058   0.125701251021623 1
ion O   0.624783408686278   0.374877143010395   0.375499133251728 1
ion O   0.874744135093861   0.374901263157482   0.125631605681322 1
ion O   0.624864173043852   0.124811010344085   0.375510128718365 1
ion O   0.874796550996954   0.125113198193567   0.125171282168824 1
ion O   0.874776277148681   0.124740510280510   0.375546159737903 1
ion O   0.624392590127998   0.374713698937878   0.625757053909523 1
ion O   0.624246513344751   0.374690053606782   0.875940331085622 1
ion O   0.874098095887469   0.374789829439373   0.625941265519975 1
ion O   0.624248863623392   0.124651168184542   0.876084448170865 1
ion O   0.874239656457596   0.124655626283071   0.625997043549332 1
ion O   0.874640262206976   0.124782782674181   0.875491941921278 1
ion O   0.624558471349429   0.874652066239019   0.125513804935986 1
ion O   0.624399266349483   0.875435439225985   0.375134245974149 1
ion O   0.874667435586407   0.875024903941801   0.125320803296349 1
ion O   0.624532056480845   0.625074144884779   0.375421461734431 1
ion O   0.874842983527304   0.624924807887328   0.125654381185331 1
ion O   0.874024824750663   0.625116076863501   0.375982833500368 1
ion O   0.624827235606426   0.874564555392050   0.625472244056010 1
ion O   0.623891275129822   0.874964626905465   0.875788752350051 1
ion O   0.874344322491442   0.874774851012446   0.625973454838185 1
ion O   0.624391301929946   0.624761389532456   0.875964546308892 1
ion O   0.874345033325148   0.624504348298364   0.626247331247413 1
ion O   0.874355874117596   0.625096317139523   0.875914229181782 1

# Forces in Lattice coordinates:
force Re  -0.001301022641079  -0.003096547896202  -0.003795647908091 1
force Re  -0.004700357078469   0.003180159482291   0.024948600741332 0
force Re   0.000878660968617  -0.001464446499901   0.004442456805339 1
force Re  -0.001477732505070  -0.004507476931627  -0.003301648858193 1
force Re   0.003839054217401   0.005920360622380   0.001774683142395 1
force Re  -0.000715654179507  -0.002394033479282  -0.003093911660359 1
force Re  -0.000115398369431  -0.000747677342586  -0.000864581665137 1
force Re   0.000511790201514   0.002481684731160   0.001819877037576 1
force Re  -0.000165397914750  -0.000325320700430   0.001434532818921 1
force Re  -0.002450647938644  -0.002675199482725  -0.003736955637189 1
force Re   0.002613258939350   0.003564547130979   0.000659865548299 1
force Re   0.000706973605559  -0.003078190052715   0.000569953588828 1
force Re  -0.001281789217386  -0.000915466077983   0.004480662258929 1
force Re   0.001505016337592  -0.001400885391324  -0.001638963481068 1
force Re  -0.002398561167553  -0.000122406037806  -0.002720168611661 1
force Re   0.000987730442990   0.000425179190660  -0.003436601593985 1
force O  -0.001408493341258  -0.001075647528467  -0.000803559230791 1
force O   0.001469502228340  -0.000847718909190  -0.002193311034434 1
force O   0.000861276406488   0.001510808529471   0.000764774275704 1
force O   0.000561844670523   0.001585241847237   0.001839321458429 1
force O   0.000861530117437   0.000882880152403  -0.001073540762687 1
force O  -0.000467964847109  -0.000871032443983  -0.001590098111029 1
force O   0.000631679161740   0.000785413705096  -0.000310201663166 1
force O   0.000270671587135   0.000522483917268  -0.000886860791911 1
force O   0.000434698998772   0.000523231075467   0.001477022322201 1
force O   0.000992823232859   0.002540082502017   0.002325691565444 1
force O  -0.001876033287512  -0.000504998192447  -0.000555409246325 1
force O  -0.000478506281971  -0.002200956274105  -0.001731053388180 1
force O   0.000827021542569  -0.000205123073824  -0.002192110767765 1
force O  -0.002611740931136   0.000689220664694  -0.003342222434568 1
force O   0.000669828108659   0.001485230022776  -0.001002618909632 1
force O   0.002706053341543  -0.000307048988779   0.000126025982504 1
force O  -0.001651013147356  -0.001626708645551  -0.001818234365452 1
force O   0.000228541970096   0.000475735226846  -0.002468712991432 1
force O   0.000533112572236  -0.000252425889021  -0.001232142441949 1
force O  -0.001540389947752  -0.001531438007235  -0.002337743294169 1
force O  -0.000573270534821  -0.000916226649395   0.000529326783621 1
force O   0.000151742897363  -0.001680671268062  -0.001233203197906 1
force O  -0.004549451765997  -0.002933653747986  -0.002567782456966 1
force O   0.001975732448045   0.000743866465289   0.000594539612829 1
force O  -0.000223036007700   0.000532085228851   0.000238169739439 1
force O  -0.000827814912676  -0.001836974784895  -0.001006936508965 1
force O  -0.001519977615100  -0.000311989818724  -0.001235937315884 1
force O  -0.000494283602300   0.000070787072761   0.000031432296877 1
force O   0.000978279808050  -0.000826070706936   0.000088686353998 1
force O  -0.001594346376240  -0.001008354761518   0.000537420430997 1
force O   0.001486508982469   0.001599594560324   0.000766872958741 1
force O   0.001209529568455   0.001539931701998   0.002293093614120 1
force O   0.001861796207063   0.001678292597494  -0.000321102904551 1
force O  -0.000000361269191   0.001877127614057  -0.002123531306735 1
force O  -0.001180184368007  -0.000168446007475  -0.003289751163247 1
force O  -0.000731366405863   0.000218626290892  -0.000905887481457 1
force O   0.001062794776424   0.001542277828545   0.000797175544313 1
force O  -0.000059997041269  -0.002454781453965   0.000809456519202 1
force O   0.001327732196166   0.001029658736915   0.000702591174193 1
force O   0.001971917726758  -0.000249616756314   0.000785443993784 1
force O  -0.000326700895717  -0.001518767183185  -0.000128424727855 1
force O   0.002700475775982   0.002020133693457   0.001413724720280 1
force O  -0.001502026812609   0.002132920392371   0.000532425252296 1
force O   0.002203014511707   0.001493090450713   0.000221760662625 1
force O   0.001592294940476   0.002121628818851  -0.000548253250755 1
force O  -0.001481307806741  -0.000600473613307  -0.000629155996848 1
force O   0.002011106604444   0.000452364498418  -0.001073416541208 1
force O   0.000192077887890   0.000212952055429   0.002025281873348 1

# Energy components:
   Eewald =    -1265.9680126808102614
       EH =      646.2549098758205446
     Eloc =    -1696.6190609096720436
      Enl =     -144.0923630571002434
      Exc =     -588.2685279039133093
 Exc_core =      247.8562569971737162
       KE =      751.7797626679243876
-------------------------------------
     Etot =    -2049.0570350105772377
       TS =        0.1283861054683289
-------------------------------------
        F =    -2049.1854211160457453

IonicMinimize: Iter:  29  F: -2049.185421116045745  |grad|_K:  8.848e-05  alpha:  1.000e+00  linmin: -2.057e-01  t[s]:  43476.40
IonicMinimize: Converged (|grad|_K<1.000000e-04).

#--- Lowdin population analysis ---
# oxidation-state Re +0.862 +0.862 +0.862 +0.862 +0.862 +0.862 +0.861 +0.862 +0.862 +0.862 +0.862 +0.862 +0.862 +0.862 +0.862 +0.862
# oxidation-state O -0.258 -0.258 -0.258 -0.258 -0.258 -0.258 -0.259 -0.259 -0.258 -0.258 -0.258 -0.259 -0.259 -0.258 -0.259 -0.258 -0.258 -0.258 -0.258 -0.258 -0.259 -0.258 -0.258 -0.258 -0.258 -0.259 -0.258 -0.258 -0.259 -0.259 -0.258 -0.259 -0.258 -0.258 -0.258 -0.258 -0.258 -0.259 -0.259 -0.259 -0.258 -0.259 -0.259 -0.259 -0.258 -0.258 -0.258 -0.258


Dumping '/data/rc652/ReO3/ion/ReO3_ion.Ecomponents' ... done
End date and time: Mon Jul  1 09:35:05 2024  (Duration: 0-12:04:49.02)
Done!
