--------------------------------------------------------------------------
[[7334,1],4]: A high-performance Open MPI point-to-point messaging module
was unable to find any relevant network interfaces:

Module: OpenFabrics (openib)
  Host: node3216

Another transport will be used instead, although this may result in
lower performance.
--------------------------------------------------------------------------

*************** JDFTx 1.7.0 (git hash 3664913) ***************

Start date and time: Fri Jul 12 15:37:18 2024
Executable jdftx with command-line: -i Ru_ion.in
Running on hosts (process indices):  node3216.physics.cornell.edu (0-15)
Divided in process groups (process indices):  0 (0)  1 (1)  2 (2)  3 (3)  4 (4)  5 (5)  6 (6)  7 (7)  8 (8)  9 (9)  10 (10)  11 (11)  12 (12)  13 (13)  14 (14)  15 (15)
Resource initialization completed at t[s]:      0.01
Run totals: 16 processes, 32 threads, 0 GPUs


Input parsed successfully to the following command list (including defaults):

basis kpoint-dependent
coords-type Lattice
core-overlap-check vector
coulomb-interaction Periodic
davidson-band-ratio 1.1
dump End Ecomponents
dump-name /data/rc652/Ru/ion/Ru_ion.$VAR
elec-cutoff 20 100
elec-eigen-algo Davidson
elec-ex-corr gga-PBEsol
elec-smearing Fermi 0.01
electronic-minimize  \
	dirUpdateScheme      FletcherReeves \
	linminMethod         DirUpdateRecommended \
	nIterations          100 \
	history              15 \
	knormThreshold       0 \
	maxThreshold         no \
	energyDiffThreshold  1e-08 \
	nEnergyDiff          2 \
	alphaTstart          1 \
	alphaTmin            1e-10 \
	updateTestStepSize   yes \
	alphaTreduceFactor   0.1 \
	alphaTincreaseFactor 3 \
	nAlphaAdjustMax      3 \
	wolfeEnergy          0.0001 \
	wolfeGradient        0.9 \
	fdTest               no
electronic-scf  \
	nIterations	50 \
	energyDiffThreshold	1e-08 \
	residualThreshold	1e-07 \
	mixFraction	0.5 \
	qMetric	0.8 \
	history	10 \
	nEigSteps	2 \
	eigDiffThreshold	1e-08 \
	mixedVariable	Density \
	qKerker	0.8 \
	qKappa	-1 \
	verbose	no \
	mixFractionMag	1.5
exchange-regularization WignerSeitzTruncated
fluid None
fluid-ex-corr lda-TF lda-PZ
fluid-gummel-loop 10 1.000000e-05
fluid-minimize  \
	dirUpdateScheme      PolakRibiere \
	linminMethod         DirUpdateRecommended \
	nIterations          100 \
	history              15 \
	knormThreshold       0 \
	maxThreshold         no \
	energyDiffThreshold  0 \
	nEnergyDiff          2 \
	alphaTstart          1 \
	alphaTmin            1e-10 \
	updateTestStepSize   yes \
	alphaTreduceFactor   0.1 \
	alphaTincreaseFactor 3 \
	nAlphaAdjustMax      3 \
	wolfeEnergy          0.0001 \
	wolfeGradient        0.9 \
	fdTest               no
fluid-solvent H2O 55.338 ScalarEOS \
	epsBulk 78.4 \
	pMol 0.92466 \
	epsInf 1.77 \
	Pvap 1.06736e-10 \
	sigmaBulk 4.62e-05 \
	Rvdw 2.61727 \
	Res 1.42 \
	tauNuc 343133 \
	poleEl 15 7 1
forces-output-coords Positions
ion Ru   0.118960000000000   0.215150000000000   0.132830000000000 1
ion Ru   0.229490000000000   0.126240000000000   0.373630000000000 1
ion Ru   0.119880000000000   0.217500000000000   0.635890000000000 1
ion Ru   0.213380000000000   0.107960000000000   0.869840000000000 1
ion Ru   0.101840000000000   0.557620000000000   0.122560000000000 1
ion Ru   0.221910000000000   0.446750000000000   0.366300000000000 1
ion Ru   0.118100000000000   0.561510000000000   0.612710000000000 1
ion Ru   0.240850000000000   0.433350000000000   0.861660000000000 1
ion Ru   0.112910000000000   0.890380000000000   0.119300000000000 1
ion Ru   0.219750000000000   0.775040000000000   0.384940000000000 1
ion Ru   0.093010000000000   0.882280000000000   0.629130000000000 1
ion Ru   0.209980000000000   0.770170000000000   0.872730000000000 1
ion Ru   0.429750000000000   0.226410000000000   0.135140000000000 1
ion Ru   0.556880000000000   0.103870000000000   0.389540000000000 1
ion Ru   0.438210000000000   0.205270000000000   0.620980000000000 1
ion Ru   0.562180000000000   0.121220000000000   0.870080000000000 1
ion Ru   0.424280000000000   0.557350000000000   0.130200000000000 1
ion Ru   0.576110000000000   0.431500000000000   0.363070000000000 1
ion Ru   0.435160000000000   0.543130000000000   0.618700000000000 1
ion Ru   0.545980000000000   0.430440000000000   0.878250000000000 1
ion Ru   0.438210000000000   0.882790000000000   0.131190000000000 1
ion Ru   0.548900000000000   0.781270000000000   0.372780000000000 1
ion Ru   0.456330000000000   0.894870000000000   0.619140000000000 1
ion Ru   0.551640000000000   0.770690000000000   0.876070000000000 1
ion Ru   0.768100000000000   0.220540000000000   0.117360000000000 1
ion Ru   0.881500000000000   0.117200000000000   0.365070000000000 1
ion Ru   0.774970000000000   0.199660000000000   0.609410000000000 1
ion Ru   0.901200000000000   0.106680000000000   0.888670000000000 1
ion Ru   0.769660000000000   0.560700000000000   0.114730000000000 1
ion Ru   0.881940000000000   0.438930000000000   0.385460000000000 1
ion Ru   0.793620000000000   0.554910000000000   0.628650000000000 1
ion Ru   0.906820000000000   0.440310000000000   0.853020000000000 1
ion Ru   0.782300000000000   0.894870000000000   0.135360000000000 1
ion Ru   0.891940000000000   0.763930000000000   0.397710000000000 1
ion Ru   0.782940000000000   0.883200000000000   0.631310000000000 1
ion Ru   0.886600000000000   0.773420000000000   0.872390000000000 1
ion-species GBRV/$ID_pbesol.uspp
ion-width 0
ionic-minimize  \
	dirUpdateScheme      L-BFGS \
	linminMethod         DirUpdateRecommended \
	nIterations          30 \
	history              15 \
	knormThreshold       0.0001 \
	maxThreshold         no \
	energyDiffThreshold  1e-06 \
	nEnergyDiff          2 \
	alphaTstart          1 \
	alphaTmin            1e-10 \
	updateTestStepSize   yes \
	alphaTreduceFactor   0.1 \
	alphaTincreaseFactor 3 \
	nAlphaAdjustMax      3 \
	wolfeEnergy          0.0001 \
	wolfeGradient        0.9 \
	fdTest               no
kpoint   0.500000000000   0.500000000000   0.500000000000  1.00000000000000
kpoint-folding 3 3 4 
latt-move-scale 1 1 1
latt-scale 1 1 1 
lattice  \
	   7.637106636022303    7.637106636022303    0.000000000000000  \
	 -13.227856220128549   13.227856220128549    0.000000000000000  \
	   0.000000000000000   -0.000000000000000   16.101058041412667 
lattice-minimize  \
	dirUpdateScheme      L-BFGS \
	linminMethod         DirUpdateRecommended \
	nIterations          0 \
	history              15 \
	knormThreshold       0 \
	maxThreshold         no \
	energyDiffThreshold  1e-06 \
	nEnergyDiff          2 \
	alphaTstart          1 \
	alphaTmin            1e-10 \
	updateTestStepSize   yes \
	alphaTreduceFactor   0.1 \
	alphaTincreaseFactor 3 \
	nAlphaAdjustMax      3 \
	wolfeEnergy          0.0001 \
	wolfeGradient        0.9 \
	fdTest               no
lcao-params -1 1e-06 0.01
pcm-variant GLSSA13
perturb-minimize  \
	nIterations            0 \
	algorithm              MINRES \
	residualTol            0.0001 \
	residualDiffThreshold  0.0001 \
	CGBypass               no \
	recomputeResidual      no
spintype no-spin
subspace-rotation-factor 1 yes
symmetries automatic
symmetry-threshold 0.0001



---------- Setting up symmetries ----------

Found 24 point-group symmetries of the bravais lattice
Found 1 space-group symmetries with basis
Applied RMS atom displacement 0 bohrs to make symmetries exact.

---------- Initializing the Grid ----------
R = 
[      7.63711      7.63711            0  ]
[     -13.2279      13.2279            0  ]
[            0            0      16.1011  ]
unit cell volume = 3253.14
G =
[   0.411359  -0.237498          0  ]
[   0.411359   0.237498         -0  ]
[          0          0   0.390234  ]
Minimum fftbox size, Smin = [  72  72  76  ]
Chosen fftbox size, S = [  72  72  80  ]

---------- Initializing tighter grid for wavefunction operations ----------
R = 
[      7.63711      7.63711            0  ]
[     -13.2279      13.2279            0  ]
[            0            0      16.1011  ]
unit cell volume = 3253.14
G =
[   0.411359  -0.237498          0  ]
[   0.411359   0.237498         -0  ]
[          0          0   0.390234  ]
Minimum fftbox size, Smin = [  64  64  68  ]
Chosen fftbox size, S = [  64  64  70  ]

---------- Exchange Correlation functional ----------
Initalized PBEsol GGA exchange.
Initalized PBEsol GGA correlation.

---------- Setting up pseudopotentials ----------
Width of ionic core gaussian charges (only for fluid interactions / plotting) set to 0

Reading pseudopotential file '/home/rc652/build/pseudopotentials/GBRV/ru_pbesol.uspp':
  Title: Ru.  Created by USPP 7.3.6 on 3-2-2014
  Reference state energy: -96.377317.  16 valence electrons in orbitals:
    |400>  occupation: 2  eigenvalue: -3.215115
    |410>  occupation: 6  eigenvalue: -2.110081
    |420>  occupation: 6  eigenvalue: -0.566695
    |500>  occupation: 1  eigenvalue: -0.433966
    |510>  occupation: 0  eigenvalue: -0.255949
  lMax: 2  lLocal: 3  QijEcut: 6
  6 projectors sampled on a log grid with 713 points:
    l: 0  eig: -0.433966  rCut: 1.5
    l: 0  eig: -3.215115  rCut: 1.5
    l: 1  eig: -2.110081  rCut: 1.6
    l: 1  eig: -0.255949  rCut: 1.6
    l: 2  eig: -0.566695  rCut: 1.75
    l: 2  eig: 0.000000  rCut: 1.75
  Partial core density with radius 1.1
  Transforming core density to a uniform radial grid of dG=0.02 with 1679 points.
  Transforming local potential to a uniform radial grid of dG=0.02 with 1679 points.
  Transforming nonlocal projectors to a uniform radial grid of dG=0.02 with 432 points.
  Transforming density augmentations to a uniform radial grid of dG=0.02 with 1679 points.
  Transforming atomic orbitals to a uniform radial grid of dG=0.02 with 432 points.
  Core radius for overlap checks: 1.75 bohrs.

Initialized 1 species with 36 total atoms.

Folded 1 k-points by 3x3x4 to 36 k-points.

---------- Setting up k-points, bands, fillings ----------
Adding inversion symmetry to k-mesh for non-inversion-symmetric unit cell.
Reduced to 18 k-points under symmetry. 
Computing the number of bands and number of electrons
Calculating initial fillings.
nElectrons: 576.000000   nBands: 468   nStates: 18

----- Setting up reduced wavefunction bases (one per k-point) -----
average nbasis = 13898.778 , ideal nbasis = 13897.661

---------- Setting up ewald sum ----------
Optimum gaussian width for ewald sums = 3.253074 bohr.
Real space sum over 567 unit cells with max indices [  4  4  3  ]
Reciprocal space sum over 6859 terms with max indices [  9  9  9  ]

---------- Allocating electronic variables ----------
Initializing wave functions:  linear combination of atomic orbitals
Ru pseudo-atom occupations:   s ( 2 0 )  p ( 6 0 )  d ( 8 )
	FillingsUpdate:  mu: +0.809344636  nElectrons: 576.000000
LCAOMinimize: Iter:   0  F: -3415.6072000839990324  |grad|_K:  2.058e-03  alpha:  1.000e+00
	FillingsUpdate:  mu: +0.831718429  nElectrons: 576.000000
LCAOMinimize: Iter:   1  F: -3417.4120491362982648  |grad|_K:  1.826e-03  alpha:  1.357e-01  linmin: -2.268e-01  cgtest:  6.106e-01  t[s]:     89.86
	FillingsUpdate:  mu: +0.933497148  nElectrons: 576.000000
LCAOMinimize: Iter:   2  F: -3418.9086348140613154  |grad|_K:  3.055e-03  alpha:  2.072e-01  linmin:  2.558e-02  cgtest: -2.196e-01  t[s]:    121.35
	FillingsUpdate:  mu: +0.958436239  nElectrons: 576.000000
LCAOMinimize: Iter:   3  F: -3419.8990831127484853  |grad|_K:  3.196e-03  alpha:  6.049e-02  linmin: -7.645e-03  cgtest:  8.916e-01  t[s]:    151.24
	FillingsUpdate:  mu: +0.903700413  nElectrons: 576.000000
LCAOMinimize: Iter:   4  F: -3420.7031080041224413  |grad|_K:  3.711e-04  alpha:  3.828e-02  linmin: -9.922e-03  cgtest: -9.118e-03  t[s]:    181.63
	FillingsUpdate:  mu: +0.903658908  nElectrons: 576.000000
LCAOMinimize: Iter:   5  F: -3420.7188735325121343  |grad|_K:  1.112e-04  alpha:  5.769e-02  linmin:  5.501e-03  cgtest: -1.222e-02  t[s]:    214.01
	FillingsUpdate:  mu: +0.904167705  nElectrons: 576.000000
LCAOMinimize: Iter:   6  F: -3420.7223051177770685  |grad|_K:  1.131e-04  alpha:  1.413e-01  linmin:  1.703e-03  cgtest:  3.666e-03  t[s]:    245.58
	FillingsUpdate:  mu: +0.905003487  nElectrons: 576.000000
LCAOMinimize: Iter:   7  F: -3420.7262111385116441  |grad|_K:  1.136e-04  alpha:  1.552e-01  linmin:  4.575e-04  cgtest:  8.381e-03  t[s]:    276.58
	FillingsUpdate:  mu: +0.905711449  nElectrons: 576.000000
LCAOMinimize: Iter:   8  F: -3420.7276838496463824  |grad|_K:  1.579e-05  alpha:  5.744e-02  linmin: -4.242e-03  cgtest:  4.986e-02  t[s]:    307.30
	FillingsUpdate:  mu: +0.905733705  nElectrons: 576.000000
LCAOMinimize: Iter:   9  F: -3420.7277185381767595  |grad|_K:  7.967e-06  alpha:  7.013e-02  linmin:  1.483e-04  cgtest: -5.543e-03  t[s]:    338.99
	FillingsUpdate:  mu: +0.905771187  nElectrons: 576.000000
LCAOMinimize: Iter:  10  F: -3420.7277374981840694  |grad|_K:  8.331e-06  alpha:  1.510e-01  linmin:  9.075e-05  cgtest:  1.514e-03  t[s]:    370.32
	FillingsUpdate:  mu: +0.905844279  nElectrons: 576.000000
LCAOMinimize: Iter:  11  F: -3420.7277554783281630  |grad|_K:  8.228e-06  alpha:  1.309e-01  linmin:  1.250e-05  cgtest:  7.142e-04  t[s]:    401.30
	FillingsUpdate:  mu: +0.905877047  nElectrons: 576.000000
LCAOMinimize: Iter:  12  F: -3420.7277654957906634  |grad|_K:  2.135e-06  alpha:  7.474e-02  linmin: -2.070e-05  cgtest: -3.029e-04  t[s]:    430.93
	FillingsUpdate:  mu: +0.905877026  nElectrons: 576.000000
LCAOMinimize: Iter:  13  F: -3420.7277664517723679  |grad|_K:  1.338e-06  alpha:  1.060e-01  linmin: -3.833e-06  cgtest: -2.586e-05  t[s]:    460.95
	FillingsUpdate:  mu: +0.905865326  nElectrons: 576.000000
LCAOMinimize: Iter:  14  F: -3420.7277674164643031  |grad|_K:  2.063e-06  alpha:  2.719e-01  linmin: -1.172e-04  cgtest:  5.753e-04  t[s]:    492.21
LCAOMinimize: Converged (|Delta F|<1.000000e-06 for 2 iters).


---- Citations for features of the code used in this run ----

   Software package:
      R. Sundararaman, K. Letchworth-Weaver, K.A. Schwarz, D. Gunceler, Y. Ozhabes and T.A. Arias, 'JDFTx: software for joint density-functional theory', SoftwareX 6, 278 (2017)

   gga-PBEsol exchange-correlation functional:
      J.P. Perdew et al., Phys. Rev. Lett. 100, 136406 (2008)

   Pseudopotentials:
      KF Garrity, JW Bennett, KM Rabe and D Vanderbilt, Comput. Mater. Sci. 81, 446 (2014)

This list may not be complete. Please suggest additional citations or
report any other bugs at https://github.com/shankar1729/jdftx/issues

Initialization completed successfully at t[s]:    504.47


-------- Electronic minimization -----------
Will mix electronic density at each iteration.
	FillingsUpdate:  mu: +0.905865326  nElectrons: 576.000000
	FillingsUpdate:  mu: +0.901882898  nElectrons: 576.000000
SCF: Cycle:  0   F: -3421.487411600301130   dF: -7.596e-01   |Residual|: 4.495e-01   |deigs|: 8.075e-02  t[s]:    641.69
	FillingsUpdate:  mu: +0.885992625  nElectrons: 576.000000
SCF: Cycle:  1   F: -3421.694764435794241   dF: -2.074e-01   |Residual|: 6.901e-02   |deigs|: 1.790e-02  t[s]:    749.43
	FillingsUpdate:  mu: +0.884959815  nElectrons: 576.000000
SCF: Cycle:  2   F: -3421.638100456817028   dF: +5.666e-02   |Residual|: 9.323e-02   |deigs|: 1.729e-03  t[s]:    866.81
	FillingsUpdate:  mu: +0.884793838  nElectrons: 576.000000
SCF: Cycle:  3   F: -3421.700518795876633   dF: -6.242e-02   |Residual|: 3.061e-02   |deigs|: 1.021e-03  t[s]:    960.34
	FillingsUpdate:  mu: +0.884825914  nElectrons: 576.000000
SCF: Cycle:  4   F: -3421.698834595687458   dF: +1.684e-03   |Residual|: 2.914e-02   |deigs|: 2.294e-04  t[s]:   1030.05
	FillingsUpdate:  mu: +0.884819215  nElectrons: 576.000000
SCF: Cycle:  5   F: -3421.703591592752673   dF: -4.757e-03   |Residual|: 4.029e-03   |deigs|: 1.577e-04  t[s]:   1098.50
	FillingsUpdate:  mu: +0.884757938  nElectrons: 576.000000
SCF: Cycle:  6   F: -3421.703531996953188   dF: +5.960e-05   |Residual|: 5.014e-03   |deigs|: 7.644e-05  t[s]:   1164.21
	FillingsUpdate:  mu: +0.884747019  nElectrons: 576.000000
SCF: Cycle:  7   F: -3421.703658253134108   dF: -1.263e-04   |Residual|: 7.713e-04   |deigs|: 2.702e-05  t[s]:   1232.77
	FillingsUpdate:  mu: +0.884754889  nElectrons: 576.000000
SCF: Cycle:  8   F: -3421.703653987679445   dF: +4.265e-06   |Residual|: 9.524e-04   |deigs|: 1.083e-05  t[s]:   1299.22
	FillingsUpdate:  mu: +0.884759598  nElectrons: 576.000000
SCF: Cycle:  9   F: -3421.703659576118298   dF: -5.588e-06   |Residual|: 1.850e-04   |deigs|: 7.488e-06  t[s]:   1368.46
	FillingsUpdate:  mu: +0.884757926  nElectrons: 576.000000
SCF: Cycle: 10   F: -3421.703659486453034   dF: +8.967e-08   |Residual|: 1.944e-04   |deigs|: 2.500e-06  t[s]:   1436.50
	FillingsUpdate:  mu: +0.884757008  nElectrons: 576.000000
SCF: Cycle: 11   F: -3421.703659674458777   dF: -1.880e-07   |Residual|: 3.622e-05   |deigs|: 1.575e-06  t[s]:   1504.41
	FillingsUpdate:  mu: +0.884756611  nElectrons: 576.000000
SCF: Cycle: 12   F: -3421.703659666176009   dF: +8.283e-09   |Residual|: 4.545e-05   |deigs|: 9.688e-07  t[s]:   1571.11
	FillingsUpdate:  mu: +0.884756620  nElectrons: 576.000000
SCF: Cycle: 13   F: -3421.703659677204087   dF: -1.103e-08   |Residual|: 1.303e-05   |deigs|: 8.143e-07  t[s]:   1640.54
	FillingsUpdate:  mu: +0.884756625  nElectrons: 576.000000
SCF: Cycle: 14   F: -3421.703659676837106   dF: +3.670e-10   |Residual|: 1.441e-05   |deigs|: 8.126e-07  t[s]:   1707.93
	FillingsUpdate:  mu: +0.884756645  nElectrons: 576.000000
SCF: Cycle: 15   F: -3421.703659678003078   dF: -1.166e-09   |Residual|: 4.156e-06   |deigs|: 8.000e-07  t[s]:   1775.02
	FillingsUpdate:  mu: +0.884756633  nElectrons: 576.000000
SCF: Cycle: 16   F: -3421.703659677945325   dF: +5.775e-11   |Residual|: 4.377e-06   |deigs|: 6.218e-07  t[s]:   1828.15
	FillingsUpdate:  mu: +0.884756631  nElectrons: 576.000000
SCF: Cycle: 17   F: -3421.703659677629730   dF: +3.156e-10   |Residual|: 1.098e-06   |deigs|: 4.901e-07  t[s]:   1881.95
	FillingsUpdate:  mu: +0.884756632  nElectrons: 576.000000
SCF: Cycle: 18   F: -3421.703659677921223   dF: -2.915e-10   |Residual|: 1.053e-06   |deigs|: 4.968e-07  t[s]:   1930.86
	FillingsUpdate:  mu: +0.884756632  nElectrons: 576.000000
SCF: Cycle: 19   F: -3421.703659678026725   dF: -1.055e-10   |Residual|: 4.185e-07   |deigs|: 4.610e-07  t[s]:   1977.53
SCF: Converged (|Delta E|<1.000000e-08 for 2 iters).

Setting wave functions to eigenvectors of Hamiltonian

# Ionic positions in lattice coordinates:
ion Ru   0.118960000000000   0.215150000000000   0.132830000000000 1
ion Ru   0.229490000000000   0.126240000000000   0.373630000000000 1
ion Ru   0.119880000000000   0.217500000000000   0.635890000000000 1
ion Ru   0.213380000000000   0.107960000000000   0.869840000000000 1
ion Ru   0.101840000000000   0.557620000000000   0.122560000000000 1
ion Ru   0.221910000000000   0.446750000000000   0.366300000000000 1
ion Ru   0.118100000000000   0.561510000000000   0.612710000000000 1
ion Ru   0.240850000000000   0.433350000000000   0.861660000000000 1
ion Ru   0.112910000000000   0.890380000000000   0.119300000000000 1
ion Ru   0.219750000000000   0.775040000000000   0.384940000000000 1
ion Ru   0.093010000000000   0.882280000000000   0.629130000000000 1
ion Ru   0.209980000000000   0.770170000000000   0.872730000000000 1
ion Ru   0.429750000000000   0.226410000000000   0.135140000000000 1
ion Ru   0.556880000000000   0.103870000000000   0.389540000000000 1
ion Ru   0.438210000000000   0.205270000000000   0.620980000000000 1
ion Ru   0.562180000000000   0.121220000000000   0.870080000000000 1
ion Ru   0.424280000000000   0.557350000000000   0.130200000000000 1
ion Ru   0.576110000000000   0.431500000000000   0.363070000000000 1
ion Ru   0.435160000000000   0.543130000000000   0.618700000000000 1
ion Ru   0.545980000000000   0.430440000000000   0.878250000000000 1
ion Ru   0.438210000000000   0.882790000000000   0.131190000000000 1
ion Ru   0.548900000000000   0.781270000000000   0.372780000000000 1
ion Ru   0.456330000000000   0.894870000000000   0.619140000000000 1
ion Ru   0.551640000000000   0.770690000000000   0.876070000000000 1
ion Ru   0.768100000000000   0.220540000000000   0.117360000000000 1
ion Ru   0.881500000000000   0.117200000000000   0.365070000000000 1
ion Ru   0.774970000000000   0.199660000000000   0.609410000000000 1
ion Ru   0.901200000000000   0.106680000000000   0.888670000000000 1
ion Ru   0.769660000000000   0.560700000000000   0.114730000000000 1
ion Ru   0.881940000000000   0.438930000000000   0.385460000000000 1
ion Ru   0.793620000000000   0.554910000000000   0.628650000000000 1
ion Ru   0.906820000000000   0.440310000000000   0.853020000000000 1
ion Ru   0.782300000000000   0.894870000000000   0.135360000000000 1
ion Ru   0.891940000000000   0.763930000000000   0.397710000000000 1
ion Ru   0.782940000000000   0.883200000000000   0.631310000000000 1
ion Ru   0.886600000000000   0.773420000000000   0.872390000000000 1

# Forces in Lattice coordinates:
force Ru  -0.663297139450654   0.557911007207739  -0.268525942507648 1
force Ru  -0.071928653220073  -0.499545567255579   0.317029037074775 1
force Ru  -0.483100381622253   0.228168742362090  -0.733353664738033 1
force Ru   0.636156766967545  -0.519799222474964   0.318793695003697 1
force Ru   0.028300803238485  -0.145528059714374  -0.019541925985162 1
force Ru  -0.097522854566474  -0.093011074935773   0.331992595877738 1
force Ru   0.341277774590692  -0.509166162741653   0.480662455600736 1
force Ru  -0.905190472601888   0.823425582918483   0.489677212163234 1
force Ru  -0.075529313941321  -0.090365881321924   0.298781553283543 1
force Ru  -0.087225440533610   0.277842398984010  -0.454368373733516 1
force Ru   0.794501512895345  -0.087519447277935  -0.032662594122190 1
force Ru   0.476647984096813  -0.053235396511498   0.014261368216117 1
force Ru   0.786742133216280  -0.612272763263965  -0.607901583492212 1
force Ru  -0.363177976532001   0.227317680407000  -0.983755685318483 1
force Ru  -0.011053303836465   0.382129585646727   0.252971087291005 1
force Ru   0.057728264881497  -0.426823927276217   0.230114157919638 1
force Ru   0.720378508128201  -0.365415195970999  -0.217034981712158 1
force Ru  -0.915295399863425   0.870006918226503   0.619809263169254 1
force Ru   0.445224232008472   0.033303719598461  -0.144677994568697 1
force Ru   0.238722897273125   0.182937273757281  -0.231416331341547 1
force Ru  -0.136457752124677   0.297092274100540  -0.368833676551215 1
force Ru   0.471947850428051  -0.459644727184178   0.116975408397442 1
force Ru  -0.234080947510548  -0.367822728161382   0.601643749311669 1
force Ru  -0.003136874041325   0.115011953008192  -0.053432523466687 1
force Ru   0.146100193859969   0.095353032203689   0.032668139170049 1
force Ru   0.618394245329984  -0.497159633507014   0.164414100832102 1
force Ru   0.082618650900393   0.477740963644494   0.951342164312827 1
force Ru  -0.545111230675151   0.340097517432136  -0.367602491500159 1
force Ru   0.371699810020490  -0.351006274255763   0.155748058107117 1
force Ru   0.405458394798043  -0.163221369747419  -0.596812773921684 1
force Ru  -0.713677938915735  -0.030574885341240   0.159279134740240 1
force Ru  -0.288849975896050  -0.061375681561968   0.685077589612460 1
force Ru  -0.072797269594589  -0.282913123875510  -0.234318682089167 1
force Ru  -0.455385745408578   0.526145451082824  -1.092029123380071 1
force Ru  -0.386896306480893   0.166207191534049  -0.153452313893419 1
force Ru  -0.112824069566819   0.016153909565510   0.336821693762373 1

# Energy components:
   Eewald =    -2952.0106050284548473
       EH =      513.0234752972597789
     Eloc =    -2269.1942411031682241
      Enl =      644.1117612577885438
      Exc =     -464.5170445506456645
 Exc_core =       74.6866304040293016
       KE =     1032.4970374532415462
-------------------------------------
     Etot =    -3421.4029862699499063
       TS =        0.3006734080768604
-------------------------------------
        F =    -3421.7036596780267246

IonicMinimize: Iter:   0  F: -3421.703659678026725  |grad|_K:  2.659e-02  t[s]:   1991.19

#--- Lowdin population analysis ---
# oxidation-state Ru +0.018 +0.026 +0.024 +0.018 +0.026 +0.023 +0.023 +0.026 +0.013 +0.022 +0.022 +0.025 +0.020 +0.018 +0.021 +0.023 +0.018 +0.025 +0.026 +0.018 +0.020 +0.024 +0.018 +0.024 +0.024 +0.022 +0.024 +0.020 +0.020 +0.014 +0.031 +0.020 +0.017 +0.032 +0.016 +0.019


-------- Electronic minimization -----------
Will mix electronic density at each iteration.
	FillingsUpdate:  mu: +0.884756632  nElectrons: 576.000000
	FillingsUpdate:  mu: +0.890615734  nElectrons: 576.000000
SCF: Cycle:  0   F: -3380.445607087539884   dF: +3.890e+01   |Residual|: 2.057e+00   |deigs|: 9.224e-03  t[s]:   2138.68
	FillingsUpdate:  mu: +0.906399700  nElectrons: 576.000000
SCF: Cycle:  1   F: -3309.706452300221827   dF: +7.074e+01   |Residual|: 3.657e+00   |deigs|: 6.406e-02  t[s]:   2252.78
	FillingsUpdate:  mu: +0.891781925  nElectrons: 576.000000
SCF: Cycle:  2   F: -3414.793768835232640   dF: -1.051e+02   |Residual|: 1.067e+00   |deigs|: 7.505e-02  t[s]:   2374.06
	FillingsUpdate:  mu: +0.888171818  nElectrons: 576.000000
SCF: Cycle:  3   F: -3419.729716903255849   dF: -4.936e+00   |Residual|: 6.373e-01   |deigs|: 1.065e-02  t[s]:   2491.12
	FillingsUpdate:  mu: +0.884404009  nElectrons: 576.000000
SCF: Cycle:  4   F: -3421.418438627716114   dF: -1.689e+00   |Residual|: 2.574e-01   |deigs|: 6.972e-03  t[s]:   2600.87
	FillingsUpdate:  mu: +0.884379331  nElectrons: 576.000000
SCF: Cycle:  5   F: -3421.643688158614168   dF: -2.252e-01   |Residual|: 1.448e-01   |deigs|: 1.703e-03  t[s]:   2710.24
	FillingsUpdate:  mu: +0.884473196  nElectrons: 576.000000
SCF: Cycle:  6   F: -3421.756354156279031   dF: -1.127e-01   |Residual|: 4.907e-02   |deigs|: 6.206e-04  t[s]:   2810.19
	FillingsUpdate:  mu: +0.884365254  nElectrons: 576.000000
SCF: Cycle:  7   F: -3421.765788779621744   dF: -9.435e-03   |Residual|: 3.235e-02   |deigs|: 1.899e-04  t[s]:   2874.93
	FillingsUpdate:  mu: +0.884127200  nElectrons: 576.000000
SCF: Cycle:  8   F: -3421.769333865544013   dF: -3.545e-03   |Residual|: 1.120e-02   |deigs|: 2.798e-04  t[s]:   2937.20
	FillingsUpdate:  mu: +0.884180185  nElectrons: 576.000000
SCF: Cycle:  9   F: -3421.769774491035605   dF: -4.406e-04   |Residual|: 7.862e-03   |deigs|: 7.248e-05  t[s]:   3006.28
	FillingsUpdate:  mu: +0.884222649  nElectrons: 576.000000
SCF: Cycle: 10   F: -3421.770097705483295   dF: -3.232e-04   |Residual|: 1.786e-03   |deigs|: 5.448e-05  t[s]:   3070.34
	FillingsUpdate:  mu: +0.884223025  nElectrons: 576.000000
SCF: Cycle: 11   F: -3421.770085175709937   dF: +1.253e-05   |Residual|: 2.079e-03   |deigs|: 1.231e-05  t[s]:   3135.44
	FillingsUpdate:  mu: +0.884219167  nElectrons: 576.000000
SCF: Cycle: 12   F: -3421.770110002089041   dF: -2.483e-05   |Residual|: 3.587e-04   |deigs|: 9.367e-06  t[s]:   3204.27
	FillingsUpdate:  mu: +0.884216865  nElectrons: 576.000000
SCF: Cycle: 13   F: -3421.770109445740218   dF: +5.563e-07   |Residual|: 4.293e-04   |deigs|: 3.507e-06  t[s]:   3267.32
	FillingsUpdate:  mu: +0.884216737  nElectrons: 576.000000
SCF: Cycle: 14   F: -3421.770110324197958   dF: -8.785e-07   |Residual|: 1.344e-04   |deigs|: 1.775e-06  t[s]:   3335.66
	FillingsUpdate:  mu: +0.884217025  nElectrons: 576.000000
SCF: Cycle: 15   F: -3421.770110193568598   dF: +1.306e-07   |Residual|: 1.645e-04   |deigs|: 1.290e-06  t[s]:   3404.82
	FillingsUpdate:  mu: +0.884217058  nElectrons: 576.000000
SCF: Cycle: 16   F: -3421.770110392289553   dF: -1.987e-07   |Residual|: 4.005e-05   |deigs|: 8.653e-07  t[s]:   3468.86
	FillingsUpdate:  mu: +0.884217092  nElectrons: 576.000000
SCF: Cycle: 17   F: -3421.770110390286391   dF: +2.003e-09   |Residual|: 3.283e-05   |deigs|: 2.753e-07  t[s]:   3534.24
	FillingsUpdate:  mu: +0.884217099  nElectrons: 576.000000
SCF: Cycle: 18   F: -3421.770110395823394   dF: -5.537e-09   |Residual|: 9.196e-06   |deigs|: 2.250e-07  t[s]:   3599.07
	FillingsUpdate:  mu: +0.884217081  nElectrons: 576.000000
SCF: Cycle: 19   F: -3421.770110396037580   dF: -2.142e-10   |Residual|: 9.325e-06   |deigs|: 1.544e-07  t[s]:   3662.87
SCF: Converged (|Delta E|<1.000000e-08 for 2 iters).

Setting wave functions to eigenvectors of Hamiltonian

# Ionic positions in lattice coordinates:
ion Ru   0.116763529333945   0.216443084481404   0.131794374068869 1
ion Ru   0.227651522205686   0.123179507301170   0.374853075606238 1
ion Ru   0.117771116306102   0.217423504477609   0.633061362093183 1
ion Ru   0.215530399738326   0.106807132760939   0.871069882542761 1
ion Ru   0.101585956066224   0.556869148589431   0.122484797257996 1
ion Ru   0.221086934836091   0.445939741417622   0.367580795571828 1
ion Ru   0.118595531937376   0.559575275365735   0.614564270057446 1
ion Ru   0.238029809885317   0.435469299270507   0.863549043298587 1
ion Ru   0.112220188036735   0.889647706101305   0.120452688330697 1
ion Ru   0.220045510686478   0.776378617676656   0.383187511263914 1
ion Ru   0.097300603050008   0.884050114131289   0.629004186001451 1
ion Ru   0.212552017770876   0.771227773185534   0.872785189032027 1
ion Ru   0.432496758582577   0.225158943047817   0.132795277043370 1
ion Ru   0.555454048504579   0.104131322652793   0.385745469139376 1
ion Ru   0.439238843187739   0.207422289827396   0.621955980466238 1
ion Ru   0.561290324074207   0.118945614801625   0.870967812858907 1
ion Ru   0.427352889535612   0.557320113520112   0.129362993697024 1
ion Ru   0.573365167218675   0.433856639402071   0.365461010618339 1
ion Ru   0.437799717287763   0.544592555350118   0.618142101285208 1
ion Ru   0.547867131682569   0.432167636516844   0.877357519526963 1
ion Ru   0.438279152034091   0.884097949050869   0.129767450140298 1
ion Ru   0.550283828751921   0.779991687359739   0.373231394970933 1
ion Ru   0.453941213741233   0.892098956377091   0.621460939531067 1
ion Ru   0.551950789039983   0.771338317098750   0.875864068723011 1
ion Ru   0.769207512342909   0.221502414742196   0.117486190736907 1
ion Ru   0.883613579141251   0.116125762479913   0.365704383505348 1
ion Ru   0.776807396860230   0.202626385463539   0.613079855303488 1
ion Ru   0.899056560377855   0.107065986557461   0.887252199275161 1
ion Ru   0.770781342655995   0.559756101062177   0.115330955382100 1
ion Ru   0.883790876381284   0.439155769894919   0.383158050671975 1
ion Ru   0.789453982910936   0.552695885640423   0.629264576047107 1
ion Ru   0.904993887361430   0.439133816420071   0.855662774627560 1
ion Ru   0.781075592035431   0.893045093326807   0.134456324089602 1
ion Ru   0.890840985032593   0.765635655672001   0.393497818552269 1
ion Ru   0.781203871601897   0.883044296466724   0.630718255499178 1
ion Ru   0.886001429804077   0.773189902509343   0.873689423183575 1

# Forces in Lattice coordinates:
force Ru  -0.462200598857304   0.421080424320700  -0.225661889100075 1
force Ru  -0.039698366272650  -0.414628183026595   0.170734182727027 1
force Ru  -0.358947933607769   0.187829981831071  -0.513336086936313 1
force Ru   0.429310911060156  -0.309965057990384   0.227351454249480 1
force Ru   0.094896814072577  -0.152647292815787  -0.008241223410448 1
force Ru  -0.040500027445805  -0.088476633037919   0.248307087878727 1
force Ru   0.190980987454007  -0.355649064085564   0.378060453539822 1
force Ru  -0.708437405826632   0.612319187441336   0.376939530710218 1
force Ru  -0.078098209028237  -0.059924674908117   0.251230467851561 1
force Ru  -0.047596446416338   0.169258044887667  -0.340404168684108 1
force Ru   0.570723885966354  -0.119448723745724  -0.084915684353979 1
force Ru   0.376391914372531  -0.052216176632845   0.015199020988654 1
force Ru   0.585516949033892  -0.470510184196566  -0.433701625724834 1
force Ru  -0.215009682354576   0.159856773648138  -0.656605767096549 1
force Ru   0.019550703827521   0.302478943492842   0.177782941321986 1
force Ru   0.034002750996151  -0.355128671630213   0.184051657008355 1
force Ru   0.606502147235306  -0.325365285699768  -0.169196382484746 1
force Ru  -0.764836440303760   0.700608498951766   0.482064546345121 1
force Ru   0.348274905494628   0.020992888288832  -0.052336786815083 1
force Ru   0.152197045332615   0.170006850974002  -0.191664254621040 1
force Ru  -0.078060400435859   0.208000306950405  -0.286259793621024 1
force Ru   0.357422463102144  -0.346439837844939   0.091626743603000 1
force Ru  -0.196921078909798  -0.218442968279763   0.384012321249124 1
force Ru   0.011234352176410   0.086412193200409  -0.029748275569079 1
force Ru   0.148930242773141   0.044630037017235   0.079621351909543 1
force Ru   0.458509810616117  -0.407702657235667   0.215186034636888 1
force Ru  -0.014161932946583   0.403110342764967   0.639829115229381 1
force Ru  -0.416959758726724   0.239458232423968  -0.347416774093671 1
force Ru   0.325060321956447  -0.323704442935766   0.187967827213432 1
force Ru   0.260008844451282  -0.080687820647292  -0.440916832491054 1
force Ru  -0.512457969187860   0.008282486920911   0.034823648652947 1
force Ru  -0.299833116980545   0.024855437941851   0.587308288045087 1
force Ru  -0.074587900368860  -0.218777791814717  -0.224046920903605 1
force Ru  -0.340321087953948   0.412973298889049  -0.794347388353655 1
force Ru  -0.263081027973963   0.116659256023395  -0.149975820008374 1
force Ru  -0.057737871394412   0.010849004806546   0.215872686114616 1

# Energy components:
   Eewald =    -2957.2913708816795406
       EH =      507.8779268532091464
     Eloc =    -2258.3636153943389218
      Enl =      643.9909939705058832
      Exc =     -464.3926185540072993
 Exc_core =       74.6866265706447052
       KE =     1032.0190110317512335
-------------------------------------
     Etot =    -3421.4730464039153048
       TS =        0.2970639921220543
-------------------------------------
        F =    -3421.7701103960375804

IonicMinimize: Iter:   1  F: -3421.770110396037580  |grad|_K:  1.994e-02  alpha:  1.000e+00  linmin: -9.924e-01  t[s]:   3677.34

#--- Lowdin population analysis ---
# oxidation-state Ru +0.018 +0.025 +0.023 +0.018 +0.025 +0.023 +0.023 +0.024 +0.015 +0.022 +0.020 +0.024 +0.018 +0.016 +0.022 +0.023 +0.019 +0.024 +0.025 +0.019 +0.020 +0.023 +0.018 +0.024 +0.024 +0.022 +0.023 +0.020 +0.020 +0.015 +0.028 +0.021 +0.018 +0.029 +0.017 +0.019


-------- Electronic minimization -----------
Will mix electronic density at each iteration.
	FillingsUpdate:  mu: +0.884217081  nElectrons: 576.000000
	FillingsUpdate:  mu: +0.887701625  nElectrons: 576.000000
SCF: Cycle:  0   F: -3388.870301287602160   dF: +3.034e+01   |Residual|: 1.987e+00   |deigs|: 8.404e-03  t[s]:   3833.58
	FillingsUpdate:  mu: +0.904610963  nElectrons: 576.000000
SCF: Cycle:  1   F: -3334.935019225662927   dF: +5.394e+01   |Residual|: 3.431e+00   |deigs|: 5.898e-02  t[s]:   3948.82
	FillingsUpdate:  mu: +0.889989657  nElectrons: 576.000000
SCF: Cycle:  2   F: -3416.804104264807393   dF: -8.187e+01   |Residual|: 9.545e-01   |deigs|: 6.989e-02  t[s]:   4063.72
	FillingsUpdate:  mu: +0.886995691  nElectrons: 576.000000
SCF: Cycle:  3   F: -3419.285980416646453   dF: -2.482e+00   |Residual|: 7.174e-01   |deigs|: 8.073e-03  t[s]:   4182.67
	FillingsUpdate:  mu: +0.883932230  nElectrons: 576.000000
SCF: Cycle:  4   F: -3421.631062406662295   dF: -2.345e+00   |Residual|: 1.915e-01   |deigs|: 8.469e-03  t[s]:   4300.90
	FillingsUpdate:  mu: +0.883974390  nElectrons: 576.000000
SCF: Cycle:  5   F: -3421.680096610622513   dF: -4.903e-02   |Residual|: 1.541e-01   |deigs|: 5.699e-04  t[s]:   4416.06
	FillingsUpdate:  mu: +0.884008144  nElectrons: 576.000000
SCF: Cycle:  6   F: -3421.813839221409580   dF: -1.337e-01   |Residual|: 3.858e-02   |deigs|: 8.794e-04  t[s]:   4519.04
	FillingsUpdate:  mu: +0.883860642  nElectrons: 576.000000
SCF: Cycle:  7   F: -3421.815477146155899   dF: -1.638e-03   |Residual|: 3.687e-02   |deigs|: 1.918e-04  t[s]:   4586.77
	FillingsUpdate:  mu: +0.883712374  nElectrons: 576.000000
SCF: Cycle:  8   F: -3421.821378381432623   dF: -5.901e-03   |Residual|: 9.388e-03   |deigs|: 2.171e-04  t[s]:   4655.88
	FillingsUpdate:  mu: +0.883769342  nElectrons: 576.000000
SCF: Cycle:  9   F: -3421.821644892421773   dF: -2.665e-04   |Residual|: 6.716e-03   |deigs|: 6.964e-05  t[s]:   4718.70
	FillingsUpdate:  mu: +0.883790946  nElectrons: 576.000000
SCF: Cycle: 10   F: -3421.821874253872465   dF: -2.294e-04   |Residual|: 1.801e-03   |deigs|: 3.117e-05  t[s]:   4787.89
	FillingsUpdate:  mu: +0.883787813  nElectrons: 576.000000
SCF: Cycle: 11   F: -3421.821880938882714   dF: -6.685e-06   |Residual|: 1.204e-03   |deigs|: 8.212e-06  t[s]:   4855.76
	FillingsUpdate:  mu: +0.883784003  nElectrons: 576.000000
SCF: Cycle: 12   F: -3421.821889247270065   dF: -8.308e-06   |Residual|: 4.011e-04   |deigs|: 5.891e-06  t[s]:   4924.07
	FillingsUpdate:  mu: +0.883782207  nElectrons: 576.000000
SCF: Cycle: 13   F: -3421.821889572329837   dF: -3.251e-07   |Residual|: 2.132e-04   |deigs|: 2.381e-06  t[s]:   4992.23
	FillingsUpdate:  mu: +0.883782202  nElectrons: 576.000000
SCF: Cycle: 14   F: -3421.821889770175858   dF: -1.978e-07   |Residual|: 1.064e-04   |deigs|: 7.928e-07  t[s]:   5056.84
	FillingsUpdate:  mu: +0.883782288  nElectrons: 576.000000
SCF: Cycle: 15   F: -3421.821889765275955   dF: +4.900e-09   |Residual|: 7.944e-05   |deigs|: 5.475e-07  t[s]:   5125.03
	FillingsUpdate:  mu: +0.883782345  nElectrons: 576.000000
SCF: Cycle: 16   F: -3421.821889799532983   dF: -3.426e-08   |Residual|: 5.080e-05   |deigs|: 5.452e-07  t[s]:   5193.17
	FillingsUpdate:  mu: +0.883782365  nElectrons: 576.000000
SCF: Cycle: 17   F: -3421.821889797743552   dF: +1.789e-09   |Residual|: 3.884e-05   |deigs|: 2.747e-07  t[s]:   5257.05
	FillingsUpdate:  mu: +0.883782370  nElectrons: 576.000000
SCF: Cycle: 18   F: -3421.821889807465141   dF: -9.722e-09   |Residual|: 1.085e-05   |deigs|: 2.258e-07  t[s]:   5324.08
	FillingsUpdate:  mu: +0.883782367  nElectrons: 576.000000
SCF: Cycle: 19   F: -3421.821889807443767   dF: +2.137e-11   |Residual|: 1.332e-05   |deigs|: 1.732e-07  t[s]:   5387.05
	FillingsUpdate:  mu: +0.883782354  nElectrons: 576.000000
SCF: Cycle: 20   F: -3421.821889808276865   dF: -8.331e-10   |Residual|: 6.722e-06   |deigs|: 4.615e-07  t[s]:   5452.06
	FillingsUpdate:  mu: +0.883782359  nElectrons: 576.000000
SCF: Cycle: 21   F: -3421.821889808114520   dF: +1.623e-10   |Residual|: 4.530e-06   |deigs|: 2.504e-07  t[s]:   5505.04
	FillingsUpdate:  mu: +0.883782362  nElectrons: 576.000000
SCF: Cycle: 22   F: -3421.821889808323704   dF: -2.092e-10   |Residual|: 9.416e-07   |deigs|: 9.663e-08  t[s]:   5555.64
	FillingsUpdate:  mu: +0.883782363  nElectrons: 576.000000
SCF: Cycle: 23   F: -3421.821889808509241   dF: -1.855e-10   |Residual|: 8.918e-07   |deigs|: 6.730e-08  t[s]:   5604.63
SCF: Converged (|Delta E|<1.000000e-08 for 2 iters).

Setting wave functions to eigenvectors of Hamiltonian

# Ionic positions in lattice coordinates:
ion Ru   0.115344705070370   0.218248593217016   0.130345099022245 1
ion Ru   0.225620272677197   0.119258162290691   0.375065915660534 1
ion Ru   0.115865866892473   0.217771256702653   0.630715315925682 1
ion Ru   0.217567700461630   0.106915659756203   0.872155487693082 1
ion Ru   0.102527890591097   0.555939454089907   0.122507415014258 1
ion Ru   0.220777120501076   0.445047733271089   0.368892072394339 1
ion Ru   0.117903741027090   0.557432747304451   0.616753329679797 1
ion Ru   0.234371907907067   0.437192764606009   0.865650592281410 1
ion Ru   0.111101266162075   0.888825082390365   0.122067475647059 1
ion Ru   0.220310007078107   0.777059760822093   0.381383965842811 1
ion Ru   0.100522193297550   0.884337595621022   0.627928131971803 1
ion Ru   0.215503036889210   0.772254034400953   0.872912476870065 1
ion Ru   0.435095707304614   0.223552571952550   0.130722483852741 1
ion Ru   0.555189353406092   0.104820011067211   0.383099521158496 1
ion Ru   0.441130781773140   0.210335610789567   0.622776314067391 1
ion Ru   0.559749975478514   0.115677775063126   0.872063680523301 1
ion Ru   0.431465993249833   0.556867261102253   0.128398199596801 1
ion Ru   0.569271383541719   0.436496529584921   0.368198600134946 1
ion Ru   0.440811420522169   0.546176576945496   0.618445448230662 1
ion Ru   0.549572828587630   0.434400831720500   0.876152553106369 1
ion Ru   0.438741734276081   0.885386172862756   0.128147842373785 1
ion Ru   0.551772704920637   0.778672662476723   0.373758189451058 1
ion Ru   0.451645462596933   0.890322681449708   0.622804295576721 1
ion Ru   0.552588365057739   0.772168826211610   0.875812962032212 1
ion Ru   0.770951733445636   0.222328847742737   0.118479294492470 1
ion Ru   0.885268667952470   0.114147502050563   0.367797598483939 1
ion Ru   0.777457754795076   0.205845194875092   0.615714666370765 1
ion Ru   0.896473929778397   0.107008051455928   0.884665498260645 1
ion Ru   0.772311297233013   0.557916312815364   0.117065267317579 1
ion Ru   0.885162735922807   0.439845574685760   0.380886232297795 1
ion Ru   0.786043919253418   0.551398751060387   0.628573697097226 1
ion Ru   0.902000747262976   0.438599094968265   0.859541647623602 1
ion Ru   0.779271161283460   0.890776426638720   0.132766864446719 1
ion Ru   0.889947450054247   0.767836694132327   0.389535513076802 1
ion Ru   0.779947053347527   0.883012361970836   0.629560956659587 1
ion Ru   0.885992130400931   0.773234831905147   0.874455395765303 1

# Forces in Lattice coordinates:
force Ru  -0.322733402628674   0.284765173741778  -0.174644927346061 1
force Ru  -0.016529875157499  -0.309958111532150   0.099290488795424 1
force Ru  -0.244597917745889   0.133353118441853  -0.362459052888887 1
force Ru   0.281001286164731  -0.196505014163618   0.151858780984861 1
force Ru   0.127253347818784  -0.138714663196062   0.003227429511899 1
force Ru   0.003004184034778  -0.079507965625953   0.184810749352593 1
force Ru   0.094678361230816  -0.229591974909484   0.277895083384991 1
force Ru  -0.514610853520280   0.439041997630332   0.286890691323830 1
force Ru  -0.061015774655834  -0.041454109393168   0.174165029144825 1
force Ru  -0.011311565855626   0.078204511723831  -0.249410617290429 1
force Ru   0.410673912836377  -0.091707029772102  -0.059506110741975 1
force Ru   0.256327756767819  -0.034576099208962   0.017092769560882 1
force Ru   0.420487265855630  -0.334978230151772  -0.296395177120852 1
force Ru  -0.143559949678809   0.125824438430465  -0.471207852757122 1
force Ru   0.006331278973008   0.223389929466790   0.117538432415850 1
force Ru   0.011306503638068  -0.247229340123852   0.136936226643031 1
force Ru   0.459631887306816  -0.253969268392910  -0.125749449821650 1
force Ru  -0.571497133628279   0.498713536701802   0.327222257204171 1
force Ru   0.214224927577786   0.037867776834780   0.014080618928197 1
force Ru   0.112061527642645   0.120406011530116  -0.124905969555291 1
force Ru  -0.022448761895815   0.121196828957911  -0.194852713655458 1
force Ru   0.243028801138236  -0.242206507636777   0.059591368983986 1
force Ru  -0.154080013973052  -0.142403287858708   0.245149920058859 1
force Ru   0.017541214919692   0.057210874267049  -0.019809858835182 1
force Ru   0.137522320687601  -0.013004255503019   0.093507651338107 1
force Ru   0.328581285652919  -0.308091801939813   0.177713954949089 1
force Ru  -0.037504029712016   0.320318032148750   0.456553842165400 1
force Ru  -0.302124505730596   0.165049448777499  -0.275059262330829 1
force Ru   0.248111723816612  -0.250432422151899   0.166542938696325 1
force Ru   0.162680964735830  -0.042017028115629  -0.324832713675401 1
force Ru  -0.357191369340857   0.023624750000123   0.002467258534351 1
force Ru  -0.285760187820821   0.082368073677898   0.451870719957809 1
force Ru  -0.051209626867108  -0.149366707283723  -0.188381401195785 1
force Ru  -0.241625318257375   0.303839062036228  -0.594876385043903 1
force Ru  -0.181314111344230   0.095047626437279  -0.121630646275834 1
force Ru  -0.014993861206278  -0.004473316362738   0.139934217223936 1

# Energy components:
   Eewald =    -2961.0232873791646853
       EH =      504.2206621502162420
     Eloc =    -2250.6600992821572618
      Enl =      643.8945287225419634
      Exc =     -464.2974730773433976
 Exc_core =       74.6866261383090659
       KE =     1031.6509291751385717
-------------------------------------
     Etot =    -3421.5281135524596721
       TS =        0.2937762560496293
-------------------------------------
        F =    -3421.8218898085092405

IonicMinimize: Iter:   2  F: -3421.821889808509241  |grad|_K:  1.438e-02  alpha:  3.005e-01  linmin: -9.836e-01  t[s]:   5619.32

#--- Lowdin population analysis ---
# oxidation-state Ru +0.019 +0.024 +0.022 +0.018 +0.024 +0.023 +0.023 +0.022 +0.016 +0.022 +0.020 +0.023 +0.018 +0.017 +0.022 +0.022 +0.019 +0.023 +0.024 +0.020 +0.020 +0.022 +0.019 +0.023 +0.023 +0.021 +0.022 +0.020 +0.020 +0.016 +0.025 +0.021 +0.019 +0.026 +0.018 +0.020


-------- Electronic minimization -----------
Will mix electronic density at each iteration.
	FillingsUpdate:  mu: +0.883782363  nElectrons: 576.000000
	FillingsUpdate:  mu: +0.886072484  nElectrons: 576.000000
SCF: Cycle:  0   F: -3388.912509225802296   dF: +3.016e+01   |Residual|: 1.982e+00   |deigs|: 8.198e-03  t[s]:   5771.88
	FillingsUpdate:  mu: +0.904168167  nElectrons: 576.000000
SCF: Cycle:  1   F: -3328.193529009622125   dF: +6.072e+01   |Residual|: 3.443e+00   |deigs|: 5.802e-02  t[s]:   5887.73
	FillingsUpdate:  mu: +0.889616583  nElectrons: 576.000000
SCF: Cycle:  2   F: -3417.666827897358417   dF: -8.947e+01   |Residual|: 8.917e-01   |deigs|: 7.045e-02  t[s]:   6003.82
	FillingsUpdate:  mu: +0.886500510  nElectrons: 576.000000
SCF: Cycle:  3   F: -3418.833090860031461   dF: -1.166e+00   |Residual|: 7.872e-01   |deigs|: 6.462e-03  t[s]:   6120.08
	FillingsUpdate:  mu: +0.883666352  nElectrons: 576.000000
SCF: Cycle:  4   F: -3421.736413252236616   dF: -2.903e+00   |Residual|: 1.566e-01   |deigs|: 9.968e-03  t[s]:   6232.46
	FillingsUpdate:  mu: +0.883689148  nElectrons: 576.000000
SCF: Cycle:  5   F: -3421.693803762689640   dF: +4.261e-02   |Residual|: 1.655e-01   |deigs|: 5.694e-04  t[s]:   6349.57
	FillingsUpdate:  mu: +0.883685919  nElectrons: 576.000000
SCF: Cycle:  6   F: -3421.853159031443738   dF: -1.594e-01   |Residual|: 3.351e-02   |deigs|: 1.130e-03  t[s]:   6451.67
	FillingsUpdate:  mu: +0.883496669  nElectrons: 576.000000
SCF: Cycle:  7   F: -3421.851932406721971   dF: +1.227e-03   |Residual|: 3.757e-02   |deigs|: 2.210e-04  t[s]:   6516.33
	FillingsUpdate:  mu: +0.883412458  nElectrons: 576.000000
SCF: Cycle:  8   F: -3421.858385502157944   dF: -6.453e-03   |Residual|: 8.410e-03   |deigs|: 1.801e-04  t[s]:   6580.26
	FillingsUpdate:  mu: +0.883472741  nElectrons: 576.000000
SCF: Cycle:  9   F: -3421.858662597543571   dF: -2.771e-04   |Residual|: 5.179e-03   |deigs|: 7.164e-05  t[s]:   6644.14
	FillingsUpdate:  mu: +0.883482703  nElectrons: 576.000000
SCF: Cycle: 10   F: -3421.858779493298243   dF: -1.169e-04   |Residual|: 1.896e-03   |deigs|: 1.769e-05  t[s]:   6708.31
	FillingsUpdate:  mu: +0.883479345  nElectrons: 576.000000
SCF: Cycle: 11   F: -3421.858794321505229   dF: -1.483e-05   |Residual|: 7.855e-04   |deigs|: 6.493e-06  t[s]:   6774.38
	FillingsUpdate:  mu: +0.883475775  nElectrons: 576.000000
SCF: Cycle: 12   F: -3421.858796828866161   dF: -2.507e-06   |Residual|: 4.997e-04   |deigs|: 4.733e-06  t[s]:   6836.83
	FillingsUpdate:  mu: +0.883474331  nElectrons: 576.000000
SCF: Cycle: 13   F: -3421.858797866857913   dF: -1.038e-06   |Residual|: 1.433e-04   |deigs|: 2.058e-06  t[s]:   6901.44
	FillingsUpdate:  mu: +0.883474389  nElectrons: 576.000000
SCF: Cycle: 14   F: -3421.858797867038447   dF: -1.805e-10   |Residual|: 1.254e-04   |deigs|: 6.152e-07  t[s]:   6969.87
	FillingsUpdate:  mu: +0.883474433  nElectrons: 576.000000
SCF: Cycle: 15   F: -3421.858797942234105   dF: -7.520e-08   |Residual|: 5.013e-05   |deigs|: 1.052e-06  t[s]:   7086.92
	FillingsUpdate:  mu: +0.883474470  nElectrons: 576.000000
SCF: Cycle: 16   F: -3421.858797934803988   dF: +7.430e-09   |Residual|: 4.777e-05   |deigs|: 6.924e-07  t[s]:   7155.35
	FillingsUpdate:  mu: +0.883474489  nElectrons: 576.000000
SCF: Cycle: 17   F: -3421.858797947570565   dF: -1.277e-08   |Residual|: 1.165e-05   |deigs|: 3.681e-07  t[s]:   7224.77
	FillingsUpdate:  mu: +0.883474480  nElectrons: 576.000000
SCF: Cycle: 18   F: -3421.858797947167659   dF: +4.029e-10   |Residual|: 1.597e-05   |deigs|: 2.352e-07  t[s]:   7293.98
	FillingsUpdate:  mu: +0.883474473  nElectrons: 576.000000
SCF: Cycle: 19   F: -3421.858797948606934   dF: -1.439e-09   |Residual|: 6.579e-06   |deigs|: 1.926e-07  t[s]:   7353.37
	FillingsUpdate:  mu: +0.883474478  nElectrons: 576.000000
SCF: Cycle: 20   F: -3421.858797948335905   dF: +2.710e-10   |Residual|: 2.428e-06   |deigs|: 1.302e-07  t[s]:   7402.82
	FillingsUpdate:  mu: +0.883474480  nElectrons: 576.000000
SCF: Cycle: 21   F: -3421.858797948524170   dF: -1.883e-10   |Residual|: 1.340e-06   |deigs|: 9.085e-08  t[s]:   7449.57
	FillingsUpdate:  mu: +0.883474481  nElectrons: 576.000000
SCF: Cycle: 22   F: -3421.858797948637857   dF: -1.137e-10   |Residual|: 1.119e-06   |deigs|: 9.711e-08  t[s]:   7497.09
SCF: Converged (|Delta E|<1.000000e-08 for 2 iters).

Setting wave functions to eigenvectors of Hamiltonian

# Ionic positions in lattice coordinates:
ion Ru   0.113856974851087   0.219563924381589   0.128653257372841 1
ion Ru   0.223805624846681   0.115217794684819   0.374855809265369 1
ion Ru   0.114354724775663   0.218243992093184   0.628457899065481 1
ion Ru   0.219138933315423   0.107309489291516   0.872997393970035 1
ion Ru   0.104838273441006   0.555043476164284   0.122725962553181 1
ion Ru   0.221221278838902   0.444166443853254   0.370346422100273 1
ion Ru   0.116344451133280   0.555464804065316   0.619051673016510 1
ion Ru   0.230592818573507   0.438836323833789   0.868095841990238 1
ion Ru   0.109887863523061   0.887981906373443   0.123492106149587 1
ion Ru   0.220617549605194   0.776739844358423   0.379472729743857 1
ion Ru   0.103783280279701   0.884594460951392   0.626983584285173 1
ion Ru   0.217995278015196   0.773147285575856   0.873171252733122 1
ion Ru   0.437759051540608   0.222080545638714   0.128961060823858 1
ion Ru   0.555351560277923   0.106015284487063   0.380340184300733 1
ion Ru   0.442777713157035   0.213247315860795   0.623382980071132 1
ion Ru   0.557968250142219   0.112554624860956   0.873244953626128 1
ion Ru   0.435937505113409   0.556180998927278   0.127349878053752 1
ion Ru   0.564498016734874   0.438586236116365   0.370470630751865 1
ion Ru   0.442963728652818   0.547910455016495   0.619826984516973 1
ion Ru   0.551361736902258   0.436571324336699   0.875267323456959 1
ion Ru   0.439817287020862   0.886295311925346   0.126790335981285 1
ion Ru   0.552903401801968   0.777349483304246   0.374135986108830 1
ion Ru   0.449157495095717   0.888715032034569   0.623556230459189 1
ion Ru   0.553427955184785   0.772976615656441   0.875780102890087 1
ion Ru   0.772899034641442   0.222171668419576   0.120203160401280 1
ion Ru   0.886691774787889   0.111738494866380   0.370262626438639 1
ion Ru   0.777832132818229   0.209613038707440   0.618390581083546 1
ion Ru   0.893730444010605   0.106719363916924   0.881621252023417 1
ion Ru   0.773989223154731   0.555813177424924   0.119394714082572 1
ion Ru   0.886045571490609   0.440617849321096   0.378424917095497 1
ion Ru   0.783213322198379   0.550779481838414   0.627508155294759 1
ion Ru   0.897849051108023   0.438979164524334   0.863972319910832 1
ion Ru   0.777735363834773   0.888852577776839   0.130536642414657 1
ion Ru   0.889246769505995   0.770276168207995   0.384993456476874 1
ion Ru   0.779083863020816   0.883472611129230   0.628146673215805 1
ion Ru   0.886602696605331   0.773283430075015   0.874934918275666 1

# Forces in Lattice coordinates:
force Ru  -0.202915343389057   0.166695881487422  -0.120474710771688 1
force Ru  -0.000092348404081  -0.203991834828915   0.060810645507743 1
force Ru  -0.156693057973024   0.088475609276092  -0.230332605827195 1
force Ru   0.173143427044625  -0.120104234766519   0.097640970031355 1
force Ru   0.108646734172487  -0.104287814112744   0.009942229654852 1
force Ru   0.016079757873792  -0.064870199404282   0.131176109472486 1
force Ru   0.031090155546092  -0.131144420260187   0.183609346733524 1
force Ru  -0.338288682977288   0.280500890852902   0.205446138452909 1
force Ru  -0.022182399482676  -0.038156553182979   0.101615145510983 1
force Ru   0.001919027968439   0.030685260558604  -0.173111673590670 1
force Ru   0.264938265938601  -0.059537864677797  -0.045665041856853 1
force Ru   0.155578367642340  -0.018931395619619   0.020288463363596 1
force Ru   0.270264903679824  -0.214878801664771  -0.195618193117913 1
force Ru  -0.090397051921473   0.080747533152263  -0.303334776134727 1
force Ru  -0.008598928075575   0.147669891221225   0.071061782074407 1
force Ru   0.002474059444993  -0.148454852400576   0.083913934004965 1
force Ru   0.304813096041064  -0.180304822155297  -0.089194627805526 1
force Ru  -0.368747199665351   0.314385076755295   0.199420622173512 1
force Ru   0.107366929976160   0.049875255028018   0.040619041619197 1
force Ru   0.078108754615768   0.073782202140702  -0.066245112726809 1
force Ru   0.007238363722898   0.055918906542441  -0.117579477188473 1
force Ru   0.153836366225505  -0.152394074105100   0.038842807923180 1
force Ru  -0.101107322547504  -0.085740164656002   0.146174956630782 1
force Ru   0.015528555405951   0.034944691787190  -0.021547580371852 1
force Ru   0.110202579988320  -0.041620070470747   0.076334685246659 1
force Ru   0.201408610798500  -0.190595853498022   0.122528825554041 1
force Ru  -0.039676028170911   0.224975329551359   0.297275661232645 1
force Ru  -0.200298168564240   0.116527440347294  -0.191407336814982 1
force Ru   0.162084995262220  -0.157569474135906   0.118578069877393 1
force Ru   0.110430352943648  -0.033464798639860  -0.211098048303133 1
force Ru  -0.238577578926724   0.041349034827401  -0.014813509468991 1
force Ru  -0.216326737867770   0.081443915702428   0.315386265945371 1
force Ru  -0.019986436281556  -0.097227549272935  -0.136847970131408 1
force Ru  -0.149714111308410   0.191082870695130  -0.397890265134436 1
force Ru  -0.116419481891201   0.069172184396684  -0.085572861423737 1
force Ru  -0.004599448633094  -0.004504534770555   0.080759131611679 1

# Energy components:
   Eewald =    -2963.4661945845127775
       EH =      501.8165784275337273
     Eloc =    -2245.5907103146823829
      Enl =      643.8247434997822438
      Exc =     -464.2310717112645762
 Exc_core =       74.6866295769824831
       KE =     1031.3926913049645009
-------------------------------------
     Etot =    -3421.5673338011965825
       TS =        0.2914641474412580
-------------------------------------
        F =    -3421.8587979486378572

IonicMinimize: Iter:   3  F: -3421.858797948637857  |grad|_K:  9.353e-03  alpha:  3.495e-01  linmin: -9.619e-01  t[s]:   7510.67

#--- Lowdin population analysis ---
# oxidation-state Ru +0.020 +0.023 +0.022 +0.019 +0.022 +0.022 +0.022 +0.021 +0.018 +0.022 +0.020 +0.022 +0.019 +0.018 +0.022 +0.022 +0.020 +0.022 +0.023 +0.020 +0.021 +0.022 +0.019 +0.022 +0.022 +0.021 +0.022 +0.020 +0.020 +0.018 +0.023 +0.021 +0.020 +0.024 +0.019 +0.020


-------- Electronic minimization -----------
Will mix electronic density at each iteration.
	FillingsUpdate:  mu: +0.883474481  nElectrons: 576.000000
	FillingsUpdate:  mu: +0.884449082  nElectrons: 576.000000
SCF: Cycle:  0   F: -3395.747429142154942   dF: +2.384e+01   |Residual|: 1.752e+00   |deigs|: 6.410e-03  t[s]:   7669.05
	FillingsUpdate:  mu: +0.897933946  nElectrons: 576.000000
SCF: Cycle:  1   F: -3336.017492739014415   dF: +5.973e+01   |Residual|: 3.180e+00   |deigs|: 5.009e-02  t[s]:   7786.11
	FillingsUpdate:  mu: +0.888435923  nElectrons: 576.000000
SCF: Cycle:  2   F: -3418.908958943404741   dF: -8.289e+01   |Residual|: 7.343e-01   |deigs|: 6.212e-02  t[s]:   7900.47
	FillingsUpdate:  mu: +0.885743891  nElectrons: 576.000000
SCF: Cycle:  3   F: -3418.729049508513981   dF: +1.799e-01   |Residual|: 7.783e-01   |deigs|: 5.491e-03  t[s]:   8016.46
	FillingsUpdate:  mu: +0.883571156  nElectrons: 576.000000
SCF: Cycle:  4   F: -3421.816417052079942   dF: -3.087e+00   |Residual|: 1.156e-01   |deigs|: 1.018e-02  t[s]:   8129.59
	FillingsUpdate:  mu: +0.883508115  nElectrons: 576.000000
SCF: Cycle:  5   F: -3421.751295143094012   dF: +6.512e-02   |Residual|: 1.448e-01   |deigs|: 5.335e-04  t[s]:   8246.89
	FillingsUpdate:  mu: +0.883453044  nElectrons: 576.000000
SCF: Cycle:  6   F: -3421.876689777710453   dF: -1.254e-01   |Residual|: 2.482e-02   |deigs|: 1.034e-03  t[s]:   8347.81
	FillingsUpdate:  mu: +0.883289624  nElectrons: 576.000000
SCF: Cycle:  7   F: -3421.875031626159853   dF: +1.658e-03   |Residual|: 2.920e-02   |deigs|: 1.865e-04  t[s]:   8410.63
	FillingsUpdate:  mu: +0.883260786  nElectrons: 576.000000
SCF: Cycle:  8   F: -3421.879047884702231   dF: -4.016e-03   |Residual|: 5.599e-03   |deigs|: 1.083e-04  t[s]:   8475.62
	FillingsUpdate:  mu: +0.883308369  nElectrons: 576.000000
SCF: Cycle:  9   F: -3421.879162311902746   dF: -1.144e-04   |Residual|: 3.372e-03   |deigs|: 5.549e-05  t[s]:   8542.52
	FillingsUpdate:  mu: +0.883311932  nElectrons: 576.000000
SCF: Cycle: 10   F: -3421.879202552784136   dF: -4.024e-05   |Residual|: 1.503e-03   |deigs|: 9.433e-06  t[s]:   8604.61
	FillingsUpdate:  mu: +0.883308265  nElectrons: 576.000000
SCF: Cycle: 11   F: -3421.879212421918965   dF: -9.869e-06   |Residual|: 4.898e-04   |deigs|: 4.888e-06  t[s]:   8671.95
	FillingsUpdate:  mu: +0.883305120  nElectrons: 576.000000
SCF: Cycle: 12   F: -3421.879212058631310   dF: +3.633e-07   |Residual|: 5.203e-04   |deigs|: 3.823e-06  t[s]:   8737.95
	FillingsUpdate:  mu: +0.883304159  nElectrons: 576.000000
SCF: Cycle: 13   F: -3421.879213614972286   dF: -1.556e-06   |Residual|: 1.036e-04   |deigs|: 1.536e-06  t[s]:   8805.55
	FillingsUpdate:  mu: +0.883304255  nElectrons: 576.000000
SCF: Cycle: 14   F: -3421.879213541461013   dF: +7.351e-08   |Residual|: 1.328e-04   |deigs|: 5.327e-07  t[s]:   8874.31
	FillingsUpdate:  mu: +0.883304243  nElectrons: 576.000000
SCF: Cycle: 15   F: -3421.879213636347231   dF: -9.489e-08   |Residual|: 4.495e-05   |deigs|: 4.399e-07  t[s]:   8939.11
	FillingsUpdate:  mu: +0.883304274  nElectrons: 576.000000
SCF: Cycle: 16   F: -3421.879213641754632   dF: -5.407e-09   |Residual|: 3.434e-05   |deigs|: 3.880e-07  t[s]:   9005.90
	FillingsUpdate:  mu: +0.883304283  nElectrons: 576.000000
SCF: Cycle: 17   F: -3421.879213646885091   dF: -5.130e-09   |Residual|: 1.233e-05   |deigs|: 3.213e-07  t[s]:   9072.73
SCF: Converged (|Delta E|<1.000000e-08 for 2 iters).

Setting wave functions to eigenvectors of Hamiltonian

# Ionic positions in lattice coordinates:
ion Ru   0.112395016806671   0.220140190798312   0.127004466201242 1
ion Ru   0.222560347131434   0.111796473141025   0.374660593756539 1
ion Ru   0.113098322382964   0.218745016983895   0.626553327574815 1
ion Ru   0.220347578804798   0.107673684844666   0.873742107541121 1
ion Ru   0.107475576524046   0.554209533398659   0.123110607532338 1
ion Ru   0.221833140738016   0.443144677494447   0.371923347109473 1
ion Ru   0.114242365606437   0.553829099716679   0.621146964392129 1
ion Ru   0.227046041328949   0.440060878630138   0.870740938249254 1
ion Ru   0.109309806591459   0.887140728992491   0.124432600434949 1
ion Ru   0.220858202805499   0.775947034396644   0.377489518402169 1
ion Ru   0.106672315049406   0.884882804594405   0.626009920062618 1
ion Ru   0.219850373347957   0.773873634952190   0.873632867294036 1
ion Ru   0.440069095392796   0.220837438588760   0.127278255987056 1
ion Ru   0.555488751313623   0.107035513510194   0.377897261378810 1
ion Ru   0.443748951327666   0.215634497996574   0.623803545926715 1
ion Ru   0.556488738223608   0.110217530086880   0.874141185510812 1
ion Ru   0.439763922788491   0.555130218790011   0.126231910452879 1
ion Ru   0.560294811927430   0.440128464065715   0.372144699869920 1
ion Ru   0.444147786467827   0.549802894634537   0.621771386247925 1
ion Ru   0.553078446059009   0.438399995131566   0.874877822546048 1
ion Ru   0.441120468824070   0.886656945527646   0.125820582230944 1
ion Ru   0.553860563197969   0.776292025375100   0.374479160193405 1
ion Ru   0.447046619852668   0.887460267433258   0.623973656667025 1
ion Ru   0.554259282788660   0.773677196845175   0.875508638798094 1
ion Ru   0.774744056135638   0.221203008062191   0.122049550563923 1
ion Ru   0.887711478242946   0.109821000162589   0.372525197789475 1
ion Ru   0.777985157615509   0.213273576870286   0.620848385276006 1
ion Ru   0.891355432985019   0.106792315274429   0.878680467418858 1
ion Ru   0.775580685931341   0.554237275783470   0.121631850512648 1
ion Ru   0.886955080319027   0.441118919590035   0.376246235191201 1
ion Ru   0.780870338857785   0.551026241027492   0.626229984884513 1
ion Ru   0.893646118369724   0.439716218955086   0.868376869855598 1
ion Ru   0.776911204147818   0.887404518111589   0.128253112137752 1
ion Ru   0.888760911129059   0.772290749785127   0.380674019367235 1
ion Ru   0.778462596863841   0.884162773674943   0.626767224589391 1
ion Ru   0.887240414120841   0.773346656773795   0.875141738053083 1

# Forces in Lattice coordinates:
force Ru  -0.105197858680183   0.075185183960452  -0.070791651261256 1
force Ru   0.007592478040944  -0.111119878368910   0.035329085314505 1
force Ru  -0.088010533077699   0.050041768621132  -0.118999184728753 1
force Ru   0.091980390625575  -0.066300853546006   0.052418117501012 1
force Ru   0.065452045471235  -0.063434650392133   0.013361073605890 1
force Ru   0.009929833467864  -0.038926152861602   0.080728214211126 1
force Ru   0.001739632871165  -0.060028788474274   0.107687748436129 1
force Ru  -0.190184901179190   0.152306849109716   0.121265755047587 1
force Ru   0.006351637939587  -0.031128405728805   0.043234750515770 1
force Ru   0.010154879370196   0.006853120835164  -0.101467092323669 1
force Ru   0.145960584929720  -0.030442450550873  -0.026146926671363 1
force Ru   0.080390186571032  -0.009523942385480   0.014221810699887 1
force Ru   0.153743749804293  -0.120281691051693  -0.111782209164508 1
force Ru  -0.052271791207192   0.044022496181583  -0.168332698204477 1
force Ru  -0.015911051438927   0.089574493940259   0.039075307426157 1
force Ru   0.003480989984209  -0.077169952535040   0.038952285122408 1
force Ru   0.167299326506491  -0.107560981342583  -0.052691205005576 1
force Ru  -0.194844201500957   0.162379015023261   0.109099948602284 1
force Ru   0.040075819727815   0.040543941862861   0.034192102548802 1
force Ru   0.042475219564133   0.042701810007705  -0.032034839885171 1
force Ru   0.020908252727778   0.012659493954597  -0.061369000888429 1
force Ru   0.085637832933547  -0.085776328755704   0.018969972073735 1
force Ru  -0.058782850064155  -0.046205279991714   0.080272614379892 1
force Ru   0.007105030104225   0.020315640705006  -0.018868513146656 1
force Ru   0.068844824555438  -0.037467204674752   0.047117744835821 1
force Ru   0.102254846515059  -0.095416439333622   0.060929941324257 1
force Ru  -0.035658293895981   0.140310940247416   0.170308562510103 1
force Ru  -0.111298157322795   0.072317184836525  -0.110896858893746 1
force Ru   0.084084203688117  -0.080755679157664   0.068008992608076 1
force Ru   0.070148110125402  -0.028157066688526  -0.107100930592106 1
force Ru  -0.140067169643726   0.035020397512927  -0.013036144656020 1
force Ru  -0.124567975611897   0.052465863712324   0.181186202588808 1
force Ru   0.000258302725503  -0.054008858798018  -0.082607517518639 1
force Ru  -0.079044391400573   0.099390433993823  -0.226627197781194 1
force Ru  -0.067206840220381   0.044397950695866  -0.049744335621687 1
force Ru  -0.002711776292703   0.004686732805268   0.035169150800927 1

# Energy components:
   Eewald =    -2964.7302978594420892
       EH =      500.5687310800275327
     Eloc =    -2242.9567640389986991
      Enl =      643.7857082326513591
      Exc =     -464.1950262118974706
 Exc_core =       74.6866384517382897
       KE =     1031.2520507152753453
-------------------------------------
     Etot =    -3421.5889596306465137
       TS =        0.2902540162385369
-------------------------------------
        F =    -3421.8792136468850913

IonicMinimize: Iter:   4  F: -3421.879213646885091  |grad|_K:  5.179e-03  alpha:  4.389e-01  linmin: -9.440e-01  t[s]:   9086.56

#--- Lowdin population analysis ---
# oxidation-state Ru +0.020 +0.022 +0.021 +0.020 +0.021 +0.022 +0.021 +0.020 +0.019 +0.021 +0.021 +0.021 +0.020 +0.019 +0.022 +0.021 +0.020 +0.021 +0.022 +0.020 +0.021 +0.021 +0.020 +0.022 +0.022 +0.021 +0.021 +0.021 +0.021 +0.019 +0.022 +0.021 +0.021 +0.022 +0.020 +0.020


-------- Electronic minimization -----------
Will mix electronic density at each iteration.
	FillingsUpdate:  mu: +0.883304283  nElectrons: 576.000000
	FillingsUpdate:  mu: +0.883622148  nElectrons: 576.000000
SCF: Cycle:  0   F: -3398.807954301765676   dF: +2.086e+01   |Residual|: 1.663e+00   |deigs|: 5.943e-03  t[s]:   9237.97
	FillingsUpdate:  mu: +0.894655342  nElectrons: 576.000000
SCF: Cycle:  1   F: -3338.369203199452386   dF: +6.044e+01   |Residual|: 3.054e+00   |deigs|: 4.591e-02  t[s]:   9354.06
	FillingsUpdate:  mu: +0.887916842  nElectrons: 576.000000
SCF: Cycle:  2   F: -3419.362936164249277   dF: -8.099e+01   |Residual|: 6.558e-01   |deigs|: 5.765e-02  t[s]:   9475.57
	FillingsUpdate:  mu: +0.885319136  nElectrons: 576.000000
SCF: Cycle:  3   F: -3418.352976004205630   dF: +1.010e+00   |Residual|: 8.039e-01   |deigs|: 6.912e-03  t[s]:   9590.08
	FillingsUpdate:  mu: +0.883624203  nElectrons: 576.000000
SCF: Cycle:  4   F: -3421.848788568472628   dF: -3.496e+00   |Residual|: 9.427e-02   |deigs|: 1.089e-02  t[s]:   9707.21
	FillingsUpdate:  mu: +0.883443028  nElectrons: 576.000000
SCF: Cycle:  5   F: -3421.784281203715636   dF: +6.451e-02   |Residual|: 1.316e-01   |deigs|: 5.698e-04  t[s]:   9821.70
	FillingsUpdate:  mu: +0.883340269  nElectrons: 576.000000
SCF: Cycle:  6   F: -3421.886751250328416   dF: -1.025e-01   |Residual|: 2.157e-02   |deigs|: 9.563e-04  t[s]:   9918.31
	FillingsUpdate:  mu: +0.883201206  nElectrons: 576.000000
SCF: Cycle:  7   F: -3421.885316692401375   dF: +1.435e-03   |Residual|: 2.396e-02   |deigs|: 1.566e-04  t[s]:   9986.06
	FillingsUpdate:  mu: +0.883195711  nElectrons: 576.000000
SCF: Cycle:  8   F: -3421.888117673752276   dF: -2.801e-03   |Residual|: 4.545e-03   |deigs|: 7.746e-05  t[s]:  10054.31
	FillingsUpdate:  mu: +0.883240806  nElectrons: 576.000000
SCF: Cycle:  9   F: -3421.888181154907215   dF: -6.348e-05   |Residual|: 2.794e-03   |deigs|: 5.182e-05  t[s]:  10119.05
	FillingsUpdate:  mu: +0.883241507  nElectrons: 576.000000
SCF: Cycle: 10   F: -3421.888207476875323   dF: -2.632e-05   |Residual|: 1.348e-03   |deigs|: 4.890e-06  t[s]:  10186.88
	FillingsUpdate:  mu: +0.883236316  nElectrons: 576.000000
SCF: Cycle: 11   F: -3421.888215750948802   dF: -8.274e-06   |Residual|: 4.123e-04   |deigs|: 6.077e-06  t[s]:  10253.37
	FillingsUpdate:  mu: +0.883233156  nElectrons: 576.000000
SCF: Cycle: 12   F: -3421.888214686744504   dF: +1.064e-06   |Residual|: 5.179e-04   |deigs|: 3.724e-06  t[s]:  10318.09
	FillingsUpdate:  mu: +0.883232307  nElectrons: 576.000000
SCF: Cycle: 13   F: -3421.888216449613537   dF: -1.763e-06   |Residual|: 9.377e-05   |deigs|: 1.399e-06  t[s]:  10385.82
	FillingsUpdate:  mu: +0.883232510  nElectrons: 576.000000
SCF: Cycle: 14   F: -3421.888216414602084   dF: +3.501e-08   |Residual|: 1.061e-04   |deigs|: 5.683e-07  t[s]:  10454.29
	FillingsUpdate:  mu: +0.883232482  nElectrons: 576.000000
SCF: Cycle: 15   F: -3421.888216444189311   dF: -2.959e-08   |Residual|: 6.881e-05   |deigs|: 5.262e-07  t[s]:  10516.74
	FillingsUpdate:  mu: +0.883232500  nElectrons: 576.000000
SCF: Cycle: 16   F: -3421.888216471707892   dF: -2.752e-08   |Residual|: 3.061e-05   |deigs|: 5.705e-07  t[s]:  10582.45
	FillingsUpdate:  mu: +0.883232505  nElectrons: 576.000000
SCF: Cycle: 17   F: -3421.888216475017998   dF: -3.310e-09   |Residual|: 1.305e-05   |deigs|: 4.985e-07  t[s]:  10650.10
	FillingsUpdate:  mu: +0.883232502  nElectrons: 576.000000
SCF: Cycle: 18   F: -3421.888216474950241   dF: +6.776e-11   |Residual|: 1.296e-05   |deigs|: 4.913e-07  t[s]:  10718.67
	FillingsUpdate:  mu: +0.883232498  nElectrons: 576.000000
SCF: Cycle: 19   F: -3421.888216475692388   dF: -7.421e-10   |Residual|: 7.774e-06   |deigs|: 4.741e-07  t[s]:  10788.51
	FillingsUpdate:  mu: +0.883232502  nElectrons: 576.000000
SCF: Cycle: 20   F: -3421.888216476076195   dF: -3.838e-10   |Residual|: 6.011e-06   |deigs|: 3.571e-07  t[s]:  10845.10
SCF: Converged (|Delta E|<1.000000e-08 for 2 iters).

Setting wave functions to eigenvectors of Hamiltonian

# Ionic positions in lattice coordinates:
ion Ru   0.110885716689021   0.219957083514878   0.125277142191754 1
ion Ru   0.221821035951704   0.108820465722336   0.374581353296951 1
ion Ru   0.111812154292404   0.219233478649580   0.625016798416514 1
ion Ru   0.221333224920397   0.107879688171198   0.874416267093182 1
ion Ru   0.110056523263896   0.553229967485521   0.123768883363764 1
ion Ru   0.222343289434817   0.442022074976489   0.373746599602983 1
ion Ru   0.111778464712496   0.552511621569140   0.623396902909247 1
ion Ru   0.223391464836367   0.441016661617409   0.873555460088066 1
ion Ru   0.109521000715815   0.886291618411144   0.124853637400899 1
ion Ru   0.221321608934715   0.774939265727643   0.375370097574321 1
ion Ru   0.109529584970967   0.885321129869913   0.625059379329152 1
ion Ru   0.221372572195391   0.774475867009062   0.874179252323406 1
ion Ru   0.442509219934832   0.219673606661620   0.125499262120779 1
ion Ru   0.555426512866077   0.107889555202949   0.375489923951659 1
ion Ru   0.444285851204778   0.218064654816464   0.624220794889305 1
ion Ru   0.555340590529633   0.108297549672523   0.874719560998613 1
ion Ru   0.443132411961649   0.553666345792356   0.125037159145114 1
ion Ru   0.556480018874047   0.441249989943032   0.373744819625857 1
ion Ru   0.444616456277017   0.551795889734898   0.624009281991971 1
ion Ru   0.554746322305737   0.440249017118726   0.874657444262032 1
ion Ru   0.442774752670120   0.886478979964878   0.125009219259647 1
ion Ru   0.554788820836614   0.775193969672837   0.374719329587651 1
ion Ru   0.444876405623565   0.886193345051640   0.624416104565005 1
ion Ru   0.554985944044498   0.774364300211613   0.874985239260346 1
ion Ru   0.776537085666921   0.219743682731587   0.123960806833639 1
ion Ru   0.888491759371015   0.108305269874509   0.374396405729523 1
ion Ru   0.777850712532569   0.217286153579229   0.623474940638929 1
ion Ru   0.889267825139028   0.107302296373974   0.875701250588753 1
ion Ru   0.776963304109632   0.552937878404766   0.123831003671486 1
ion Ru   0.888103347130317   0.441302565847860   0.374519913181313 1
ion Ru   0.778436883677376   0.551640561547829   0.624870432485527 1
ion Ru   0.889609974643605   0.440640239686636   0.872825326776182 1
ion Ru   0.776733456583844   0.886297764559403   0.125833571836127 1
ion Ru   0.888306358047889   0.773969685997008   0.376274311213764 1
ion Ru   0.777841112191905   0.885063649723215   0.625371097545083 1
ion Ru   0.888008232859341   0.773804125106135   0.875011026251453 1

# Forces in Lattice coordinates:
force Ru  -0.016759050619030   0.004598533408182  -0.019712185606383 1
force Ru   0.006258779474158  -0.027226659344750   0.011707242228591 1
force Ru  -0.028848135391854   0.012105172465400  -0.026431282208480 1
force Ru   0.027344077746092  -0.020404639136229   0.012957616685436 1
force Ru   0.011208117763550  -0.015833131447617   0.013773839239638 1
force Ru  -0.005273865027460  -0.008920381922293   0.025007388679604 1
force Ru  -0.006870274570523  -0.005804281434632   0.034586777224864 1
force Ru  -0.050113170516850   0.038243066901972   0.031081582623198 1
force Ru   0.019501047129057  -0.017681608998174   0.001124225326348 1
force Ru   0.008328822241668  -0.001061340455483  -0.027721533832303 1
force Ru   0.036614349869434  -0.004220818652193  -0.008922875497069 1
force Ru   0.017847622218654  -0.002911152490019   0.007850296249667 1
force Ru   0.046963541995015  -0.034500370936134  -0.034459994557317 1
force Ru  -0.014947918787923   0.008264637383131  -0.043137747903243 1
force Ru  -0.014214212660126   0.029761868409067   0.014397671690513 1
force Ru   0.003576015897782  -0.017001309548200   0.002310862677982 1
force Ru   0.039731631755429  -0.032986480798683  -0.016135579072805 1
force Ru  -0.041962569062855   0.031274342659697   0.033150645818798 1
force Ru  -0.002192919720798   0.016522552683173   0.007451204655236 1
force Ru   0.007482443202181   0.015291606163900  -0.006157248621443 1
force Ru   0.017590557325769  -0.010229271470916  -0.016692774189263 1
force Ru   0.023400275793544  -0.023352329636509   0.003005067495583 1
force Ru  -0.017280762076090  -0.009956138147082   0.021342190089029 1
force Ru   0.000440632748976   0.006669277737565  -0.008583243275668 1
force Ru   0.018537838218694  -0.011776124259851   0.011039428018445 1
force Ru   0.020360464615211  -0.017041326994056   0.007392582790874 1
force Ru  -0.020797164427479   0.046353258752164   0.048277874581495 1
force Ru  -0.031072383052508   0.026212089691518  -0.029813651306595 1
force Ru   0.014663304607232  -0.016862264663993   0.016110813740817 1
force Ru   0.026010064992275  -0.014522630813683  -0.014467939987424 1
force Ru  -0.043045534696896   0.018928073951789  -0.001169312417548 1
force Ru  -0.023703397756559   0.010494479356093   0.049141265344969 1
force Ru   0.009427457584017  -0.016852969839244  -0.028482663609127 1
force Ru  -0.013378469016393   0.020202906799476  -0.058912928519738 1
force Ru  -0.024442015811481   0.019792206247056  -0.015485577288586 1
force Ru  -0.002009702972348   0.008156188410695   0.001557991229016 1

# Energy components:
   Eewald =    -2965.2533749870399333
       EH =      500.0512452665657861
     Eloc =    -2241.8631949546697797
      Enl =      643.7683585846233427
      Exc =     -464.1794845836546983
 Exc_core =       74.6866498064854341
       KE =     1031.1913584792703205
-------------------------------------
     Etot =    -3421.5984423884201533
       TS =        0.2897740876559272
-------------------------------------
        F =    -3421.8882164760761952

IonicMinimize: Iter:   5  F: -3421.888216476076195  |grad|_K:  1.371e-03  alpha:  7.362e-01  linmin: -9.183e-01  t[s]:  10859.02

#--- Lowdin population analysis ---
# oxidation-state Ru +0.021 +0.021 +0.021 +0.021 +0.021 +0.021 +0.021 +0.021 +0.021 +0.021 +0.021 +0.021 +0.021 +0.020 +0.021 +0.021 +0.021 +0.021 +0.021 +0.021 +0.021 +0.021 +0.021 +0.021 +0.021 +0.021 +0.021 +0.021 +0.021 +0.021 +0.021 +0.021 +0.021 +0.021 +0.020 +0.021


-------- Electronic minimization -----------
Will mix electronic density at each iteration.
	FillingsUpdate:  mu: +0.883232502  nElectrons: 576.000000
	FillingsUpdate:  mu: +0.883162851  nElectrons: 576.000000
SCF: Cycle:  0   F: -3419.009520346086447   dF: +2.543e+00   |Residual|: 6.112e-01   |deigs|: 8.602e-04  t[s]:  11013.21
	FillingsUpdate:  mu: +0.883011593  nElectrons: 576.000000
SCF: Cycle:  1   F: -3407.937006111762912   dF: +1.107e+01   |Residual|: 1.240e+00   |deigs|: 1.494e-02  t[s]:  11129.79
	FillingsUpdate:  mu: +0.883989582  nElectrons: 576.000000
SCF: Cycle:  2   F: -3421.669142970424673   dF: -1.373e+01   |Residual|: 1.702e-01   |deigs|: 1.869e-02  t[s]:  11244.79
	FillingsUpdate:  mu: +0.883372368  nElectrons: 576.000000
SCF: Cycle:  3   F: -3421.628286615576144   dF: +4.086e-02   |Residual|: 2.253e-01   |deigs|: 1.673e-03  t[s]:  11355.64
	FillingsUpdate:  mu: +0.883289272  nElectrons: 576.000000
SCF: Cycle:  4   F: -3421.888235277524018   dF: -2.599e-01   |Residual|: 1.992e-02   |deigs|: 2.223e-03  t[s]:  11463.91
	FillingsUpdate:  mu: +0.883242752  nElectrons: 576.000000
SCF: Cycle:  5   F: -3421.885556749808075   dF: +2.679e-03   |Residual|: 2.314e-02   |deigs|: 8.456e-05  t[s]:  11531.72
	FillingsUpdate:  mu: +0.883234076  nElectrons: 576.000000
SCF: Cycle:  6   F: -3421.888866519538624   dF: -3.310e-03   |Residual|: 5.610e-03   |deigs|: 8.560e-05  t[s]:  11601.15
	FillingsUpdate:  mu: +0.883221177  nElectrons: 576.000000
SCF: Cycle:  7   F: -3421.888953856525404   dF: -8.734e-05   |Residual|: 2.953e-03   |deigs|: 1.697e-05  t[s]:  11668.41
	FillingsUpdate:  mu: +0.883223336  nElectrons: 576.000000
SCF: Cycle:  8   F: -3421.888991184103361   dF: -3.733e-05   |Residual|: 9.484e-04   |deigs|: 4.765e-06  t[s]:  11737.61
	FillingsUpdate:  mu: +0.883230196  nElectrons: 576.000000
SCF: Cycle:  9   F: -3421.888993248200222   dF: -2.064e-06   |Residual|: 3.972e-04   |deigs|: 7.860e-06  t[s]:  11807.18
	FillingsUpdate:  mu: +0.883229631  nElectrons: 576.000000
SCF: Cycle: 10   F: -3421.888993612469221   dF: -3.643e-07   |Residual|: 2.388e-04   |deigs|: 7.698e-07  t[s]:  11874.97
	FillingsUpdate:  mu: +0.883227924  nElectrons: 576.000000
SCF: Cycle: 11   F: -3421.888993782632042   dF: -1.702e-07   |Residual|: 6.927e-05   |deigs|: 1.932e-06  t[s]:  11945.28
	FillingsUpdate:  mu: +0.883227932  nElectrons: 576.000000
SCF: Cycle: 12   F: -3421.888993743083120   dF: +3.955e-08   |Residual|: 8.580e-05   |deigs|: 2.867e-07  t[s]:  12012.78
	FillingsUpdate:  mu: +0.883227916  nElectrons: 576.000000
SCF: Cycle: 13   F: -3421.888993787067648   dF: -4.398e-08   |Residual|: 3.328e-05   |deigs|: 3.154e-07  t[s]:  12082.60
	FillingsUpdate:  mu: +0.883227936  nElectrons: 576.000000
SCF: Cycle: 14   F: -3421.888993787730215   dF: -6.626e-10   |Residual|: 2.670e-05   |deigs|: 3.300e-07  t[s]:  12149.31
	FillingsUpdate:  mu: +0.883227956  nElectrons: 576.000000
SCF: Cycle: 15   F: -3421.888993793003010   dF: -5.273e-09   |Residual|: 1.307e-05   |deigs|: 3.180e-07  t[s]:  12217.91
SCF: Converged (|Delta E|<1.000000e-08 for 2 iters).

Setting wave functions to eigenvectors of Hamiltonian

# Ionic positions in lattice coordinates:
ion Ru   0.110475612092696   0.219439512568918   0.124593097198596 1
ion Ru   0.221774112172341   0.107872342992494   0.374645693884948 1
ion Ru   0.110996243157106   0.219214804608658   0.624577400658883 1
ion Ru   0.221815742643651   0.107877305424638   0.874656785744167 1
ion Ru   0.110720050991442   0.552748189489724   0.124354369721907 1
ion Ru   0.222156407166887   0.441465880818861   0.374558854925944 1
ion Ru   0.110768588927376   0.552305709418869   0.624465056412174 1
ion Ru   0.221954426588626   0.441304091773958   0.874584858747210 1
ion Ru   0.110226615109188   0.885936965974369   0.124695282080157 1
ion Ru   0.221705419437039   0.774589665577695   0.374538618714179 1
ion Ru   0.110637765344069   0.885633997609425   0.624633863533350 1
ion Ru   0.221806598253309   0.774608288786319   0.874519036429678 1
ion Ru   0.443698394388480   0.219239094333455   0.124646757132895 1
ion Ru   0.555250809198733   0.108011372976226   0.374602123689619 1
ion Ru   0.444169755469042   0.219053159981285   0.624531181863164 1
ion Ru   0.555112170668140   0.107768580724117   0.874685760969568 1
ion Ru   0.444097033051711   0.552788905736793   0.124513877939604 1
ion Ru   0.555203629612174   0.441365081575197   0.374530482234334 1
ion Ru   0.444358378167344   0.552515454654180   0.624765400003622 1
ion Ru   0.555300173752696   0.441066587560463   0.874632401366248 1
ion Ru   0.443642895594713   0.886064821897480   0.124667123661305 1
ion Ru   0.555177181197999   0.774749675687656   0.374751898818379 1
ion Ru   0.444009633278144   0.885755392347713   0.624618720383495 1
ion Ru   0.555221339386569   0.774655361441893   0.874677023339013 1
ion Ru   0.777189327230191   0.219150407801110   0.124621950753230 1
ion Ru   0.888685563094803   0.107956040470498   0.374818578196292 1
ion Ru   0.777487864576473   0.218979492672711   0.624601045504649 1
ion Ru   0.888552698881356   0.107795481098817   0.874561580371142 1
ion Ru   0.777227677107516   0.552462541494380   0.124596267390225 1
ion Ru   0.888746131410902   0.441212039499268   0.374314728831482 1
ion Ru   0.777418688935828   0.552154717292359   0.624453535507875 1
ion Ru   0.888470718875280   0.441015925262457   0.874553612132634 1
ion Ru   0.777033569633906   0.885950883425698   0.124705690909749 1
ion Ru   0.888345528388268   0.774504738853805   0.374632112520394 1
ion Ru   0.777452854208969   0.885619696208346   0.624768492404034 1
ion Ru   0.888390402007033   0.774277791960163   0.874726736025853 1

# Forces in Lattice coordinates:
force Ru   0.005712952774794  -0.006779683578455   0.000615486519712 1
force Ru   0.001622637583266   0.001184729281238  -0.000849232467060 1
force Ru  -0.005791381420312   0.001860594163341   0.001809998189269 1
force Ru   0.000710618654712  -0.000366549948451  -0.001879981268097 1
force Ru  -0.001001326374300  -0.002826262908882   0.006207372476238 1
force Ru  -0.002059105676020  -0.001268238584147   0.000709055451755 1
force Ru  -0.003287362719489   0.005105679760720   0.003387790344905 1
force Ru   0.001531568501867  -0.001821361852229  -0.001072610115297 1
force Ru   0.007486672039856  -0.004643054247593  -0.002885134878356 1
force Ru   0.003799582105321  -0.001696753365712   0.001754024359069 1
force Ru  -0.002907841909414   0.003978599544397  -0.000737387355814 1
force Ru   0.000788276635564  -0.001803020372486   0.001705495445624 1
force Ru   0.004405437422125  -0.002309422951301  -0.000512311855993 1
force Ru   0.000229592131451  -0.001401848513866   0.000593360025642 1
force Ru  -0.005782138312671   0.003932653577644   0.001988592178143 1
force Ru   0.000821489555808   0.002199380873008  -0.002953493675674 1
force Ru  -0.002606641318981  -0.002071758376748   0.002659253474190 1
force Ru   0.003142029997133  -0.004244293060750   0.001695531179914 1
force Ru  -0.007935456988016   0.003175935528670  -0.004377332227474 1
force Ru  -0.003231258187834   0.003806578731224  -0.001017619372311 1
force Ru   0.008067055802751  -0.007794688097313  -0.001212250911279 1
force Ru   0.002694206093912  -0.003782737000007  -0.003576751348882 1
force Ru  -0.001545640493001   0.001534464232842  -0.000334923644248 1
force Ru   0.000252743349327  -0.001441473050792  -0.001598741810398 1
force Ru   0.001176743132623  -0.000466208502760  -0.000631036397259 1
force Ru  -0.001954507510153   0.000228983638840  -0.006031320679017 1
force Ru  -0.005014339398541   0.004676447629301  -0.000583152879883 1
force Ru   0.000509151024339   0.001449370316327   0.001595823417751 1
force Ru  -0.000917952270190   0.000949100352446   0.000309312198623 1
force Ru  -0.003663414644047   0.001650210192268   0.007843779778678 1
force Ru  -0.003663680522980   0.006180109290559   0.003518703703566 1
force Ru   0.002054019510789   0.001851088120071  -0.000177461229119 1
force Ru   0.005626137963888  -0.003180830231738  -0.001583549040978 1
force Ru   0.003753657010626  -0.001399403175694  -0.000163497108636 1
force Ru  -0.004885005481469   0.005606820409257  -0.003645011523462 1
force Ru   0.000004196145189   0.004000671492479  -0.003863129073162 1

# Energy components:
   Eewald =    -2965.2918359440609493
       EH =      500.0130228511951032
     Eloc =    -2241.7821876024959238
      Enl =      643.7668531001700103
      Exc =     -464.1782397197337104
 Exc_core =       74.6866512675296690
       KE =     1031.1864871554234924
-------------------------------------
     Etot =    -3421.5992488919719108
       TS =        0.2897449010310822
-------------------------------------
        F =    -3421.8889937930030101

IonicMinimize: Iter:   6  F: -3421.888993793003010  |grad|_K:  1.997e-04  alpha:  1.000e+00  linmin: -2.472e-01  t[s]:  12232.71

#--- Lowdin population analysis ---
# oxidation-state Ru +0.021 +0.021 +0.021 +0.021 +0.021 +0.021 +0.021 +0.021 +0.021 +0.021 +0.021 +0.021 +0.021 +0.021 +0.021 +0.021 +0.021 +0.021 +0.021 +0.021 +0.021 +0.021 +0.021 +0.021 +0.021 +0.021 +0.021 +0.021 +0.021 +0.021 +0.021 +0.021 +0.021 +0.021 +0.021 +0.021


-------- Electronic minimization -----------
Will mix electronic density at each iteration.
	FillingsUpdate:  mu: +0.883227956  nElectrons: 576.000000
	FillingsUpdate:  mu: +0.883227750  nElectrons: 576.000000
SCF: Cycle:  0   F: -3421.889007285984462   dF: -2.484e-05   |Residual|: 1.125e-03   |deigs|: 8.612e-07  t[s]:  12338.51
	FillingsUpdate:  mu: +0.883227482  nElectrons: 576.000000
SCF: Cycle:  1   F: -3421.888984018651172   dF: +2.327e-05   |Residual|: 2.031e-03   |deigs|: 2.706e-06  t[s]:  12407.36
	FillingsUpdate:  mu: +0.883227483  nElectrons: 576.000000
SCF: Cycle:  2   F: -3421.889013873309977   dF: -2.985e-05   |Residual|: 4.189e-04   |deigs|: 2.786e-06  t[s]:  12475.13
	FillingsUpdate:  mu: +0.883227450  nElectrons: 576.000000
SCF: Cycle:  3   F: -3421.889014034281445   dF: -1.610e-07   |Residual|: 2.998e-04   |deigs|: 6.099e-07  t[s]:  12544.67
	FillingsUpdate:  mu: +0.883227452  nElectrons: 576.000000
SCF: Cycle:  4   F: -3421.889014479200796   dF: -4.449e-07   |Residual|: 1.203e-04   |deigs|: 3.484e-07  t[s]:  12607.39
	FillingsUpdate:  mu: +0.883227458  nElectrons: 576.000000
SCF: Cycle:  5   F: -3421.889014548965861   dF: -6.977e-08   |Residual|: 1.841e-05   |deigs|: 2.224e-07  t[s]:  12671.88
	FillingsUpdate:  mu: +0.883227457  nElectrons: 576.000000
SCF: Cycle:  6   F: -3421.889014545641203   dF: +3.325e-09   |Residual|: 2.557e-05   |deigs|: 1.817e-07  t[s]:  12737.62
	FillingsUpdate:  mu: +0.883227457  nElectrons: 576.000000
SCF: Cycle:  7   F: -3421.889014550082265   dF: -4.441e-09   |Residual|: 4.948e-06   |deigs|: 1.822e-07  t[s]:  12806.73
	FillingsUpdate:  mu: +0.883227457  nElectrons: 576.000000
SCF: Cycle:  8   F: -3421.889014549862168   dF: +2.201e-10   |Residual|: 5.556e-06   |deigs|: 1.743e-07  t[s]:  12869.89
	FillingsUpdate:  mu: +0.883227457  nElectrons: 576.000000
SCF: Cycle:  9   F: -3421.889014549837157   dF: +2.501e-11   |Residual|: 8.475e-07   |deigs|: 1.692e-07  t[s]:  12929.55
	FillingsUpdate:  mu: +0.883227457  nElectrons: 576.000000
SCF: Cycle: 10   F: -3421.889014550094998   dF: -2.578e-10   |Residual|: 8.171e-07   |deigs|: 1.427e-07  t[s]:  12977.69
	FillingsUpdate:  mu: +0.883227457  nElectrons: 576.000000
SCF: Cycle: 11   F: -3421.889014550000866   dF: +9.413e-11   |Residual|: 3.394e-07   |deigs|: 1.184e-07  t[s]:  13022.57
	FillingsUpdate:  mu: +0.883227457  nElectrons: 576.000000
SCF: Cycle: 12   F: -3421.889014550008596   dF: -7.731e-12   |Residual|: 8.509e-08   |deigs|: 1.272e-07  t[s]:  13067.69
	FillingsUpdate:  mu: +0.883227457  nElectrons: 576.000000
SCF: Cycle: 13   F: -3421.889014549917192   dF: +9.140e-11   |Residual|: 1.352e-07   |deigs|: 1.440e-07  t[s]:  13109.98
	FillingsUpdate:  mu: +0.883227457  nElectrons: 576.000000
SCF: Cycle: 14   F: -3421.889014550131378   dF: -2.142e-10   |Residual|: 5.130e-08   |deigs|: 1.659e-07  t[s]:  13152.17
	FillingsUpdate:  mu: +0.883227457  nElectrons: 576.000000
SCF: Cycle: 15   F: -3421.889014550037245   dF: +9.413e-11   |Residual|: 2.507e-08   |deigs|: 1.806e-07  t[s]:  13193.61
SCF: Converged (|Residual|<1.000000e-07 for 2 iters).

Setting wave functions to eigenvectors of Hamiltonian

# Ionic positions in lattice coordinates:
ion Ru   0.110547169020482   0.219278190283368   0.124589581598285 1
ion Ru   0.221845775958195   0.107900547937738   0.374632871916969 1
ion Ru   0.110754352439838   0.219168456011986   0.624595750667455 1
ion Ru   0.221868186319733   0.107866720623376   0.874621627191683 1
ion Ru   0.110631760519341   0.552585848605391   0.124543859251798 1
ion Ru   0.222033374456428   0.441346310752092   0.374608358575779 1
ion Ru   0.110721139068625   0.552423526244646   0.624603383072362 1
ion Ru   0.221923731975501   0.441281609696876   0.874594623709718 1
ion Ru   0.110445939849911   0.885880774837713   0.124628372411646 1
ion Ru   0.221839790316876   0.774600189787534   0.374559620216326 1
ion Ru   0.110657877145871   0.885755391177620   0.624603216243931 1
ion Ru   0.221838864018051   0.774558136524818   0.874576730610993 1
ion Ru   0.443884503826555   0.219208618248699   0.124597737694303 1
ion Ru   0.555218313615345   0.107960554092122   0.374571234221178 1
ion Ru   0.444020914550713   0.219136332539324   0.624605439501562 1
ion Ru   0.555176679170359   0.107837854018902   0.874614539835965 1
ion Ru   0.443996266852479   0.552626061294449   0.124575775976202 1
ion Ru   0.555189325078694   0.441277010368792   0.374621288817129 1
ion Ru   0.444114565778448   0.552505867562789   0.624651975979191 1
ion Ru   0.555272098312376   0.441190276896996   0.874593841505226 1
ion Ru   0.443836684081255   0.885909309764676   0.124613026761745 1
ion Ru   0.555232754422571   0.774620475275003   0.374657104747702 1
ion Ru   0.443936703720692   0.885751374845678   0.624635373048072 1
ion Ru   0.555210047612098   0.774607623980722   0.874627705017412 1
ion Ru   0.777255137292432   0.219152398606426   0.124622760686084 1
ion Ru   0.888631159539456   0.107897258633657   0.374668718333073 1
ion Ru   0.777383494462336   0.219128424970436   0.624639513882770 1
ion Ru   0.888567941700717   0.107872937354835   0.874571409907631 1
ion Ru   0.777228166516158   0.552457452415530   0.124632334556884 1
ion Ru   0.888651091350268   0.441204667978526   0.374513460373242 1
ion Ru   0.777336425629584   0.552324169878808   0.624551685223247 1
ion Ru   0.888552344090864   0.441131806014598   0.874613029460850 1
ion Ru   0.777193069257183   0.885903553069723   0.124631989520606 1
ion Ru   0.888464862703133   0.774551707852230   0.374558605390966 1
ion Ru   0.777341352742948   0.885758412674754   0.624647333289377 1
ion Ru   0.888478136604486   0.774450149179167   0.874626120802638 1

# Forces in Lattice coordinates:
force Ru   0.003429277763232  -0.002971367082410   0.000193879974064 1
force Ru   0.001220795122527  -0.000029805073788  -0.001219403261802 1
force Ru  -0.002005553275852   0.000757819618273   0.000821679749558 1
force Ru  -0.000583103849017   0.000922751305483  -0.000402526353369 1
force Ru   0.000370980931461  -0.001089125830701   0.001750331781816 1
force Ru  -0.002021530528500  -0.000411134370219  -0.000588493157091 1
force Ru  -0.003035811209279   0.003083338811326  -0.000926233143805 1
force Ru   0.001246608275557  -0.001743911896559   0.000295448806333 1
force Ru   0.003695736934977  -0.002216325633941  -0.001184026119413 1
force Ru   0.001232901130334  -0.001133429906160   0.001268095567433 1
force Ru  -0.002383011362902   0.001720459600817  -0.000186416049694 1
force Ru   0.000019171965846   0.000019821832733   0.001057210603925 1
force Ru   0.000441634714279  -0.000376476335523   0.000378742654261 1
force Ru   0.001226128671464  -0.001646559198438   0.001843511093132 1
force Ru  -0.001236598059601   0.000278305795628  -0.000282006372180 1
force Ru   0.000328144216329   0.001160026298940  -0.000528697301849 1
force Ru  -0.000148460809902  -0.001730491695312   0.000393817682278 1
force Ru   0.002357089126631  -0.002376103772209  -0.001146134301796 1
force Ru  -0.002767128689896   0.001404059970958  -0.000760102666878 1
force Ru  -0.001593755181929   0.001305903964966   0.000804226880560 1
force Ru   0.002520403764076  -0.002169587170765   0.000184152921980 1
force Ru  -0.000531332249143   0.000403861120609  -0.001317346564950 1
force Ru  -0.000024187900192   0.002098992764401  -0.001820867723857 1
force Ru   0.000996903760330  -0.001180373156274  -0.000506221381852 1
force Ru   0.000022521117002   0.000112874180420  -0.000334802887349 1
force Ru  -0.002593241404295   0.001932975591146  -0.001408980171084 1
force Ru  -0.001907095026015   0.000451106082890  -0.002162281485135 1
force Ru   0.000171909170629  -0.000013426886514   0.000932331798122 1
force Ru   0.000096844552588   0.000744742790928  -0.001020216215678 1
force Ru  -0.002175213758039   0.001421254817479   0.002895295520578 1
force Ru  -0.001315245189045   0.003856474212156   0.000974329294058 1
force Ru  -0.000757379695729   0.002110171853108  -0.000468072205962 1
force Ru   0.002254618912366  -0.001980268554382  -0.001109900405441 1
force Ru   0.002415200162199  -0.001561362526212   0.002220177100043 1
force Ru  -0.001186077902779   0.001608071681088  -0.000869285473202 1
force Ru   0.000332347020987   0.001334836837936  -0.001091564770155 1

# Energy components:
   Eewald =    -2965.2922274339425712
       EH =      500.0125895453342082
     Eloc =    -2241.7812519979479475
      Enl =      643.7667991244072709
      Exc =     -464.1782128703119952
 Exc_core =       74.6866512803759974
       KE =     1031.1863765266975861
-------------------------------------
     Etot =    -3421.5992758253864849
       TS =        0.2897387246507272
-------------------------------------
        F =    -3421.8890145500372455

IonicMinimize: Iter:   7  F: -3421.889014550037245  |grad|_K:  9.119e-05  alpha:  1.000e+00  linmin: -6.632e-01  t[s]:  13209.46
IonicMinimize: Converged (|grad|_K<1.000000e-04).

#--- Lowdin population analysis ---
# oxidation-state Ru +0.021 +0.021 +0.021 +0.021 +0.021 +0.021 +0.021 +0.021 +0.021 +0.021 +0.021 +0.021 +0.021 +0.021 +0.021 +0.021 +0.021 +0.021 +0.021 +0.021 +0.021 +0.021 +0.021 +0.021 +0.021 +0.021 +0.021 +0.021 +0.021 +0.021 +0.021 +0.021 +0.021 +0.021 +0.021 +0.021


Dumping '/data/rc652/Ru/ion/Ru_ion.Ecomponents' ... done
End date and time: Fri Jul 12 19:17:38 2024  (Duration: 0-3:40:19.78)
Done!
