--------------------------------------------------------------------------
Initialization of PSM library failed.

  Error: PSM is in the finalized state
--------------------------------------------------------------------------

*************** JDFTx 1.7.0 (git hash 3664913) ***************

Start date and time: Fri Jul 12 15:40:24 2024
Executable jdftx with command-line: -i Ru_oct.in
Running on hosts (process indices):  node3103.physics.cornell.edu (0-15)
Divided in process groups (process indices):  0 (0)  1 (1)  2 (2)  3 (3)  4 (4)  5 (5)  6 (6)  7 (7)  8 (8)  9 (9)  10 (10)  11 (11)  12 (12)  13 (13)  14 (14)  15 (15)
Resource initialization completed at t[s]:      0.00
Run totals: 16 processes, 32 threads, 0 GPUs


Input parsed successfully to the following command list (including defaults):

basis kpoint-dependent
coords-type Lattice
core-overlap-check vector
coulomb-interaction Periodic
davidson-band-ratio 1.1
dump End Ecomponents
dump-name /data/rc652/Ru/oct/Ru_oct.$VAR
elec-cutoff 20 100
elec-eigen-algo Davidson
elec-ex-corr gga-PBEsol
elec-smearing Fermi 0.01
electronic-minimize  \
	dirUpdateScheme      FletcherReeves \
	linminMethod         DirUpdateRecommended \
	nIterations          100 \
	history              15 \
	knormThreshold       0 \
	maxThreshold         no \
	energyDiffThreshold  1e-08 \
	nEnergyDiff          2 \
	alphaTstart          1 \
	alphaTmin            1e-10 \
	updateTestStepSize   yes \
	alphaTreduceFactor   0.1 \
	alphaTincreaseFactor 3 \
	nAlphaAdjustMax      3 \
	wolfeEnergy          0.0001 \
	wolfeGradient        0.9 \
	fdTest               no
electronic-scf  \
	nIterations	50 \
	energyDiffThreshold	1e-08 \
	residualThreshold	1e-07 \
	mixFraction	0.5 \
	qMetric	0.8 \
	history	10 \
	nEigSteps	2 \
	eigDiffThreshold	1e-08 \
	mixedVariable	Density \
	qKerker	0.8 \
	qKappa	-1 \
	verbose	no \
	mixFractionMag	1.5
exchange-regularization WignerSeitzTruncated
fluid None
fluid-ex-corr lda-TF lda-PZ
fluid-gummel-loop 10 1.000000e-05
fluid-minimize  \
	dirUpdateScheme      PolakRibiere \
	linminMethod         DirUpdateRecommended \
	nIterations          100 \
	history              15 \
	knormThreshold       0 \
	maxThreshold         no \
	energyDiffThreshold  0 \
	nEnergyDiff          2 \
	alphaTstart          1 \
	alphaTmin            1e-10 \
	updateTestStepSize   yes \
	alphaTreduceFactor   0.1 \
	alphaTincreaseFactor 3 \
	nAlphaAdjustMax      3 \
	wolfeEnergy          0.0001 \
	wolfeGradient        0.9 \
	fdTest               no
fluid-solvent H2O 55.338 ScalarEOS \
	epsBulk 78.4 \
	pMol 0.92466 \
	epsInf 1.77 \
	Pvap 1.06736e-10 \
	sigmaBulk 4.62e-05 \
	Rvdw 2.61727 \
	Res 1.42 \
	tauNuc 343133 \
	poleEl 15 7 1
forces-output-coords Positions
ion Ru   0.124450000000000   0.224420000000000   0.140270000000000 1
ion Ru   0.222890000000000   0.094510000000000   0.383880000000000 1
ion Ru   0.112990000000000   0.215870000000000   0.608960000000000 1
ion Ru   0.217290000000000   0.110690000000000   0.874030000000000 1
ion Ru   0.104580000000000   0.544410000000000   0.125070000000000 1
ion Ru   0.230370000000000   0.428120000000000   0.365350000000000 1
ion Ru   0.121540000000000   0.564850000000000   0.625620000000000 1
ion Ru   0.224930000000000   0.449230000000000   0.862470000000000 1
ion Ru   0.103520000000000   0.897200000000000   0.122730000000000 1
ion Ru   0.203990000000000   0.783400000000000   0.367580000000000 1
ion Ru   0.118490000000000   0.887300000000000   0.648160000000000 1
ion Ru   0.226440000000000   0.776480000000000   0.867460000000000 1
ion Ru   0.439890000000000   0.242490000000000   0.137180000000000 1
ion Ru   0.548170000000000   0.114060000000000   0.379230000000000 1
ion Ru   0.435550000000000   0.229600000000000   0.619090000000000 1
ion Ru   0.559520000000000   0.110250000000000   0.890120000000000 1
ion Ru   0.456430000000000   0.544910000000000   0.132260000000000 1
ion Ru   0.572840000000000   0.447160000000000   0.356910000000000 1
ion Ru   0.452970000000000   0.549920000000000   0.619900000000000 1
ion Ru   0.558530000000000   0.436410000000000   0.882850000000000 1
ion Ru   0.443330000000000   0.887300000000000   0.117110000000000 1
ion Ru   0.547970000000000   0.770780000000000   0.363990000000000 1
ion Ru   0.450890000000000   0.881860000000000   0.622790000000000 1
ion Ru   0.546720000000000   0.789070000000000   0.862510000000000 1
ion Ru   0.779720000000000   0.226100000000000   0.114440000000000 1
ion Ru   0.887030000000000   0.112120000000000   0.382880000000000 1
ion Ru   0.787320000000000   0.218450000000000   0.615290000000000 1
ion Ru   0.889360000000000   0.123060000000000   0.890840000000000 1
ion Ru   0.778310000000000   0.557730000000000   0.116690000000000 1
ion Ru   0.875750000000000   0.442000000000000   0.388940000000000 1
ion Ru   0.767820000000000   0.560330000000000   0.641690000000000 1
ion Ru   0.895320000000000   0.449310000000000   0.881160000000000 1
ion Ru   0.771490000000000   0.897380000000000   0.135170000000000 1
ion Ru   0.901830000000000   0.772400000000000   0.383810000000000 1
ion Ru   0.775450000000000   0.890700000000000   0.628330000000000 1
ion Ru   0.902450000000000   0.789110000000000   0.866630000000000 1
ion O   0.330000000000000   0.380000000000000   0.550000000000000 1
ion-species GBRV/$ID_pbesol.uspp
ion-width 0
ionic-minimize  \
	dirUpdateScheme      L-BFGS \
	linminMethod         DirUpdateRecommended \
	nIterations          30 \
	history              15 \
	knormThreshold       0.0001 \
	maxThreshold         no \
	energyDiffThreshold  1e-06 \
	nEnergyDiff          2 \
	alphaTstart          1 \
	alphaTmin            1e-10 \
	updateTestStepSize   yes \
	alphaTreduceFactor   0.1 \
	alphaTincreaseFactor 3 \
	nAlphaAdjustMax      3 \
	wolfeEnergy          0.0001 \
	wolfeGradient        0.9 \
	fdTest               no
kpoint   0.500000000000   0.500000000000   0.500000000000  1.00000000000000
kpoint-folding 3 3 4 
latt-move-scale 1 1 1
latt-scale 1 1 1 
lattice  \
	   7.637106636022303    7.637106636022303    0.000000000000000  \
	 -13.227856220128549   13.227856220128549    0.000000000000000  \
	   0.000000000000000   -0.000000000000000   16.101058041412667 
lattice-minimize  \
	dirUpdateScheme      L-BFGS \
	linminMethod         DirUpdateRecommended \
	nIterations          0 \
	history              15 \
	knormThreshold       0 \
	maxThreshold         no \
	energyDiffThreshold  1e-06 \
	nEnergyDiff          2 \
	alphaTstart          1 \
	alphaTmin            1e-10 \
	updateTestStepSize   yes \
	alphaTreduceFactor   0.1 \
	alphaTincreaseFactor 3 \
	nAlphaAdjustMax      3 \
	wolfeEnergy          0.0001 \
	wolfeGradient        0.9 \
	fdTest               no
lcao-params -1 1e-06 0.01
pcm-variant GLSSA13
perturb-minimize  \
	nIterations            0 \
	algorithm              MINRES \
	residualTol            0.0001 \
	residualDiffThreshold  0.0001 \
	CGBypass               no \
	recomputeResidual      no
spintype no-spin
subspace-rotation-factor 1 yes
symmetries automatic
symmetry-threshold 0.0001



---------- Setting up symmetries ----------

Found 24 point-group symmetries of the bravais lattice
Found 1 space-group symmetries with basis
Applied RMS atom displacement 0 bohrs to make symmetries exact.

---------- Initializing the Grid ----------
R = 
[      7.63711      7.63711            0  ]
[     -13.2279      13.2279            0  ]
[            0            0      16.1011  ]
unit cell volume = 3253.14
G =
[   0.411359  -0.237498          0  ]
[   0.411359   0.237498         -0  ]
[          0          0   0.390234  ]
Minimum fftbox size, Smin = [  72  72  76  ]
Chosen fftbox size, S = [  72  72  80  ]

---------- Initializing tighter grid for wavefunction operations ----------
R = 
[      7.63711      7.63711            0  ]
[     -13.2279      13.2279            0  ]
[            0            0      16.1011  ]
unit cell volume = 3253.14
G =
[   0.411359  -0.237498          0  ]
[   0.411359   0.237498         -0  ]
[          0          0   0.390234  ]
Minimum fftbox size, Smin = [  64  64  68  ]
Chosen fftbox size, S = [  64  64  70  ]

---------- Exchange Correlation functional ----------
Initalized PBEsol GGA exchange.
Initalized PBEsol GGA correlation.

---------- Setting up pseudopotentials ----------
Width of ionic core gaussian charges (only for fluid interactions / plotting) set to 0

Reading pseudopotential file '/home/rc652/build/pseudopotentials/GBRV/ru_pbesol.uspp':
  Title: Ru.  Created by USPP 7.3.6 on 3-2-2014
  Reference state energy: -96.377317.  16 valence electrons in orbitals:
    |400>  occupation: 2  eigenvalue: -3.215115
    |410>  occupation: 6  eigenvalue: -2.110081
    |420>  occupation: 6  eigenvalue: -0.566695
    |500>  occupation: 1  eigenvalue: -0.433966
    |510>  occupation: 0  eigenvalue: -0.255949
  lMax: 2  lLocal: 3  QijEcut: 6
  6 projectors sampled on a log grid with 713 points:
    l: 0  eig: -0.433966  rCut: 1.5
    l: 0  eig: -3.215115  rCut: 1.5
    l: 1  eig: -2.110081  rCut: 1.6
    l: 1  eig: -0.255949  rCut: 1.6
    l: 2  eig: -0.566695  rCut: 1.75
    l: 2  eig: 0.000000  rCut: 1.75
  Partial core density with radius 1.1
  Transforming core density to a uniform radial grid of dG=0.02 with 1679 points.
  Transforming local potential to a uniform radial grid of dG=0.02 with 1679 points.
  Transforming nonlocal projectors to a uniform radial grid of dG=0.02 with 432 points.
  Transforming density augmentations to a uniform radial grid of dG=0.02 with 1679 points.
  Transforming atomic orbitals to a uniform radial grid of dG=0.02 with 432 points.
  Core radius for overlap checks: 1.75 bohrs.

Reading pseudopotential file '/home/rc652/build/pseudopotentials/GBRV/o_pbesol.uspp':
  Title: O.  Created by USPP 7.3.6 on 3-2-2014
  Reference state energy: -15.849885.  6 valence electrons in orbitals:
    |200>  occupation: 2  eigenvalue: -0.873214
    |210>  occupation: 4  eigenvalue: -0.330058
  lMax: 2  lLocal: 2  QijEcut: 6
  5 projectors sampled on a log grid with 511 points:
    l: 0  eig: -0.873214  rCut: 1.25
    l: 0  eig: 0.000000  rCut: 1.25
    l: 1  eig: -0.330058  rCut: 1.25
    l: 1  eig: 0.000000  rCut: 1.25
    l: 2  eig: 1.000000  rCut: 1.25
  Partial core density with radius 0.7
  Transforming core density to a uniform radial grid of dG=0.02 with 1679 points.
  Transforming local potential to a uniform radial grid of dG=0.02 with 1679 points.
  Transforming nonlocal projectors to a uniform radial grid of dG=0.02 with 432 points.
  Transforming density augmentations to a uniform radial grid of dG=0.02 with 1679 points.
  Transforming atomic orbitals to a uniform radial grid of dG=0.02 with 432 points.
  Core radius for overlap checks: 1.25 bohrs.

Initialized 2 species with 37 total atoms.

Folded 1 k-points by 3x3x4 to 36 k-points.

---------- Setting up k-points, bands, fillings ----------
Adding inversion symmetry to k-mesh for non-inversion-symmetric unit cell.
Reduced to 18 k-points under symmetry. 
Computing the number of bands and number of electrons
Calculating initial fillings.
nElectrons: 582.000000   nBands: 472   nStates: 18

----- Setting up reduced wavefunction bases (one per k-point) -----
average nbasis = 13898.778 , ideal nbasis = 13897.661

---------- Setting up ewald sum ----------
Optimum gaussian width for ewald sums = 3.238252 bohr.
Real space sum over 567 unit cells with max indices [  4  4  3  ]
Reciprocal space sum over 6859 terms with max indices [  9  9  9  ]

---------- Allocating electronic variables ----------
Initializing wave functions:  linear combination of atomic orbitals
Ru pseudo-atom occupations:   s ( 2 0 )  p ( 6 0 )  d ( 8 )
O pseudo-atom occupations:   s ( 2 )  p ( 4 )
	FillingsUpdate:  mu: +0.824003880  nElectrons: 582.000000
LCAOMinimize: Iter:   0  F: -3430.4965324577510728  |grad|_K:  2.191e-03  alpha:  1.000e+00
	FillingsUpdate:  mu: +0.861291602  nElectrons: 582.000000
LCAOMinimize: Iter:   1  F: -3433.3256962820796616  |grad|_K:  2.291e-03  alpha:  2.136e-01  linmin: -8.285e-02  cgtest:  2.753e-01  t[s]:    105.23
	FillingsUpdate:  mu: +0.895068667  nElectrons: 582.000000
LCAOMinimize: Iter:   2  F: -3435.0866349530065236  |grad|_K:  1.811e-03  alpha:  1.243e-01  linmin: -8.062e-03  cgtest: -3.173e-01  t[s]:    140.44
	FillingsUpdate:  mu: +0.909903153  nElectrons: 582.000000
LCAOMinimize: Iter:   3  F: -3435.7658872668525873  |grad|_K:  1.173e-03  alpha:  9.386e-02  linmin:  4.571e-03  cgtest:  3.081e-01  t[s]:    174.81
	FillingsUpdate:  mu: +0.912131638  nElectrons: 582.000000
LCAOMinimize: Iter:   4  F: -3435.9535906364703806  |grad|_K:  5.957e-04  alpha:  6.775e-02  linmin:  2.025e-03  cgtest:  6.131e-02  t[s]:    208.54
	FillingsUpdate:  mu: +0.914463276  nElectrons: 582.000000
LCAOMinimize: Iter:   5  F: -3436.0348464837065876  |grad|_K:  5.253e-04  alpha:  1.144e-01  linmin:  1.897e-03  cgtest:  1.882e-02  t[s]:    243.75
	FillingsUpdate:  mu: +0.916664281  nElectrons: 582.000000
LCAOMinimize: Iter:   6  F: -3436.0733502708562810  |grad|_K:  2.139e-04  alpha:  6.977e-02  linmin:  4.562e-05  cgtest: -2.050e-02  t[s]:    278.32
	FillingsUpdate:  mu: +0.916927196  nElectrons: 582.000000
LCAOMinimize: Iter:   7  F: -3436.0803083646037521  |grad|_K:  6.067e-05  alpha:  7.555e-02  linmin: -5.575e-04  cgtest: -1.596e-02  t[s]:    312.26
	FillingsUpdate:  mu: +0.917035756  nElectrons: 582.000000
LCAOMinimize: Iter:   8  F: -3436.0808219017981173  |grad|_K:  4.671e-05  alpha:  6.926e-02  linmin:  3.535e-05  cgtest: -7.401e-04  t[s]:    347.83
	FillingsUpdate:  mu: +0.917103296  nElectrons: 582.000000
LCAOMinimize: Iter:   9  F: -3436.0815181496027435  |grad|_K:  4.605e-05  alpha:  1.585e-01  linmin:  1.218e-04  cgtest:  5.107e-04  t[s]:    382.61
	FillingsUpdate:  mu: +0.917018513  nElectrons: 582.000000
LCAOMinimize: Iter:  10  F: -3436.0818904103148270  |grad|_K:  2.257e-05  alpha:  8.721e-02  linmin: -2.399e-05  cgtest:  2.746e-03  t[s]:    416.91
	FillingsUpdate:  mu: +0.917025686  nElectrons: 582.000000
LCAOMinimize: Iter:  11  F: -3436.0819744028290188  |grad|_K:  1.250e-05  alpha:  8.186e-02  linmin:  3.138e-05  cgtest: -3.695e-04  t[s]:    450.44
	FillingsUpdate:  mu: +0.917032062  nElectrons: 582.000000
LCAOMinimize: Iter:  12  F: -3436.0819959054474566  |grad|_K:  8.339e-06  alpha:  6.838e-02  linmin:  1.517e-06  cgtest: -1.848e-05  t[s]:    484.01
	FillingsUpdate:  mu: +0.917027998  nElectrons: 582.000000
LCAOMinimize: Iter:  13  F: -3436.0820147654631000  |grad|_K:  4.714e-06  alpha:  1.347e-01  linmin:  1.638e-04  cgtest: -3.663e-04  t[s]:    518.78
	FillingsUpdate:  mu: +0.917036303  nElectrons: 582.000000
LCAOMinimize: Iter:  14  F: -3436.0820184042950132  |grad|_K:  3.193e-06  alpha:  8.136e-02  linmin: -5.497e-06  cgtest:  1.065e-03  t[s]:    554.13
	FillingsUpdate:  mu: +0.917041140  nElectrons: 582.000000
LCAOMinimize: Iter:  15  F: -3436.0820203105345172  |grad|_K:  2.711e-06  alpha:  9.284e-02  linmin: -4.532e-05  cgtest: -4.298e-05  t[s]:    589.06
	FillingsUpdate:  mu: +0.917040036  nElectrons: 582.000000
LCAOMinimize: Iter:  16  F: -3436.0820224250851425  |grad|_K:  2.570e-06  alpha:  1.429e-01  linmin:  1.414e-05  cgtest: -4.104e-04  t[s]:    624.47
	FillingsUpdate:  mu: +0.917040694  nElectrons: 582.000000
LCAOMinimize: Iter:  17  F: -3436.0820237900275060  |grad|_K:  1.095e-06  alpha:  1.026e-01  linmin: -1.393e-05  cgtest:  6.800e-04  t[s]:    658.91
	FillingsUpdate:  mu: +0.917039958  nElectrons: 582.000000
LCAOMinimize: Iter:  18  F: -3436.0820239307818156  |grad|_K:  6.142e-07  alpha:  5.827e-02  linmin: -1.340e-04  cgtest:  5.485e-04  t[s]:    694.30
	FillingsUpdate:  mu: +0.917038643  nElectrons: 582.000000
LCAOMinimize: Iter:  19  F: -3436.0820240046205072  |grad|_K:  4.164e-07  alpha:  9.812e-02  linmin:  3.845e-03  cgtest: -1.714e-02  t[s]:    729.03
LCAOMinimize: Converged (|Delta F|<1.000000e-06 for 2 iters).


---- Citations for features of the code used in this run ----

   Software package:
      R. Sundararaman, K. Letchworth-Weaver, K.A. Schwarz, D. Gunceler, Y. Ozhabes and T.A. Arias, 'JDFTx: software for joint density-functional theory', SoftwareX 6, 278 (2017)

   gga-PBEsol exchange-correlation functional:
      J.P. Perdew et al., Phys. Rev. Lett. 100, 136406 (2008)

   Pseudopotentials:
      KF Garrity, JW Bennett, KM Rabe and D Vanderbilt, Comput. Mater. Sci. 81, 446 (2014)

This list may not be complete. Please suggest additional citations or
report any other bugs at https://github.com/shankar1729/jdftx/issues

Initialization completed successfully at t[s]:    746.77


-------- Electronic minimization -----------
Will mix electronic density at each iteration.
	FillingsUpdate:  mu: +0.917038643  nElectrons: 582.000000
	FillingsUpdate:  mu: +0.912658023  nElectrons: 582.000000
SCF: Cycle:  0   F: -3436.956521089332909   dF: -8.745e-01   |Residual|: 4.902e-01   |deigs|: 8.176e-02  t[s]:    908.58
	FillingsUpdate:  mu: +0.896440212  nElectrons: 582.000000
SCF: Cycle:  1   F: -3437.184034992929355   dF: -2.275e-01   |Residual|: 1.620e-01   |deigs|: 1.847e-02  t[s]:   1054.80
	FillingsUpdate:  mu: +0.895693772  nElectrons: 582.000000
SCF: Cycle:  2   F: -3437.043406905967458   dF: +1.406e-01   |Residual|: 1.666e-01   |deigs|: 5.076e-03  t[s]:   1194.45
	FillingsUpdate:  mu: +0.895234459  nElectrons: 582.000000
SCF: Cycle:  3   F: -3437.199947320664251   dF: -1.565e-01   |Residual|: 7.585e-02   |deigs|: 3.758e-03  t[s]:   1331.14
	FillingsUpdate:  mu: +0.895269298  nElectrons: 582.000000
SCF: Cycle:  4   F: -3437.216511171694492   dF: -1.656e-02   |Residual|: 5.689e-02   |deigs|: 7.457e-04  t[s]:   1456.15
	FillingsUpdate:  mu: +0.895257395  nElectrons: 582.000000
SCF: Cycle:  5   F: -3437.231923874548102   dF: -1.541e-02   |Residual|: 1.521e-02   |deigs|: 6.505e-04  t[s]:   1586.46
	FillingsUpdate:  mu: +0.895246783  nElectrons: 582.000000
SCF: Cycle:  6   F: -3437.231481376878037   dF: +4.425e-04   |Residual|: 1.407e-02   |deigs|: 1.414e-04  t[s]:   1667.96
	FillingsUpdate:  mu: +0.895227371  nElectrons: 582.000000
SCF: Cycle:  7   F: -3437.232600648922926   dF: -1.119e-03   |Residual|: 2.999e-03   |deigs|: 1.019e-04  t[s]:   1749.97
	FillingsUpdate:  mu: +0.895218477  nElectrons: 582.000000
SCF: Cycle:  8   F: -3437.232580085040354   dF: +2.056e-05   |Residual|: 3.220e-03   |deigs|: 4.148e-05  t[s]:   1833.43
	FillingsUpdate:  mu: +0.895214402  nElectrons: 582.000000
SCF: Cycle:  9   F: -3437.232637780004552   dF: -5.769e-05   |Residual|: 5.795e-04   |deigs|: 2.703e-05  t[s]:   1911.72
	FillingsUpdate:  mu: +0.895216003  nElectrons: 582.000000
SCF: Cycle: 10   F: -3437.232637405737023   dF: +3.743e-07   |Residual|: 5.835e-04   |deigs|: 7.438e-06  t[s]:   1995.75
	FillingsUpdate:  mu: +0.895216480  nElectrons: 582.000000
SCF: Cycle: 11   F: -3437.232638917472286   dF: -1.512e-06   |Residual|: 1.413e-04   |deigs|: 4.884e-06  t[s]:   2073.79
	FillingsUpdate:  mu: +0.895216626  nElectrons: 582.000000
SCF: Cycle: 12   F: -3437.232638713969209   dF: +2.035e-07   |Residual|: 2.027e-04   |deigs|: 1.513e-06  t[s]:   2152.20
	FillingsUpdate:  mu: +0.895216609  nElectrons: 582.000000
SCF: Cycle: 13   F: -3437.232638971159304   dF: -2.572e-07   |Residual|: 3.242e-05   |deigs|: 1.371e-06  t[s]:   2230.76
	FillingsUpdate:  mu: +0.895216618  nElectrons: 582.000000
SCF: Cycle: 14   F: -3437.232638962980218   dF: +8.179e-09   |Residual|: 4.380e-05   |deigs|: 7.493e-07  t[s]:   2311.96
	FillingsUpdate:  mu: +0.895216578  nElectrons: 582.000000
SCF: Cycle: 15   F: -3437.232638973539906   dF: -1.056e-08   |Residual|: 2.026e-05   |deigs|: 4.644e-07  t[s]:   2390.21
	FillingsUpdate:  mu: +0.895216596  nElectrons: 582.000000
SCF: Cycle: 16   F: -3437.232638975658574   dF: -2.119e-09   |Residual|: 1.009e-05   |deigs|: 3.279e-07  t[s]:   2469.04
	FillingsUpdate:  mu: +0.895216577  nElectrons: 582.000000
SCF: Cycle: 17   F: -3437.232638975985083   dF: -3.265e-10   |Residual|: 5.953e-06   |deigs|: 1.889e-07  t[s]:   2536.07
SCF: Converged (|Delta E|<1.000000e-08 for 2 iters).

Setting wave functions to eigenvectors of Hamiltonian

# Ionic positions in lattice coordinates:
ion Ru   0.124450000000000   0.224420000000000   0.140270000000000 1
ion Ru   0.222890000000000   0.094510000000000   0.383880000000000 1
ion Ru   0.112990000000000   0.215870000000000   0.608960000000000 1
ion Ru   0.217290000000000   0.110690000000000   0.874030000000000 1
ion Ru   0.104580000000000   0.544410000000000   0.125070000000000 1
ion Ru   0.230370000000000   0.428120000000000   0.365350000000000 1
ion Ru   0.121540000000000   0.564850000000000   0.625620000000000 1
ion Ru   0.224930000000000   0.449230000000000   0.862470000000000 1
ion Ru   0.103520000000000   0.897200000000000   0.122730000000000 1
ion Ru   0.203990000000000   0.783400000000000   0.367580000000000 1
ion Ru   0.118490000000000   0.887300000000000   0.648160000000000 1
ion Ru   0.226440000000000   0.776480000000000   0.867460000000000 1
ion Ru   0.439890000000000   0.242490000000000   0.137180000000000 1
ion Ru   0.548170000000000   0.114060000000000   0.379230000000000 1
ion Ru   0.435550000000000   0.229600000000000   0.619090000000000 1
ion Ru   0.559520000000000   0.110250000000000   0.890120000000000 1
ion Ru   0.456430000000000   0.544910000000000   0.132260000000000 1
ion Ru   0.572840000000000   0.447160000000000   0.356910000000000 1
ion Ru   0.452970000000000   0.549920000000000   0.619900000000000 1
ion Ru   0.558530000000000   0.436410000000000   0.882850000000000 1
ion Ru   0.443330000000000   0.887300000000000   0.117110000000000 1
ion Ru   0.547970000000000   0.770780000000000   0.363990000000000 1
ion Ru   0.450890000000000   0.881860000000000   0.622790000000000 1
ion Ru   0.546720000000000   0.789070000000000   0.862510000000000 1
ion Ru   0.779720000000000   0.226100000000000   0.114440000000000 1
ion Ru   0.887030000000000   0.112120000000000   0.382880000000000 1
ion Ru   0.787320000000000   0.218450000000000   0.615290000000000 1
ion Ru   0.889360000000000   0.123060000000000   0.890840000000000 1
ion Ru   0.778310000000000   0.557730000000000   0.116690000000000 1
ion Ru   0.875750000000000   0.442000000000000   0.388940000000000 1
ion Ru   0.767820000000000   0.560330000000000   0.641690000000000 1
ion Ru   0.895320000000000   0.449310000000000   0.881160000000000 1
ion Ru   0.771490000000000   0.897380000000000   0.135170000000000 1
ion Ru   0.901830000000000   0.772400000000000   0.383810000000000 1
ion Ru   0.775450000000000   0.890700000000000   0.628330000000000 1
ion Ru   0.902450000000000   0.789110000000000   0.866630000000000 1
ion O   0.330000000000000   0.380000000000000   0.550000000000000 1

# Forces in Lattice coordinates:
force Ru  -0.641670047841223   0.073294429568131  -0.717151318652748 1
force Ru  -0.340443989923717   0.021758814300138  -0.654371588139349 1
force Ru  -2.657323997650879  -0.736574715207367   1.744036967083916 1
force Ru   0.131755330817373   0.201541995655032   0.287497755412414 1
force Ru   0.137429218658498   0.261044286370862   0.103503388371116 1
force Ru  -0.973057000060978   1.121262093175219  -0.618016650976783 1
force Ru  -0.397683943957072  -0.013192903638739  -0.207095188580928 1
force Ru   0.076280008968660  -0.218920871506236   0.558679620370933 1
force Ru   0.304857516084529  -0.327657694544097   0.006052248869410 1
force Ru   1.069441280170596  -0.883073443405648   0.084059198156960 1
force Ru  -0.122466726887614   0.049289297198418  -1.089974831173034 1
force Ru   0.006831802745518   0.024626912310647   0.605360827865425 1
force Ru   0.773252376489164  -1.468315842148476  -0.737292072795135 1
force Ru   0.480354394103732  -0.471835655138180  -0.189527315915831 1
force Ru   1.628076463490948  -1.704759325866608   0.663209178993625 1
force Ru  -0.394325484108398   0.380054440473406  -0.579534343242656 1
force Ru  -0.829406760222830   1.207331666335536  -0.695657134476916 1
force Ru   0.135411304517762   0.252866590927076   0.672008098770025 1
force Ru   2.839346947702194   9.359383484932872   6.349285125624454 1
force Ru  -0.297642558814395   0.349211136499017  -0.187571629795571 1
force Ru  -0.224092549719861   0.015420524235424   0.484082445041354 1
force Ru  -0.024169346281138   0.267546539998242   0.256330565699546 1
force Ru  -0.411465308252705   0.484972309179190  -0.297822816093005 1
force Ru   0.693656107679583  -0.637291052967273   0.695843601927766 1
force Ru  -0.110707803471666   0.101479971402950   0.886812654484116 1
force Ru  -0.108404116809700  -0.166450633401142  -0.551104572404369 1
force Ru  -0.422102379778685   0.337236293028542   0.595361871429247 1
force Ru   0.425294230157268  -0.442081094560463  -0.594431575632191 1
force Ru   0.305153297721527   0.035474847326879   0.199184909675451 1
force Ru   0.513069324810744  -0.175698130799640  -0.338983010247551 1
force Ru   0.772298423309276  -0.489506274019783  -0.432248234774155 1
force Ru  -0.051475783029164  -0.053021464738220  -0.388864510673157 1
force Ru   0.378370060633602  -0.319301477741880  -0.253889963101036 1
force Ru  -0.800960055175982   0.529728654894678  -0.123555814555578 1
force Ru   0.230531225982262   0.001180206617776  -0.117387054862469 1
force Ru  -0.624850260299136   0.135933863997959   0.720714884197517 1
force O  -1.469021877686247  -7.103181332549146  -6.136265075792434 1

# Energy components:
   Eewald =    -2964.5024112713554132
       EH =      522.7158241431934584
     Eloc =    -2290.6726309945393041
      Enl =      647.1991685417566487
      Exc =     -468.8720789454512214
 Exc_core =       74.7495230557314017
       KE =     1042.4503555709607099
-------------------------------------
     Etot =    -3436.9322498997044022
       TS =        0.3003890762807711
-------------------------------------
        F =    -3437.2326389759850827

IonicMinimize: Iter:   0  F: -3437.232638975985083  |grad|_K:  1.175e-01  t[s]:   2553.35

#--- Lowdin population analysis ---
# oxidation-state Ru +0.017 -0.002 -0.004 +0.007 +0.021 -0.000 -0.001 -0.002 +0.021 +0.021 +0.028 +0.015 +0.029 +0.009 -0.019 +0.031 +0.018 +0.006 +0.043 +0.009 +0.026 +0.008 +0.007 +0.014 +0.034 +0.024 +0.023 +0.026 +0.024 +0.018 +0.004 +0.014 +0.021 +0.023 -0.019 +0.021
# oxidation-state O +0.352


-------- Electronic minimization -----------
Will mix electronic density at each iteration.
	FillingsUpdate:  mu: +0.895216577  nElectrons: 582.000000
	FillingsUpdate:  mu: +0.895608928  nElectrons: 582.000000
SCF: Cycle:  0   F: -3430.897880371517203   dF: +6.002e+00   |Residual|: 8.941e-01   |deigs|: 2.102e-03  t[s]:   2733.56
	FillingsUpdate:  mu: +0.897270667  nElectrons: 582.000000
SCF: Cycle:  1   F: -3415.828990945628448   dF: +1.507e+01   |Residual|: 1.716e+00   |deigs|: 3.627e-02  t[s]:   2884.20
	FillingsUpdate:  mu: +0.895975597  nElectrons: 582.000000
SCF: Cycle:  2   F: -3436.866117282830601   dF: -2.104e+01   |Residual|: 3.083e-01   |deigs|: 3.127e-02  t[s]:   3021.80
	FillingsUpdate:  mu: +0.895665216  nElectrons: 582.000000
SCF: Cycle:  3   F: -3436.768460640784724   dF: +9.766e-02   |Residual|: 3.383e-01   |deigs|: 2.702e-03  t[s]:   3157.23
	FillingsUpdate:  mu: +0.895033068  nElectrons: 582.000000
SCF: Cycle:  4   F: -3437.332932978296867   dF: -5.645e-01   |Residual|: 8.872e-02   |deigs|: 2.523e-03  t[s]:   3311.14
	FillingsUpdate:  mu: +0.894989591  nElectrons: 582.000000
SCF: Cycle:  5   F: -3437.348664254322102   dF: -1.573e-02   |Residual|: 5.627e-02   |deigs|: 9.160e-04  t[s]:   3441.86
	FillingsUpdate:  mu: +0.894998641  nElectrons: 582.000000
SCF: Cycle:  6   F: -3437.364524803952463   dF: -1.586e-02   |Residual|: 2.695e-02   |deigs|: 2.408e-04  t[s]:   3524.91
	FillingsUpdate:  mu: +0.895033359  nElectrons: 582.000000
SCF: Cycle:  7   F: -3437.367460795090665   dF: -2.936e-03   |Residual|: 1.208e-02   |deigs|: 1.502e-04  t[s]:   3601.96
	FillingsUpdate:  mu: +0.895026432  nElectrons: 582.000000
SCF: Cycle:  8   F: -3437.368043475104514   dF: -5.827e-04   |Residual|: 5.520e-03   |deigs|: 8.137e-05  t[s]:   3687.68
	FillingsUpdate:  mu: +0.895013787  nElectrons: 582.000000
SCF: Cycle:  9   F: -3437.368151608500739   dF: -1.081e-04   |Residual|: 1.963e-03   |deigs|: 3.244e-05  t[s]:   3769.44
	FillingsUpdate:  mu: +0.895013341  nElectrons: 582.000000
SCF: Cycle: 10   F: -3437.368166707527052   dF: -1.510e-05   |Residual|: 8.146e-04   |deigs|: 2.442e-05  t[s]:   3855.67
	FillingsUpdate:  mu: +0.895014786  nElectrons: 582.000000
SCF: Cycle: 11   F: -3437.368166543661573   dF: +1.639e-07   |Residual|: 6.699e-04   |deigs|: 5.739e-06  t[s]:   3934.36
	FillingsUpdate:  mu: +0.895015155  nElectrons: 582.000000
SCF: Cycle: 12   F: -3437.368168578343557   dF: -2.035e-06   |Residual|: 3.847e-04   |deigs|: 9.267e-06  t[s]:   4013.22
	FillingsUpdate:  mu: +0.895014816  nElectrons: 582.000000
SCF: Cycle: 13   F: -3437.368169261671028   dF: -6.833e-07   |Residual|: 1.375e-04   |deigs|: 4.104e-06  t[s]:   4092.34
	FillingsUpdate:  mu: +0.895014837  nElectrons: 582.000000
SCF: Cycle: 14   F: -3437.368169327675787   dF: -6.600e-08   |Residual|: 6.753e-05   |deigs|: 1.175e-06  t[s]:   4183.95
	FillingsUpdate:  mu: +0.895014890  nElectrons: 582.000000
SCF: Cycle: 15   F: -3437.368169339538326   dF: -1.186e-08   |Residual|: 4.588e-05   |deigs|: 4.604e-07  t[s]:   4262.41
	FillingsUpdate:  mu: +0.895014868  nElectrons: 582.000000
SCF: Cycle: 16   F: -3437.368169344131729   dF: -4.593e-09   |Residual|: 3.250e-05   |deigs|: 4.268e-07  t[s]:   4341.68
	FillingsUpdate:  mu: +0.895014872  nElectrons: 582.000000
SCF: Cycle: 17   F: -3437.368169346561444   dF: -2.430e-09   |Residual|: 2.307e-05   |deigs|: 2.617e-07  t[s]:   4419.70
SCF: Converged (|Delta E|<1.000000e-08 for 2 iters).

Setting wave functions to eigenvectors of Hamiltonian

# Ionic positions in lattice coordinates:
ion Ru   0.124075851510759   0.224266922699227   0.139970653938612 1
ion Ru   0.222686195762130   0.094418192478995   0.383606857557060 1
ion Ru   0.111118951950796   0.214592853722835   0.609687928796941 1
ion Ru   0.217433794550852   0.110855375731348   0.874149984203270 1
ion Ru   0.104745701502039   0.544613926510499   0.125113186833304 1
ion Ru   0.230114954010101   0.428512523844284   0.365092031736598 1
ion Ru   0.121289991268404   0.564718879543394   0.625533546158925 1
ion Ru   0.224909480662858   0.449118207112604   0.862703172744561 1
ion Ru   0.103607212118735   0.897091640439964   0.122732511722787 1
ion Ru   0.204378297713645   0.783184580081573   0.367615071026860 1
ion Ru   0.118429506057091   0.887292616325991   0.647705041211530 1
ion Ru   0.226451839027627   0.776497344336365   0.867712657003890 1
ion Ru   0.439914175699628   0.241821082266172   0.136872247393498 1
ion Ru   0.548321159891233   0.113916744242845   0.379150878809583 1
ion Ru   0.436029692916429   0.229049177810776   0.619366802314939 1
ion Ru   0.559393660842459   0.110363103381893   0.889878093858888 1
ion Ru   0.456290400617544   0.545400166417815   0.131969625391601 1
ion Ru   0.573001925061392   0.447358245455655   0.357190474894205 1
ion Ru   0.457619796609675   0.556585805331526   0.622550112352361 1
ion Ru   0.558453913070619   0.436533924296704   0.882771695093000 1
ion Ru   0.443196188050429   0.887240248907145   0.117312036645319 1
ion Ru   0.548037778946932   0.770937980996422   0.364096975336544 1
ion Ru   0.450785502289745   0.882032685262351   0.622665677373656 1
ion Ru   0.546951907276468   0.788890379325547   0.862800423589829 1
ion Ru   0.779682915250239   0.226128527080926   0.114810132122308 1
ion Ru   0.886911495296608   0.111983550253658   0.382649960154929 1
ion Ru   0.787163244084652   0.218528035845064   0.615538483541577 1
ion Ru   0.889486310668767   0.122918119868386   0.890591875906210 1
ion Ru   0.778509676179124   0.557846294204930   0.116773123323255 1
ion Ru   0.876012957091751   0.442049992129174   0.388798497528919 1
ion Ru   0.768146235216463   0.560266086225403   0.641509569576568 1
ion Ru   0.895271772433502   0.449261297538752   0.880997677500000 1
ion Ru   0.771625256263327   0.897299538144167   0.135064014497880 1
ion Ru   0.901498476242074   0.772479930344660   0.383758414640591 1
ion Ru   0.775592925698308   0.890772013030065   0.628280989417895 1
ion Ru   0.902105621131191   0.789000859827507   0.866930804609078 1
ion O   0.326895237036400   0.375153148985379   0.547438771193030 1

# Forces in Lattice coordinates:
force Ru  -0.629619837361735   0.076266649403759  -0.707534483046277 1
force Ru  -0.336103223356775   0.004561285918434  -0.643374573254702 1
force Ru  -2.622016690417417  -0.647894662161016   1.807179785271999 1
force Ru   0.132175708303277   0.189534727073725   0.283874984049652 1
force Ru   0.126571019344395   0.264813305685580   0.084060914152475 1
force Ru  -0.897306419650511   1.079452195387734  -0.514285800607994 1
force Ru  -0.363365020050092  -0.022565462404432  -0.197650439769388 1
force Ru   0.087780304796051  -0.224119314649267   0.514142066739714 1
force Ru   0.303620758983833  -0.327082693883685   0.012930068271502 1
force Ru   1.035712801920256  -0.856678145516053   0.088996788866052 1
force Ru  -0.119898289523197   0.034192136607686  -1.049314648508533 1
force Ru  -0.002004779164702   0.027449473669384   0.582057989247484 1
force Ru   0.748105576883342  -1.405374561656660  -0.715624269283503 1
force Ru   0.469965636165163  -0.462925557678634  -0.187822568183874 1
force Ru   1.465504098379085  -1.451500140821496   0.629557275252058 1
force Ru  -0.379769518513050   0.361683217109665  -0.567730199230302 1
force Ru  -0.801011687108687   1.157707723945266  -0.673071859435930 1
force Ru   0.083701269926061   0.283086859524686   0.691970181307553 1
force Ru   1.705938267519727   6.117007006966905   4.111363029083069 1
force Ru  -0.291977989104884   0.344015756198186  -0.185259021037565 1
force Ru  -0.223120304307843   0.021722098341197   0.475842273679762 1
force Ru  -0.019763759998046   0.265770753930643   0.251637046695651 1
force Ru  -0.398891913305928   0.465311076194150  -0.286305365036073 1
force Ru   0.687548797025121  -0.616203474790975   0.686931715335985 1
force Ru  -0.107093011375362   0.096554944640892   0.859730928449757 1
force Ru  -0.117127660945479  -0.160227904601107  -0.544330435790236 1
force Ru  -0.418550534059268   0.334667497985422   0.582894638675226 1
force Ru   0.408685869909392  -0.430245129808503  -0.576198001531506 1
force Ru   0.293107576713059   0.032309461483090   0.202831103476889 1
force Ru   0.506174758637417  -0.172532564888713  -0.340410343635545 1
force Ru   0.771764995872016  -0.484935316585185  -0.424791063308405 1
force Ru  -0.050043607805543  -0.053619476791851  -0.373620048940522 1
force Ru   0.370273948686247  -0.314972307429354  -0.259006744686793 1
force Ru  -0.769711524621694   0.511692524998125  -0.131688825573869 1
force Ru   0.198771848089625  -0.007809020502276  -0.116586706748930 1
force Ru  -0.600836393557306   0.125503096800152   0.698317586003256 1
force O  -0.246874496872273  -4.154551468572508  -4.067849885365825 1

# Energy components:
   Eewald =    -2967.2632506960894716
       EH =      520.3515267795490900
     Eloc =    -2285.2427374627777681
      Enl =      647.0454061868533699
      Exc =     -468.7758820149560393
 Exc_core =       74.7495229342525818
       KE =     1042.0670672583066789
-------------------------------------
     Etot =    -3437.0683470148605920
       TS =        0.2998223317008287
-------------------------------------
        F =    -3437.3681693465614444

IonicMinimize: Iter:   1  F: -3437.368169346561444  |grad|_K:  7.853e-02  alpha:  1.082e-01  linmin: -9.828e-01  t[s]:   4436.69

#--- Lowdin population analysis ---
# oxidation-state Ru +0.017 +0.001 +0.013 +0.007 +0.019 +0.012 +0.002 +0.001 +0.022 +0.021 +0.027 +0.015 +0.028 +0.009 -0.006 +0.030 +0.018 +0.014 +0.041 +0.011 +0.026 +0.009 +0.010 +0.018 +0.033 +0.023 +0.022 +0.025 +0.024 +0.018 +0.007 +0.014 +0.021 +0.024 -0.017 +0.022
# oxidation-state O +0.268


-------- Electronic minimization -----------
Will mix electronic density at each iteration.
	FillingsUpdate:  mu: +0.895014872  nElectrons: 582.000000
	FillingsUpdate:  mu: +0.895986306  nElectrons: 582.000000
SCF: Cycle:  0   F: -3424.150820433791068   dF: +1.266e+01   |Residual|: 1.198e+00   |deigs|: 2.839e-03  t[s]:   4617.14
	FillingsUpdate:  mu: +0.901054067  nElectrons: 582.000000
SCF: Cycle:  1   F: -3399.700047368958167   dF: +2.445e+01   |Residual|: 2.304e+00   |deigs|: 5.076e-02  t[s]:   4752.88
	FillingsUpdate:  mu: +0.896709812  nElectrons: 582.000000
SCF: Cycle:  2   F: -3436.298873600342176   dF: -3.660e+01   |Residual|: 4.980e-01   |deigs|: 4.539e-02  t[s]:   4910.50
	FillingsUpdate:  mu: +0.896119387  nElectrons: 582.000000
SCF: Cycle:  3   F: -3436.609168112282077   dF: -3.103e-01   |Residual|: 4.215e-01   |deigs|: 3.129e-03  t[s]:   5070.24
	FillingsUpdate:  mu: +0.894821871  nElectrons: 582.000000
SCF: Cycle:  4   F: -3437.430940054801795   dF: -8.218e-01   |Residual|: 9.458e-02   |deigs|: 3.501e-03  t[s]:   5227.97
	FillingsUpdate:  mu: +0.894710322  nElectrons: 582.000000
SCF: Cycle:  5   F: -3437.411369673952322   dF: +1.957e-02   |Residual|: 9.373e-02   |deigs|: 1.091e-03  t[s]:   5362.57
	FillingsUpdate:  mu: +0.894757041  nElectrons: 582.000000
SCF: Cycle:  6   F: -3437.466389147384234   dF: -5.502e-02   |Residual|: 3.466e-02   |deigs|: 5.115e-04  t[s]:   5472.33
	FillingsUpdate:  mu: +0.894826326  nElectrons: 582.000000
SCF: Cycle:  7   F: -3437.470429010195403   dF: -4.040e-03   |Residual|: 2.042e-02   |deigs|: 3.079e-04  t[s]:   5551.31
	FillingsUpdate:  mu: +0.894809001  nElectrons: 582.000000
SCF: Cycle:  8   F: -3437.471923301163315   dF: -1.494e-03   |Residual|: 1.013e-02   |deigs|: 1.570e-04  t[s]:   5627.89
	FillingsUpdate:  mu: +0.894782048  nElectrons: 582.000000
SCF: Cycle:  9   F: -3437.472396887066225   dF: -4.736e-04   |Residual|: 2.756e-03   |deigs|: 6.928e-05  t[s]:   5705.57
	FillingsUpdate:  mu: +0.894780861  nElectrons: 582.000000
SCF: Cycle: 10   F: -3437.472422746716347   dF: -2.586e-05   |Residual|: 1.409e-03   |deigs|: 3.381e-05  t[s]:   5784.11
	FillingsUpdate:  mu: +0.894782456  nElectrons: 582.000000
SCF: Cycle: 11   F: -3437.472430020907268   dF: -7.274e-06   |Residual|: 7.294e-04   |deigs|: 9.442e-06  t[s]:   5862.88
	FillingsUpdate:  mu: +0.894782318  nElectrons: 582.000000
SCF: Cycle: 12   F: -3437.472430689279463   dF: -6.684e-07   |Residual|: 6.041e-04   |deigs|: 8.423e-06  t[s]:   5941.67
	FillingsUpdate:  mu: +0.894782264  nElectrons: 582.000000
SCF: Cycle: 13   F: -3437.472432501247113   dF: -1.812e-06   |Residual|: 1.585e-04   |deigs|: 4.215e-06  t[s]:   6029.26
	FillingsUpdate:  mu: +0.894782315  nElectrons: 582.000000
SCF: Cycle: 14   F: -3437.472432503436721   dF: -2.190e-09   |Residual|: 1.447e-04   |deigs|: 1.770e-06  t[s]:   6108.43
	FillingsUpdate:  mu: +0.894782398  nElectrons: 582.000000
SCF: Cycle: 15   F: -3437.472432599516651   dF: -9.608e-08   |Residual|: 7.299e-05   |deigs|: 9.328e-07  t[s]:   6186.71
	FillingsUpdate:  mu: +0.894782356  nElectrons: 582.000000
SCF: Cycle: 16   F: -3437.472432615648358   dF: -1.613e-08   |Residual|: 3.515e-05   |deigs|: 4.482e-07  t[s]:   6264.77
	FillingsUpdate:  mu: +0.894782346  nElectrons: 582.000000
SCF: Cycle: 17   F: -3437.472432616063543   dF: -4.152e-10   |Residual|: 3.365e-05   |deigs|: 3.647e-07  t[s]:   6354.56
	FillingsUpdate:  mu: +0.894782344  nElectrons: 582.000000
SCF: Cycle: 18   F: -3437.472432621585995   dF: -5.522e-09   |Residual|: 1.261e-05   |deigs|: 2.145e-07  t[s]:   6433.09
SCF: Converged (|Delta E|<1.000000e-08 for 2 iters).

Setting wave functions to eigenvectors of Hamiltonian

# Ionic positions in lattice coordinates:
ion Ru   0.123268230109148   0.223943934254603   0.139315141902463 1
ion Ru   0.222221205872969   0.094180474087634   0.383011955476809 1
ion Ru   0.107106014504287   0.211965636173638   0.611407695995460 1
ion Ru   0.217743336987919   0.111199793517916   0.874413032190117 1
ion Ru   0.105096933615083   0.545066399688606   0.125181478474667 1
ion Ru   0.229662693515871   0.429381885467322   0.364665906838166 1
ion Ru   0.120794679127962   0.564442388831545   0.625353906745298 1
ion Ru   0.224882747374715   0.448869354506533   0.863159868575312 1
ion Ru   0.103800193952383   0.896849184292879   0.122748106883461 1
ion Ru   0.205202457215177   0.782723315321504   0.367700662233765 1
ion Ru   0.118283466761979   0.887246323464309   0.646746648059297 1
ion Ru   0.226462301127269   0.776532674407678   0.868243805034168 1
ion Ru   0.439981848406350   0.240433568424610   0.136215457410413 1
ion Ru   0.548646419552065   0.113604342842542   0.378976384050921 1
ion Ru   0.437025050733720   0.228187756957298   0.619936901933008 1
ion Ru   0.559122660442561   0.110592132967081   0.889354223828955 1
ion Ru   0.455985894047330   0.546420056911627   0.131353034497625 1
ion Ru   0.573285195237575   0.447810993823164   0.357846746193218 1
ion Ru   0.462084491944047   0.563287488787382   0.625222852843639 1
ion Ru   0.558290336819859   0.436805961977083   0.882599909780072 1
ion Ru   0.442905787973529   0.887121219599484   0.117751876839409 1
ion Ru   0.548196922766840   0.771292195605254   0.364329372705805 1
ion Ru   0.450557688521063   0.882390052082175   0.622404360148501 1
ion Ru   0.547480095300723   0.788527495808084   0.863436960066614 1
ion Ru   0.779602440739977   0.226185588117820   0.115598512661840 1
ion Ru   0.886634356204566   0.111682374379202   0.382145314554947 1
ion Ru   0.786817533421329   0.218700829075957   0.616076053490195 1
ion Ru   0.889745748822978   0.122608398731303   0.890063448534389 1
ion Ru   0.778926863130138   0.558086563904345   0.116964303324704 1
ion Ru   0.876589585460800   0.442161168185977   0.388479935898122 1
ion Ru   0.768879599826017   0.560132397097393   0.641116866153333 1
ion Ru   0.895166336400010   0.449152609346548   0.880656794760167 1
ion Ru   0.771914952954364   0.897120172888483   0.134819520107300 1
ion Ru   0.900804913032140   0.772653472675719   0.383631197670675 1
ion Ru   0.775834449951132   0.890879468672151   0.628172520480595 1
ion Ru   0.901375914465449   0.788760146918545   0.867570949073647 1
ion O   0.325760653680676   0.371982180206604   0.544718294582924 1

# Forces in Lattice coordinates:
force Ru  -0.596255193901269   0.079780671909084  -0.674782247741941 1
force Ru  -0.334874830771457   0.021337239094755  -0.587601978235268 1
force Ru  -2.180129224292681  -0.438368014536047   1.635931186412874 1
force Ru   0.133954356328821   0.165559609664006   0.267000308685181 1
force Ru   0.110854652582943   0.262885067378178   0.058062006040559 1
force Ru  -0.831602234242135   1.006363378823070  -0.420579223968774 1
force Ru  -0.325285373588095  -0.032115570549561  -0.176907305598202 1
force Ru   0.096113306820881  -0.220876631768669   0.462129912895346 1
force Ru   0.301271572648048  -0.323417811454760   0.021364917161846 1
force Ru   0.970368292603240  -0.804308220041491   0.094401279532843 1
force Ru  -0.115349524902382   0.017068944255150  -0.967771838713967 1
force Ru  -0.014993568249369   0.034632650916404   0.538551633323540 1
force Ru   0.695894624539217  -1.279542793241093  -0.662115501845047 1
force Ru   0.446871007049935  -0.438650475720419  -0.185752444006271 1
force Ru   1.281041788050543  -1.227197412511225   0.584284903822484 1
force Ru  -0.348835666649352   0.328893715046476  -0.536930644612665 1
force Ru  -0.740705407706859   1.053287189853527  -0.625952321534826 1
force Ru   0.028381167871966   0.289259956798483   0.647257406164854 1
force Ru   0.972165447112977   4.094008266969876   2.750628102568111 1
force Ru  -0.276131583951577   0.332687827657155  -0.173887065318262 1
force Ru  -0.211227075240102   0.031446840890196   0.453201377453498 1
force Ru  -0.010005244433107   0.253540023652671   0.236206584420116 1
force Ru  -0.381944951341500   0.446159674128037  -0.252514997602230 1
force Ru   0.657145361548119  -0.563621076925248   0.678002412092405 1
force Ru  -0.099980968737325   0.085446504146365   0.798623897896164 1
force Ru  -0.124774207682817  -0.144368606034809  -0.524522937011049 1
force Ru  -0.417815640555546   0.328866450118284   0.548867705402154 1
force Ru   0.371793773285108  -0.404516349521415  -0.539381667256256 1
force Ru   0.267187722989686   0.027620031178067   0.203518542740225 1
force Ru   0.489087607481367  -0.168112890444361  -0.339421947401670 1
force Ru   0.752412591734616  -0.470637935303146  -0.410357094661642 1
force Ru  -0.047337045135589  -0.055908050002901  -0.343275792136915 1
force Ru   0.351005328398099  -0.304157326628305  -0.264373837657489 1
force Ru  -0.710678729657202   0.477382163337267  -0.142422185352474 1
force Ru   0.167668348598119  -0.006644837727422  -0.115569471270119 1
force Ru  -0.553972875759416   0.108824283543033   0.652062943918129 1
force O   0.228847621168226  -2.562637229846342  -2.684687640867613 1

# Energy components:
   Eewald =    -2970.7782491870702870
       EH =      517.1791988489833329
     Eloc =    -2278.2346744495062012
      Enl =      646.9168962883811673
      Exc =     -468.6742711634636294
 Exc_core =       74.7495237206277068
       KE =     1041.6682894024897905
-------------------------------------
     Etot =    -3437.1732865395579211
       TS =        0.2991460820280363
-------------------------------------
        F =    -3437.4724326215859946

IonicMinimize: Iter:   2  F: -3437.472432621585995  |grad|_K:  5.551e-02  alpha:  4.630e-01  linmin: -9.979e-01  t[s]:   6453.19

#--- Lowdin population analysis ---
# oxidation-state Ru +0.017 +0.004 +0.024 +0.007 +0.018 +0.020 +0.004 +0.003 +0.022 +0.021 +0.026 +0.016 +0.026 +0.009 +0.004 +0.029 +0.018 +0.020 +0.043 +0.012 +0.025 +0.010 +0.012 +0.020 +0.032 +0.023 +0.022 +0.024 +0.025 +0.019 +0.008 +0.015 +0.021 +0.024 -0.014 +0.022
# oxidation-state O +0.203


-------- Electronic minimization -----------
Will mix electronic density at each iteration.
	FillingsUpdate:  mu: +0.894782344  nElectrons: 582.000000
	FillingsUpdate:  mu: +0.896543291  nElectrons: 582.000000
SCF: Cycle:  0   F: -3414.354304924427197   dF: +2.217e+01   |Residual|: 1.541e+00   |deigs|: 4.531e-03  t[s]:   6636.41
	FillingsUpdate:  mu: +0.907224736  nElectrons: 582.000000
SCF: Cycle:  1   F: -3383.410305534594954   dF: +3.094e+01   |Residual|: 2.800e+00   |deigs|: 6.475e-02  t[s]:   6793.77
	FillingsUpdate:  mu: +0.897745406  nElectrons: 582.000000
SCF: Cycle:  2   F: -3434.504977019238140   dF: -5.109e+01   |Residual|: 7.807e-01   |deigs|: 5.885e-02  t[s]:   6951.87
	FillingsUpdate:  mu: +0.896634339  nElectrons: 582.000000
SCF: Cycle:  3   F: -3436.667241094447945   dF: -2.162e+00   |Residual|: 4.450e-01   |deigs|: 6.856e-03  t[s]:   7088.11
	FillingsUpdate:  mu: +0.894502157  nElectrons: 582.000000
SCF: Cycle:  4   F: -3437.472377428412983   dF: -8.051e-01   |Residual|: 1.366e-01   |deigs|: 4.229e-03  t[s]:   7225.53
	FillingsUpdate:  mu: +0.894441418  nElectrons: 582.000000
SCF: Cycle:  5   F: -3437.430127004783117   dF: +4.225e-02   |Residual|: 1.415e-01   |deigs|: 1.293e-03  t[s]:   7362.17
	FillingsUpdate:  mu: +0.894518921  nElectrons: 582.000000
SCF: Cycle:  6   F: -3437.555917156902524   dF: -1.258e-01   |Residual|: 3.776e-02   |deigs|: 1.008e-03  t[s]:   7484.21
	FillingsUpdate:  mu: +0.894568368  nElectrons: 582.000000
SCF: Cycle:  7   F: -3437.555960030476399   dF: -4.287e-05   |Residual|: 3.466e-02   |deigs|: 4.430e-04  t[s]:   7564.12
	FillingsUpdate:  mu: +0.894545750  nElectrons: 582.000000
SCF: Cycle:  8   F: -3437.560707315170475   dF: -4.747e-03   |Residual|: 1.398e-02   |deigs|: 2.526e-04  t[s]:   7643.03
	FillingsUpdate:  mu: +0.894503852  nElectrons: 582.000000
SCF: Cycle:  9   F: -3437.561759767986587   dF: -1.052e-03   |Residual|: 4.553e-03   |deigs|: 1.195e-04  t[s]:   7720.67
	FillingsUpdate:  mu: +0.894501252  nElectrons: 582.000000
SCF: Cycle: 10   F: -3437.561823045561596   dF: -6.328e-05   |Residual|: 2.577e-03   |deigs|: 4.689e-05  t[s]:   7799.21
	FillingsUpdate:  mu: +0.894505964  nElectrons: 582.000000
SCF: Cycle: 11   F: -3437.561858969980221   dF: -3.592e-05   |Residual|: 9.608e-04   |deigs|: 1.860e-05  t[s]:   7877.06
	FillingsUpdate:  mu: +0.894506334  nElectrons: 582.000000
SCF: Cycle: 12   F: -3437.561857427321684   dF: +1.543e-06   |Residual|: 9.905e-04   |deigs|: 1.058e-05  t[s]:   7953.95
	FillingsUpdate:  mu: +0.894506332  nElectrons: 582.000000
SCF: Cycle: 13   F: -3437.561862583344919   dF: -5.156e-06   |Residual|: 2.025e-04   |deigs|: 6.583e-06  t[s]:   8033.25
	FillingsUpdate:  mu: +0.894506333  nElectrons: 582.000000
SCF: Cycle: 14   F: -3437.561862606885825   dF: -2.354e-08   |Residual|: 1.812e-04   |deigs|: 2.131e-06  t[s]:   8112.88
	FillingsUpdate:  mu: +0.894506436  nElectrons: 582.000000
SCF: Cycle: 15   F: -3437.561862697189554   dF: -9.030e-08   |Residual|: 1.206e-04   |deigs|: 1.337e-06  t[s]:   8192.61
	FillingsUpdate:  mu: +0.894506378  nElectrons: 582.000000
SCF: Cycle: 16   F: -3437.561862763315276   dF: -6.613e-08   |Residual|: 4.203e-05   |deigs|: 6.565e-07  t[s]:   8270.83
	FillingsUpdate:  mu: +0.894506352  nElectrons: 582.000000
SCF: Cycle: 17   F: -3437.561862750354976   dF: +1.296e-08   |Residual|: 6.112e-05   |deigs|: 7.080e-07  t[s]:   8348.44
	FillingsUpdate:  mu: +0.894506359  nElectrons: 582.000000
SCF: Cycle: 18   F: -3437.561862771174674   dF: -2.082e-08   |Residual|: 1.539e-05   |deigs|: 4.731e-07  t[s]:   8428.01
	FillingsUpdate:  mu: +0.894506369  nElectrons: 582.000000
SCF: Cycle: 19   F: -3437.561862772149198   dF: -9.745e-10   |Residual|: 1.006e-05   |deigs|: 3.487e-07  t[s]:   8506.00
	FillingsUpdate:  mu: +0.894506370  nElectrons: 582.000000
SCF: Cycle: 20   F: -3437.561862772680342   dF: -5.311e-10   |Residual|: 6.785e-06   |deigs|: 2.143e-07  t[s]:   8582.58
SCF: Converged (|Delta E|<1.000000e-08 for 2 iters).

Setting wave functions to eigenvectors of Hamiltonian

# Ionic positions in lattice coordinates:
ion Ru   0.121930579770630   0.223428446958854   0.138209896333486 1
ion Ru   0.221422820136447   0.093829981079209   0.382072409856341 1
ion Ru   0.101821568486000   0.208724874805155   0.614041066635812 1
ion Ru   0.218268426206566   0.111745809375006   0.874847180162556 1
ion Ru   0.105676314839758   0.545847012115881   0.125251667754227 1
ion Ru   0.228905927535949   0.430803264800383   0.364068338873678 1
ion Ru   0.119998443632084   0.563972254727131   0.625076212809050 1
ion Ru   0.224863300311409   0.448447878546853   0.863880347120140 1
ion Ru   0.104146860745252   0.896421616735713   0.122793066187521 1
ion Ru   0.206561381076090   0.781956377920444   0.367865366199165 1
ion Ru   0.118010074272689   0.887120633709704   0.645198304894845 1
ion Ru   0.226453210237160   0.776600338429732   0.869106649676672 1
ion Ru   0.440137589479944   0.238256276651078   0.135152259225231 1
ion Ru   0.549197381499118   0.113085141590983   0.378666168310873 1
ion Ru   0.438584001319765   0.226967724855995   0.620871840995023 1
ion Ru   0.558683240068216   0.110950891986561   0.888479953528971 1
ion Ru   0.455463943765862   0.548015518165894   0.130345785968009 1
ion Ru   0.573635898017586   0.448543471271653   0.358905610974892 1
ion Ru   0.466177935720662   0.569985660776256   0.628014482043717 1
ion Ru   0.558030462278999   0.437285679059655   0.882317375407592 1
ion Ru   0.442440724123087   0.886958495391063   0.118492998815281 1
ion Ru   0.548493938581694   0.771902878757558   0.364712549653548 1
ion Ru   0.450171997703169   0.883006617211147   0.622010746130375 1
ion Ru   0.548412550524710   0.787995381523203   0.864567027596990 1
ion Ru   0.779462188117199   0.226263364684457   0.116883266144295 1
ion Ru   0.886141192588352   0.111182521839240   0.381281368774973 1
ion Ru   0.786184664785402   0.218992833595026   0.616967468543948 1
ion Ru   0.890134184640827   0.122074096988145   0.889192031375180 1
ion Ru   0.779586528662095   0.558462645252108   0.117308280497733 1
ion Ru   0.877578398118562   0.442346530888490   0.387909377376683 1
ion Ru   0.770154278212424   0.559904724063321   0.640440799948332 1
ion Ru   0.894981145284026   0.448953257707512   0.880108971806343 1
ion Ru   0.772391122696325   0.896801146988037   0.134368825808355 1
ion Ru   0.899689829462810   0.772950651405106   0.383380270988436 1
ion Ru   0.776189759931159   0.891042480875353   0.627979190110932 1
ion Ru   0.900186439258534   0.788349987653572   0.868622769743157 1
ion O   0.325971697909436   0.369803531614518   0.542000073727641 1

# Forces in Lattice coordinates:
force Ru  -0.538516798272594   0.083016449749020  -0.616932615749823 1
force Ru  -0.325226740230045   0.059552122292859  -0.498149112290627 1
force Ru  -1.570335005116838  -0.199575525738426   1.332955537608925 1
force Ru   0.134402719958193   0.127142839451590   0.235106231700815 1
force Ru   0.087945804461693   0.254305554220205   0.024371283494034 1
force Ru  -0.758552692569592   0.903161228827920  -0.321514882567311 1
force Ru  -0.278865114224003  -0.041618373289653  -0.143730175524347 1
force Ru   0.096465060396270  -0.204642793327993   0.403638520138227 1
force Ru   0.295199938597298  -0.316140540604605   0.029953824516285 1
force Ru   0.864272998852795  -0.720151790538659   0.102760019644214 1
force Ru  -0.111205031416969   0.000682555335235  -0.843561212515832 1
force Ru  -0.033148236392716   0.043962007595574   0.470705782016678 1
force Ru   0.614241510624543  -1.093181258418167  -0.576978227733251 1
force Ru   0.405949791233035  -0.393547738612088  -0.178540323512269 1
force Ru   1.085196725011710  -1.022552849777680   0.522580551356342 1
force Ru  -0.300050424642965   0.280707129806954  -0.488279937783751 1
force Ru  -0.649417518812831   0.896670726196735  -0.554381878579910 1
force Ru  -0.030219097166117   0.273374459860888   0.555544526611030 1
force Ru   0.479113173869069   2.725192888316903   1.835241438811461 1
force Ru  -0.246481841225802   0.314192044762267  -0.158117125603860 1
force Ru  -0.189251069093457   0.044533315544507   0.411779093357433 1
force Ru   0.006153513996550   0.225934799904612   0.217342717021148 1
force Ru  -0.357196655769364   0.420353769153674  -0.194028875061315 1
force Ru   0.599171040449285  -0.480621957925517   0.657271888739381 1
force Ru  -0.087886090260017   0.069602006496266   0.698889081074176 1
force Ru  -0.122533304153125  -0.118836101976203  -0.477272911429424 1
force Ru  -0.412841120376193   0.316661411581563   0.491536747148450 1
force Ru   0.314348171671531  -0.362723141104373  -0.483558691584665 1
force Ru   0.228294765561766   0.020987609266947   0.200497624251431 1
force Ru   0.457421211031924  -0.158213790887308  -0.332478825978789 1
force Ru   0.699802960161584  -0.437244443233815  -0.385801849886938 1
force Ru  -0.042713065739461  -0.056846048258491  -0.298065239968365 1
force Ru   0.321609705940687  -0.287722635365959  -0.269343440465526 1
force Ru  -0.619850833959205   0.423021888173015  -0.151228190469013 1
force Ru   0.138721064100130  -0.000832184811688  -0.111854251113795 1
force Ru  -0.481034274166257   0.083606186874404   0.575937668265572 1
force O   0.327107698180079  -1.672085594111454  -1.680631064096498 1

# Energy components:
   Eewald =    -2974.9088557617815241
       EH =      513.3682809208995650
     Eloc =    -2269.9520689462224254
      Enl =      646.7971717026475744
      Exc =     -468.5652995057217254
 Exc_core =       74.7495223127604902
       KE =     1041.2478615787301806
-------------------------------------
     Etot =    -3437.2633876986874384
       TS =        0.2984750739929223
-------------------------------------
        F =    -3437.5618627726803425

IonicMinimize: Iter:   3  F: -3437.561862772680342  |grad|_K:  3.985e-02  alpha:  3.820e-01  linmin: -9.850e-01  t[s]:   8601.49

#--- Lowdin population analysis ---
# oxidation-state Ru +0.018 +0.008 +0.031 +0.007 +0.018 +0.028 +0.006 +0.005 +0.023 +0.022 +0.024 +0.018 +0.024 +0.010 +0.013 +0.027 +0.017 +0.024 +0.048 +0.013 +0.025 +0.010 +0.014 +0.020 +0.031 +0.022 +0.022 +0.023 +0.025 +0.020 +0.009 +0.016 +0.021 +0.024 -0.010 +0.023
# oxidation-state O +0.146


-------- Electronic minimization -----------
Will mix electronic density at each iteration.
	FillingsUpdate:  mu: +0.894506370  nElectrons: 582.000000
	FillingsUpdate:  mu: +0.897221843  nElectrons: 582.000000
SCF: Cycle:  0   F: -3399.810968531612616   dF: +3.617e+01   |Residual|: 1.940e+00   |deigs|: 7.132e-03  t[s]:   8783.14
	FillingsUpdate:  mu: +0.915900125  nElectrons: 582.000000
SCF: Cycle:  1   F: -3366.249376645519533   dF: +3.356e+01   |Residual|: 3.256e+00   |deigs|: 8.090e-02  t[s]:   8919.91
	FillingsUpdate:  mu: +0.899206970  nElectrons: 582.000000
SCF: Cycle:  2   F: -3431.504477755592234   dF: -6.526e+01   |Residual|: 1.082e+00   |deigs|: 7.448e-02  t[s]:   9054.88
	FillingsUpdate:  mu: +0.897146539  nElectrons: 582.000000
SCF: Cycle:  3   F: -3436.549621647346612   dF: -5.045e+00   |Residual|: 4.977e-01   |deigs|: 1.371e-02  t[s]:   9191.80
	FillingsUpdate:  mu: +0.894183477  nElectrons: 582.000000
SCF: Cycle:  4   F: -3437.181891006420301   dF: -6.323e-01   |Residual|: 3.064e-01   |deigs|: 4.587e-03  t[s]:   9327.02
	FillingsUpdate:  mu: +0.894180268  nElectrons: 582.000000
SCF: Cycle:  5   F: -3437.468125503698047   dF: -2.862e-01   |Residual|: 1.744e-01   |deigs|: 2.801e-03  t[s]:   9462.43
	FillingsUpdate:  mu: +0.894321201  nElectrons: 582.000000
SCF: Cycle:  6   F: -3437.624725937802850   dF: -1.566e-01   |Residual|: 5.401e-02   |deigs|: 1.662e-03  t[s]:   9595.64
	FillingsUpdate:  mu: +0.894300464  nElectrons: 582.000000
SCF: Cycle:  7   F: -3437.633508287936365   dF: -8.782e-03   |Residual|: 4.231e-02   |deigs|: 4.453e-04  t[s]:   9679.60
	FillingsUpdate:  mu: +0.894193523  nElectrons: 582.000000
SCF: Cycle:  8   F: -3437.641245250252268   dF: -7.737e-03   |Residual|: 9.395e-03   |deigs|: 3.731e-04  t[s]:   9758.04
	FillingsUpdate:  mu: +0.894189360  nElectrons: 582.000000
SCF: Cycle:  9   F: -3437.641312902811478   dF: -6.765e-05   |Residual|: 8.550e-03   |deigs|: 1.023e-04  t[s]:   9842.80
	FillingsUpdate:  mu: +0.894191417  nElectrons: 582.000000
SCF: Cycle: 10   F: -3437.641653810963817   dF: -3.409e-04   |Residual|: 2.197e-03   |deigs|: 4.951e-05  t[s]:   9920.49
	FillingsUpdate:  mu: +0.894188573  nElectrons: 582.000000
SCF: Cycle: 11   F: -3437.641643411923269   dF: +1.040e-05   |Residual|: 2.251e-03   |deigs|: 2.225e-05  t[s]:   9998.03
	FillingsUpdate:  mu: +0.894194121  nElectrons: 582.000000
SCF: Cycle: 12   F: -3437.641668785172442   dF: -2.537e-05   |Residual|: 1.065e-03   |deigs|: 1.575e-05  t[s]:  10076.04
	FillingsUpdate:  mu: +0.894192973  nElectrons: 582.000000
SCF: Cycle: 13   F: -3437.641674526993484   dF: -5.742e-06   |Residual|: 2.382e-04   |deigs|: 7.816e-06  t[s]:  10155.50
	FillingsUpdate:  mu: +0.894192672  nElectrons: 582.000000
SCF: Cycle: 14   F: -3437.641674139971201   dF: +3.870e-07   |Residual|: 3.369e-04   |deigs|: 3.136e-06  t[s]:  10232.81
	FillingsUpdate:  mu: +0.894192579  nElectrons: 582.000000
SCF: Cycle: 15   F: -3437.641674711207997   dF: -5.712e-07   |Residual|: 1.042e-04   |deigs|: 2.070e-06  t[s]:  10311.86
	FillingsUpdate:  mu: +0.894192644  nElectrons: 582.000000
SCF: Cycle: 16   F: -3437.641674705284458   dF: +5.924e-09   |Residual|: 1.071e-04   |deigs|: 1.052e-06  t[s]:  10401.05
	FillingsUpdate:  mu: +0.894192578  nElectrons: 582.000000
SCF: Cycle: 17   F: -3437.641674758976023   dF: -5.369e-08   |Residual|: 2.204e-05   |deigs|: 7.398e-07  t[s]:  10479.04
	FillingsUpdate:  mu: +0.894192577  nElectrons: 582.000000
SCF: Cycle: 18   F: -3437.641674756561315   dF: +2.415e-09   |Residual|: 2.661e-05   |deigs|: 4.507e-07  t[s]:  10569.61
	FillingsUpdate:  mu: +0.894192588  nElectrons: 582.000000
SCF: Cycle: 19   F: -3437.641674760186106   dF: -3.625e-09   |Residual|: 1.108e-05   |deigs|: 4.465e-07  t[s]:  10648.21
	FillingsUpdate:  mu: +0.894192595  nElectrons: 582.000000
SCF: Cycle: 20   F: -3437.641674760735896   dF: -5.498e-10   |Residual|: 8.980e-06   |deigs|: 4.143e-07  t[s]:  10721.17
SCF: Converged (|Delta E|<1.000000e-08 for 2 iters).

Setting wave functions to eigenvectors of Hamiltonian

# Ionic positions in lattice coordinates:
ion Ru   0.119879767853476   0.222689146750863   0.136460085579933 1
ion Ru   0.220176207739194   0.093478398451885   0.380742193515159 1
ion Ru   0.096507431655061   0.205956194901481   0.617504422715260 1
ion Ru   0.219099581791662   0.112504431454345   0.875496332865954 1
ion Ru   0.106558470402297   0.547124151113466   0.125255479972452 1
ion Ru   0.227622334443421   0.432955085608951   0.363321508918868 1
ion Ru   0.118790702902187   0.563205161757393   0.624707147618366 1
ion Ru   0.224867013477542   0.447793277214240   0.864969504205544 1
ion Ru   0.104752674748161   0.895681207749888   0.122902239945066 1
ion Ru   0.208628669914735   0.780760377276154   0.368191318618580 1
ion Ru   0.117501599312279   0.886827139922086   0.642900163213327 1
ion Ru   0.226363169239928   0.776723372055683   0.870392123983523 1
ion Ru   0.440476244354698   0.235174276537199   0.133578306757218 1
ion Ru   0.550078629411039   0.112301947715984   0.378140639276640 1
ion Ru   0.440863149165391   0.225221306037146   0.622320165054614 1
ion Ru   0.558039961367252   0.111462865138627   0.887102935254281 1
ion Ru   0.454603672421854   0.550245453285952   0.128815722542010 1
ion Ru   0.573907334630535   0.449576742856880   0.360416367999605 1
ion Ru   0.469585556214797   0.576613165750227   0.631001031227370 1
ion Ru   0.557686911126409   0.438125950178265   0.881872033205839 1
ion Ru   0.441775192702123   0.886804268373047   0.119655728896624 1
ion Ru   0.549034811054930   0.772874737040477   0.365328485442420 1
ion Ru   0.449549603414524   0.884042858145889   0.621536523425594 1
ion Ru   0.549974458014044   0.787345689819180   0.866508557492022 1
ion Ru   0.779236239479247   0.226348472605748   0.118796722039388 1
ion Ru   0.885361653531746   0.110449483840702   0.379927873194670 1
ion Ru   0.785044942808553   0.219457991641401   0.618338895845998 1
ion Ru   0.890622049359477   0.121193329175514   0.887844648945288 1
ion Ru   0.780529419985391   0.558989523392382   0.117908426938761 1
ion Ru   0.879192387517447   0.442644057858735   0.386918682609928 1
ion Ru   0.772210825939655   0.559535863869081   0.639325532461437 1
ion Ru   0.894674608091717   0.448606490342057   0.879299907718883 1
ion Ru   0.773123230204863   0.896239776272011   0.133545946859768 1
ion Ru   0.898052289374147   0.773430502503768   0.382903623281400 1
ion Ru   0.776713239921373   0.891310449622253   0.627648479607435 1
ion Ru   0.898399864693247   0.787681307240429   0.870211197748246 1
ion O   0.326656101735598   0.367605546500614   0.539601045022528 1

# Forces in Lattice coordinates:
force Ru  -0.449582570530819   0.083550705296080  -0.528077809486652 1
force Ru  -0.289080190360757   0.100775845507668  -0.394761230656366 1
force Ru  -1.037798676448493  -0.012783031803462   1.014696267319008 1
force Ru   0.130087555635658   0.073359697424994   0.189133692995824 1
force Ru   0.059036585038024   0.232254121210867  -0.016286076945718 1
force Ru  -0.656135690781014   0.764381288129523  -0.208615799448572 1
force Ru  -0.218662583107445  -0.048990096793349  -0.096356059958696 1
force Ru   0.084030664082129  -0.168623131879023   0.345228560697413 1
force Ru   0.280449926780068  -0.297548420116867   0.037664700108482 1
force Ru   0.708592588365101  -0.592810728441114   0.113546601215130 1
force Ru  -0.109642830729001  -0.007791956904998  -0.676259117533249 1
force Ru  -0.052655650665042   0.052693581971588   0.376454767735422 1
force Ru   0.500180977787793  -0.850809266997619  -0.459072303578255 1
force Ru   0.341321260088545  -0.322083222422570  -0.165665946091148 1
force Ru   0.884779411222613  -0.828778877642308   0.435460307889685 1
force Ru  -0.231286761944946   0.214965518181966  -0.414469587296902 1
force Ru  -0.528349555138695   0.694077727155045  -0.453944124081183 1
force Ru  -0.087032459359413   0.232779176603877   0.431763167211483 1
force Ru   0.144626935784269   1.720691500960267   1.144405749917355 1
force Ru  -0.197895687597872   0.281796353737822  -0.135946211259961 1
force Ru  -0.151680619425979   0.060067147736973   0.345186907067465 1
force Ru   0.028933457271479   0.182088618048560   0.193944005733859 1
force Ru  -0.316675993000789   0.378713747618118  -0.111730696995902 1
force Ru   0.505429448341061  -0.366884703119426   0.610682032304248 1
force Ru  -0.070646299492939   0.046685618379662   0.556146330659494 1
force Ru  -0.102660400428213  -0.085034960570912  -0.390638955804767 1
force Ru  -0.388595917901907   0.289098623634023   0.404728530505849 1
force Ru   0.233987416307578  -0.300104815088513  -0.400844285404268 1
force Ru   0.173379789461558   0.010690695647006   0.191091277442944 1
force Ru   0.401718018006401  -0.140650912177517  -0.316883443046176 1
force Ru   0.596575531515132  -0.372484715122992  -0.345882952888843 1
force Ru  -0.036161977929592  -0.055065728273943  -0.234106785997255 1
force Ru   0.276030854111733  -0.259913857205484  -0.266078260232824 1
force Ru  -0.495832732152689   0.347368166835901  -0.153895847626855 1
force Ru   0.111808788121533   0.004027216204719  -0.104016282340486 1
force Ru  -0.378065033119087   0.048666661811764   0.464587013552849 1
force O   0.337879077340973  -1.108500356753359  -0.980858126181924 1

# Energy components:
   Eewald =    -2979.4434823658261848
       EH =      509.1295570740793437
     Eloc =    -2260.8223635125737019
      Enl =      646.6814669974594381
      Exc =     -468.4508350169562618
 Exc_core =       74.7495197434309091
       KE =     1040.8123013715789966
-------------------------------------
     Etot =    -3437.3438357088075463
       TS =        0.2978390519283646
-------------------------------------
        F =    -3437.6416747607358957

IonicMinimize: Iter:   4  F: -3437.641674760735896  |grad|_K:  2.801e-02  alpha:  3.737e-01  linmin: -9.834e-01  t[s]:  10738.59

#--- Lowdin population analysis ---
# oxidation-state Ru +0.018 +0.013 +0.037 +0.008 +0.018 +0.033 +0.008 +0.006 +0.024 +0.021 +0.022 +0.019 +0.021 +0.011 +0.021 +0.025 +0.017 +0.028 +0.054 +0.013 +0.025 +0.010 +0.015 +0.020 +0.029 +0.021 +0.021 +0.022 +0.026 +0.021 +0.008 +0.017 +0.021 +0.025 -0.005 +0.023
# oxidation-state O +0.096


-------- Electronic minimization -----------
Will mix electronic density at each iteration.
	FillingsUpdate:  mu: +0.894192595  nElectrons: 582.000000
	FillingsUpdate:  mu: +0.897274184  nElectrons: 582.000000
SCF: Cycle:  0   F: -3379.098060377763886   dF: +5.584e+01   |Residual|: 2.409e+00   |deigs|: 1.134e-02  t[s]:  10923.21
	FillingsUpdate:  mu: +0.926288349  nElectrons: 582.000000
SCF: Cycle:  1   F: -3346.939056245084885   dF: +3.216e+01   |Residual|: 3.689e+00   |deigs|: 9.664e-02  t[s]:  11057.82
	FillingsUpdate:  mu: +0.901001763  nElectrons: 582.000000
SCF: Cycle:  2   F: -3428.094592205795379   dF: -8.116e+01   |Residual|: 1.361e+00   |deigs|: 9.159e-02  t[s]:  11195.86
	FillingsUpdate:  mu: +0.897669082  nElectrons: 582.000000
SCF: Cycle:  3   F: -3435.856021795974812   dF: -7.761e+00   |Residual|: 6.327e-01   |deigs|: 1.953e-02  t[s]:  11333.83
	FillingsUpdate:  mu: +0.894138920  nElectrons: 582.000000
SCF: Cycle:  4   F: -3436.358748117123014   dF: -5.027e-01   |Residual|: 5.174e-01   |deigs|: 6.386e-03  t[s]:  11479.07
	FillingsUpdate:  mu: +0.894043335  nElectrons: 582.000000
SCF: Cycle:  5   F: -3437.410520538294350   dF: -1.052e+00   |Residual|: 2.286e-01   |deigs|: 5.778e-03  t[s]:  11631.93
	FillingsUpdate:  mu: +0.894118028  nElectrons: 582.000000
SCF: Cycle:  6   F: -3437.621433944427281   dF: -2.109e-01   |Residual|: 1.112e-01   |deigs|: 2.691e-03  t[s]:  11765.52
	FillingsUpdate:  mu: +0.894069574  nElectrons: 582.000000
SCF: Cycle:  7   F: -3437.692272176633196   dF: -7.084e-02   |Residual|: 6.023e-02   |deigs|: 6.427e-04  t[s]:  11875.98
	FillingsUpdate:  mu: +0.893852967  nElectrons: 582.000000
SCF: Cycle:  8   F: -3437.706588482707048   dF: -1.432e-02   |Residual|: 3.179e-02   |deigs|: 6.711e-04  t[s]:  11953.28
	FillingsUpdate:  mu: +0.893877490  nElectrons: 582.000000
SCF: Cycle:  9   F: -3437.711825603487796   dF: -5.237e-03   |Residual|: 1.269e-02   |deigs|: 1.771e-04  t[s]:  12032.11
	FillingsUpdate:  mu: +0.893878847  nElectrons: 582.000000
SCF: Cycle: 10   F: -3437.712250646788107   dF: -4.250e-04   |Residual|: 7.806e-03   |deigs|: 7.350e-05  t[s]:  12114.63
	FillingsUpdate:  mu: +0.893873338  nElectrons: 582.000000
SCF: Cycle: 11   F: -3437.712582443446991   dF: -3.318e-04   |Residual|: 2.432e-03   |deigs|: 6.855e-05  t[s]:  12193.42
	FillingsUpdate:  mu: +0.893879988  nElectrons: 582.000000
SCF: Cycle: 12   F: -3437.712586303441640   dF: -3.860e-06   |Residual|: 2.350e-03   |deigs|: 1.912e-05  t[s]:  12271.53
	FillingsUpdate:  mu: +0.893880615  nElectrons: 582.000000
SCF: Cycle: 13   F: -3437.712615563853888   dF: -2.926e-05   |Residual|: 2.930e-04   |deigs|: 9.887e-06  t[s]:  12354.30
	FillingsUpdate:  mu: +0.893879439  nElectrons: 582.000000
SCF: Cycle: 14   F: -3437.712615215135429   dF: +3.487e-07   |Residual|: 3.639e-04   |deigs|: 2.956e-06  t[s]:  12442.41
	FillingsUpdate:  mu: +0.893879229  nElectrons: 582.000000
SCF: Cycle: 15   F: -3437.712615916358118   dF: -7.012e-07   |Residual|: 1.076e-04   |deigs|: 1.989e-06  t[s]:  12521.88
	FillingsUpdate:  mu: +0.893879124  nElectrons: 582.000000
SCF: Cycle: 16   F: -3437.712615842592186   dF: +7.377e-08   |Residual|: 1.288e-04   |deigs|: 7.864e-07  t[s]:  12601.08
	FillingsUpdate:  mu: +0.893879124  nElectrons: 582.000000
SCF: Cycle: 17   F: -3437.712615938790350   dF: -9.620e-08   |Residual|: 3.685e-05   |deigs|: 6.626e-07  t[s]:  12681.68
	FillingsUpdate:  mu: +0.893879184  nElectrons: 582.000000
SCF: Cycle: 18   F: -3437.712615937953160   dF: +8.372e-10   |Residual|: 3.523e-05   |deigs|: 4.976e-07  t[s]:  12766.07
	FillingsUpdate:  mu: +0.893879164  nElectrons: 582.000000
SCF: Cycle: 19   F: -3437.712615942233242   dF: -4.280e-09   |Residual|: 2.225e-05   |deigs|: 4.321e-07  t[s]:  12848.80
	FillingsUpdate:  mu: +0.893879179  nElectrons: 582.000000
SCF: Cycle: 20   F: -3437.712615944562913   dF: -2.330e-09   |Residual|: 6.517e-06   |deigs|: 4.339e-07  t[s]:  12926.41
SCF: Converged (|Delta E|<1.000000e-08 for 2 iters).

Setting wave functions to eigenvectors of Hamiltonian

# Ionic positions in lattice coordinates:
ion Ru   0.116990255212569   0.221762630831534   0.133844554140301 1
ion Ru   0.218483897090509   0.093415923848156   0.378942542595443 1
ion Ru   0.091802774682152   0.204424664618602   0.621902949647824 1
ion Ru   0.220311763621997   0.113357405891731   0.876384317578505 1
ion Ru   0.107789977133201   0.549090569876571   0.125020169637258 1
ion Ru   0.225555218130641   0.436065510235352   0.362591292895038 1
ion Ru   0.117096643472655   0.562022669504815   0.624335881395313 1
ion Ru   0.224904624626579   0.446897921330442   0.866642472574729 1
ion Ru   0.105802722842888   0.894446147606338   0.123141148854663 1
ion Ru   0.211533427417357   0.779053921218212   0.368853628801793 1
ion Ru   0.116557006377775   0.886255889395605   0.639751721083671 1
ion Ru   0.226066523330418   0.776935747951495   0.872144583439344 1
ion Ru   0.441137476361437   0.231236776406919   0.131451598151512 1
ion Ru   0.551409257025045   0.111254531633771   0.377268610598538 1
ion Ru   0.444130325148593   0.222655411857735   0.624421375946071 1
ion Ru   0.557207489365832   0.112111619624031   0.885065337478701 1
ion Ru   0.453221601503304   0.553016565215781   0.126657216503478 1
ion Ru   0.573730606212888   0.450786595011094   0.362372747306638 1
ion Ru   0.471884016787865   0.583066601498863   0.634113718029820 1
ion Ru   0.557376842990111   0.439580473578804   0.881199258882197 1
ion Ru   0.441001093182399   0.886846702675855   0.121340801558632 1
ion Ru   0.550022152079466   0.774325383873939   0.366312330452235 1
ion Ru   0.448605022132121   0.885736057452111   0.621198295531805 1
ion Ru   0.552439990255918   0.786764935131839   0.869732328588875 1
ion Ru   0.778878927075550   0.226369772802336   0.121379118927488 1
ion Ru   0.884332527243737   0.109544076572228   0.378045512544675 1
ion Ru   0.783087371963703   0.220156869251871   0.620280669350486 1
ion Ru   0.891056976806393   0.119805528008013   0.885913734547641 1
ion Ru   0.781686730951444   0.559595981007584   0.118934643558628 1
ion Ru   0.881675558020505   0.443086356869420   0.385220092369801 1
ion Ru   0.775239424405576   0.558991542437553   0.637550586854729 1
ion Ru   0.894189289034644   0.448029474481502   0.878227495707592 1
ion Ru   0.774158597827849   0.895266907300122   0.132081060043067 1
ion Ru   0.895862243176398   0.774175311379395   0.382035697482186 1
ion Ru   0.777493573996595   0.891746774362609   0.627099267799908 1
ion Ru   0.895942014063402   0.786618230611229   0.872397584015053 1
ion O   0.327476058450483   0.364482518646540   0.537535655126361 1

# Forces in Lattice coordinates:
force Ru  -0.325237624135675   0.079266897594939  -0.400381638963593 1
force Ru  -0.219319179459898   0.130398399558653  -0.287608695941773 1
force Ru  -0.635590721391787   0.101665470115037   0.701003402564843 1
force Ru   0.115100530250829   0.010239204226488   0.127204557817742 1
force Ru   0.026805372179268   0.188970519853890  -0.056100794797262 1
force Ru  -0.509601013202900   0.584215036725404  -0.081284240398968 1
force Ru  -0.141275143537395  -0.053012777436705  -0.037315077281560 1
force Ru   0.055749702879351  -0.108126911562303   0.284430584821581 1
force Ru   0.245356937755869  -0.255446401668905   0.042525608588634 1
force Ru   0.501224085689786  -0.417400522491981   0.123871930156043 1
force Ru  -0.110202988298808   0.000008572260374  -0.480538024626771 1
force Ru  -0.068331190003602   0.056930975710248   0.258397929836227 1
force Ru   0.355157397446951  -0.568678063906557  -0.313164048558697 1
force Ru   0.246483612308816  -0.219542273729930  -0.142733728828922 1
force Ru   0.666394556336789  -0.623974958821193   0.318632791659556 1
force Ru  -0.146722376959920   0.136312088073800  -0.311798591051294 1
force Ru  -0.384031010235343   0.463202513701306  -0.318069665497103 1
force Ru  -0.126007387631523   0.167228131187987   0.297886103561311 1
force Ru  -0.069231476684039   0.946360483666439   0.593718013977540 1
force Ru  -0.127841507016210   0.225619603517817  -0.108902790137757 1
force Ru  -0.095119551786130   0.070917315434577   0.248302242782356 1
force Ru   0.055474172030653   0.120732653717458   0.164909011371710 1
force Ru  -0.253123587864498   0.309697882461175  -0.017568507390587 1
force Ru   0.370952834899902  -0.234029698630489   0.514726390927459 1
force Ru  -0.048118469021196   0.019206893487653   0.374979384859468 1
force Ru  -0.059349330177421  -0.049132942062617  -0.266563787268628 1
force Ru  -0.324140065457683   0.236712485107024   0.289117524297743 1
force Ru   0.135460541611957  -0.216455220866855  -0.288611734200317 1
force Ru   0.103502596165132  -0.004021114490275   0.170165121761440 1
force Ru   0.310178636757296  -0.108718750575284  -0.283250987516130 1
force Ru   0.429575558641561  -0.265650482900204  -0.286009564658976 1
force Ru  -0.030135142390920  -0.044163169789517  -0.152696718144725 1
force Ru   0.213609997000653  -0.215911734745780  -0.237239440224896 1
force Ru  -0.345485367322931   0.252100741324958  -0.142847841647973 1
force Ru   0.090144699237051   0.000024840342860  -0.090011716948518 1
force Ru  -0.243588329808491   0.002118139894340   0.319380435402066 1
force O   0.341788328420198  -0.718039541546489  -0.528297713912261 1

# Energy components:
   Eewald =    -2983.9119778064664388
       EH =      504.9251279820684886
     Eloc =    -2251.7992421865119468
      Enl =      646.5716299723801512
      Exc =     -468.3381660159445801
 Exc_core =       74.7495222771955099
       KE =     1040.3877421334727842
-------------------------------------
     Etot =    -3437.4153636438059038
       TS =        0.2972523007570126
-------------------------------------
        F =    -3437.7126159445629128

IonicMinimize: Iter:   5  F: -3437.712615944562913  |grad|_K:  1.827e-02  alpha:  4.126e-01  linmin: -9.879e-01  t[s]:  12943.89

#--- Lowdin population analysis ---
# oxidation-state Ru +0.018 +0.019 +0.043 +0.009 +0.018 +0.038 +0.008 +0.007 +0.025 +0.021 +0.019 +0.021 +0.019 +0.013 +0.029 +0.023 +0.016 +0.032 +0.059 +0.012 +0.025 +0.010 +0.016 +0.020 +0.027 +0.019 +0.020 +0.021 +0.026 +0.022 +0.007 +0.019 +0.021 +0.025 +0.000 +0.024
# oxidation-state O +0.051


-------- Electronic minimization -----------
Will mix electronic density at each iteration.
	FillingsUpdate:  mu: +0.893879179  nElectrons: 582.000000
	FillingsUpdate:  mu: +0.895947459  nElectrons: 582.000000
SCF: Cycle:  0   F: -3378.420364160591362   dF: +5.619e+01   |Residual|: 2.450e+00   |deigs|: 1.171e-02  t[s]:  13130.31
	FillingsUpdate:  mu: +0.926116472  nElectrons: 582.000000
SCF: Cycle:  1   F: -3340.650536534220919   dF: +3.777e+01   |Residual|: 3.738e+00   |deigs|: 9.330e-02  t[s]:  13266.48
	FillingsUpdate:  mu: +0.901420217  nElectrons: 582.000000
SCF: Cycle:  2   F: -3428.094173433663855   dF: -8.744e+01   |Residual|: 1.409e+00   |deigs|: 9.032e-02  t[s]:  13401.63
	FillingsUpdate:  mu: +0.897517530  nElectrons: 582.000000
SCF: Cycle:  3   F: -3436.101698080219194   dF: -8.008e+00   |Residual|: 6.108e-01   |deigs|: 2.091e-02  t[s]:  13556.13
	FillingsUpdate:  mu: +0.893935479  nElectrons: 582.000000
SCF: Cycle:  4   F: -3436.296194520635709   dF: -1.945e-01   |Residual|: 5.307e-01   |deigs|: 6.715e-03  t[s]:  13691.26
	FillingsUpdate:  mu: +0.893828860  nElectrons: 582.000000
SCF: Cycle:  5   F: -3437.466933623683417   dF: -1.171e+00   |Residual|: 2.337e-01   |deigs|: 5.711e-03  t[s]:  13826.47
	FillingsUpdate:  mu: +0.893930258  nElectrons: 582.000000
SCF: Cycle:  6   F: -3437.649866801375083   dF: -1.829e-01   |Residual|: 1.248e-01   |deigs|: 2.653e-03  t[s]:  13960.89
	FillingsUpdate:  mu: +0.893879440  nElectrons: 582.000000
SCF: Cycle:  7   F: -3437.735438594926563   dF: -8.557e-02   |Residual|: 6.592e-02   |deigs|: 7.328e-04  t[s]:  14067.58
	FillingsUpdate:  mu: +0.893658346  nElectrons: 582.000000
SCF: Cycle:  8   F: -3437.755222567944202   dF: -1.978e-02   |Residual|: 3.391e-02   |deigs|: 6.378e-04  t[s]:  14148.52
	FillingsUpdate:  mu: +0.893666937  nElectrons: 582.000000
SCF: Cycle:  9   F: -3437.761464309187431   dF: -6.242e-03   |Residual|: 1.132e-02   |deigs|: 1.807e-04  t[s]:  14229.48
	FillingsUpdate:  mu: +0.893666871  nElectrons: 582.000000
SCF: Cycle: 10   F: -3437.761677292828153   dF: -2.130e-04   |Residual|: 7.888e-03   |deigs|: 6.268e-05  t[s]:  14308.29
	FillingsUpdate:  mu: +0.893663599  nElectrons: 582.000000
SCF: Cycle: 11   F: -3437.761975406061083   dF: -2.981e-04   |Residual|: 2.295e-03   |deigs|: 5.050e-05  t[s]:  14386.45
	FillingsUpdate:  mu: +0.893671330  nElectrons: 582.000000
SCF: Cycle: 12   F: -3437.761965352810421   dF: +1.005e-05   |Residual|: 2.430e-03   |deigs|: 2.006e-05  t[s]:  14470.59
	FillingsUpdate:  mu: +0.893671371  nElectrons: 582.000000
SCF: Cycle: 13   F: -3437.762000963639821   dF: -3.561e-05   |Residual|: 3.238e-04   |deigs|: 1.037e-05  t[s]:  14548.72
	FillingsUpdate:  mu: +0.893670084  nElectrons: 582.000000
SCF: Cycle: 14   F: -3437.762000764495497   dF: +1.991e-07   |Residual|: 3.572e-04   |deigs|: 2.771e-06  t[s]:  14628.09
	FillingsUpdate:  mu: +0.893669605  nElectrons: 582.000000
SCF: Cycle: 15   F: -3437.762001308868548   dF: -5.444e-07   |Residual|: 1.348e-04   |deigs|: 1.875e-06  t[s]:  14705.46
	FillingsUpdate:  mu: +0.893669594  nElectrons: 582.000000
SCF: Cycle: 16   F: -3437.762001223991774   dF: +8.488e-08   |Residual|: 1.532e-04   |deigs|: 1.005e-06  t[s]:  14782.66
	FillingsUpdate:  mu: +0.893669533  nElectrons: 582.000000
SCF: Cycle: 17   F: -3437.762001356820747   dF: -1.328e-07   |Residual|: 4.166e-05   |deigs|: 7.899e-07  t[s]:  14860.42
	FillingsUpdate:  mu: +0.893669601  nElectrons: 582.000000
[...]
force Ru   0.001040394982286  -0.002346368977791   0.000270769257120 1
force O  -0.003337489759430   0.006721849234091  -0.002058479958473 1

# Energy components:
   Eewald =    -2988.9812182799037146
       EH =      500.2088328253546479
     Eloc =    -2241.5392200696046530
      Enl =      646.4370673894569563
      Exc =     -468.1857036854908642
 Exc_core =       74.7495227615656290
       KE =     1039.8031028799268825
-------------------------------------
     Etot =    -3437.5076161786955709
       TS =        0.2985378109310075
-------------------------------------
        F =    -3437.8061539896266368

IonicMinimize: Iter:  18  F: -3437.806153989626637  |grad|_K:  1.072e-04  alpha:  1.000e+00  linmin: -2.098e-01  t[s]:  34409.87

#--- Lowdin population analysis ---
# oxidation-state Ru +0.015 +0.044 +0.047 +0.013 +0.022 +0.044 +0.011 +0.013 +0.023 +0.022 +0.011 +0.024 +0.015 +0.011 +0.048 +0.022 +0.015 +0.044 +0.047 +0.013 +0.023 +0.012 +0.021 +0.022 +0.023 +0.012 +0.021 +0.022 +0.023 +0.022 +0.011 +0.024 +0.023 +0.022 +0.021 +0.023
# oxidation-state O -0.035


-------- Electronic minimization -----------
Will mix electronic density at each iteration.
	FillingsUpdate:  mu: +0.893601031  nElectrons: 582.000000
	FillingsUpdate:  mu: +0.893620918  nElectrons: 582.000000
SCF: Cycle:  0   F: -3437.344303801123715   dF: +3.894e-01   |Residual|: 2.596e-01   |deigs|: 3.367e-04  t[s]:  34593.41
	FillingsUpdate:  mu: +0.893347979  nElectrons: 582.000000
SCF: Cycle:  1   F: -3435.394588597560869   dF: +1.950e+00   |Residual|: 5.601e-01   |deigs|: 5.615e-03  t[s]:  34729.39
	FillingsUpdate:  mu: +0.893742316  nElectrons: 582.000000
SCF: Cycle:  2   F: -3437.788039298975491   dF: -2.393e+00   |Residual|: 6.584e-02   |deigs|: 6.692e-03  t[s]:  34870.68
	FillingsUpdate:  mu: +0.893615866  nElectrons: 582.000000
SCF: Cycle:  3   F: -3437.774484738663432   dF: +1.355e-02   |Residual|: 7.875e-02   |deigs|: 4.554e-04  t[s]:  34999.24
	FillingsUpdate:  mu: +0.893603483  nElectrons: 582.000000
SCF: Cycle:  4   F: -3437.805325431943857   dF: -3.084e-02   |Residual|: 1.605e-02   |deigs|: 3.314e-04  t[s]:  35088.42
	FillingsUpdate:  mu: +0.893603139  nElectrons: 582.000000
SCF: Cycle:  5   F: -3437.805651682017015   dF: -3.263e-04   |Residual|: 1.050e-02   |deigs|: 1.801e-04  t[s]:  35167.49
	FillingsUpdate:  mu: +0.893595866  nElectrons: 582.000000
SCF: Cycle:  6   F: -3437.805609780174109   dF: +4.190e-05   |Residual|: 9.658e-03   |deigs|: 4.856e-05  t[s]:  35248.55
	FillingsUpdate:  mu: +0.893605333  nElectrons: 582.000000
SCF: Cycle:  7   F: -3437.806154352301292   dF: -5.446e-04   |Residual|: 1.458e-03   |deigs|: 4.363e-05  t[s]:  35326.27
	FillingsUpdate:  mu: +0.893600382  nElectrons: 582.000000
SCF: Cycle:  8   F: -3437.806141445810681   dF: +1.291e-05   |Residual|: 1.831e-03   |deigs|: 8.943e-06  t[s]:  35407.16
	FillingsUpdate:  mu: +0.893601734  nElectrons: 582.000000
SCF: Cycle:  9   F: -3437.806159846872106   dF: -1.840e-05   |Residual|: 2.964e-04   |deigs|: 7.650e-06  t[s]:  35489.40
	FillingsUpdate:  mu: +0.893601677  nElectrons: 582.000000
SCF: Cycle: 10   F: -3437.806159349791415   dF: +4.971e-07   |Residual|: 3.609e-04   |deigs|: 2.336e-06  t[s]:  35568.53
	FillingsUpdate:  mu: +0.893602144  nElectrons: 582.000000
SCF: Cycle: 11   F: -3437.806160158884268   dF: -8.091e-07   |Residual|: 5.359e-05   |deigs|: 1.468e-06  t[s]:  35648.71
	FillingsUpdate:  mu: +0.893602045  nElectrons: 582.000000
SCF: Cycle: 12   F: -3437.806160152387747   dF: +6.497e-09   |Residual|: 4.928e-05   |deigs|: 2.807e-07  t[s]:  35726.08
	FillingsUpdate:  mu: +0.893602110  nElectrons: 582.000000
SCF: Cycle: 13   F: -3437.806160160016134   dF: -7.628e-09   |Residual|: 3.026e-05   |deigs|: 2.749e-07  t[s]:  35804.78
	FillingsUpdate:  mu: +0.893602068  nElectrons: 582.000000
SCF: Cycle: 14   F: -3437.806160161470416   dF: -1.454e-09   |Residual|: 2.279e-05   |deigs|: 1.490e-07  t[s]:  35882.75
SCF: Converged (|Delta E|<1.000000e-08 for 2 iters).

Setting wave functions to eigenvectors of Hamiltonian

# Ionic positions in lattice coordinates:
ion Ru   0.110996491109719   0.223708134588076   0.125455413226505 1
ion Ru   0.214023304983760   0.094189838280521   0.369061954414811 1
ion Ru   0.092977628034762   0.214716479007631   0.634625928990063 1
ion Ru   0.222841257816691   0.111856428887207   0.878334823314856 1
ion Ru   0.110930267462490   0.558346670071807   0.123676280973343 1
ion Ru   0.213864630362988   0.455614619176090   0.369196479631590 1
ion Ru   0.110131512360484   0.559250970725397   0.628885491506792 1
ion Ru   0.222763711937935   0.446680622720191   0.878576033828539 1
ion Ru   0.110937959979383   0.888803191973216   0.123384307455134 1
ion Ru   0.222305635007091   0.779025912992740   0.376701486192501 1
ion Ru   0.110273341742983   0.887403843843294   0.628939593228130 1
ion Ru   0.223461647743800   0.779652360632417   0.876852872110626 1
ion Ru   0.445819967732950   0.223662020713527   0.125321707941762 1
ion Ru   0.558304799180537   0.111171382058673   0.374880460548758 1
ion Ru   0.454916710108334   0.214543689939154   0.634582936309097 1
ion Ru   0.557456935238624   0.111845365776756   0.880303743017722 1
ion Ru   0.445716020808300   0.558360015403174   0.125541285139809 1
ion Ru   0.575179572252652   0.455360997984495   0.369177810918691 1
ion Ru   0.454715639753256   0.576456080974680   0.634625648183084 1
ion Ru   0.557459567864709   0.446528633045449   0.878401110284809 1
ion Ru   0.445064438581414   0.890667359186426   0.127053517711143 1
ion Ru   0.558252561626556   0.782848122307150   0.374872533554974 1
ion Ru   0.446203030151330   0.891189574074910   0.627188186098073 1
ion Ru   0.557422178725792   0.781304934101763   0.880404005015188 1
ion Ru   0.778672733546006   0.224377080993751   0.127050744853794 1
ion Ru   0.886485873104058   0.111142101295726   0.374753156529543 1
ion Ru   0.778048035280541   0.223149369382840   0.627168995667231 1
ion Ru   0.887898036598429   0.111839079477174   0.880412695067000 1
ion Ru   0.780360098949126   0.558245349816197   0.123531101379144 1
ion Ru   0.890247777810460   0.447103853512737   0.376610548954618 1
ion Ru   0.781930525994429   0.559036043191034   0.628946501408230 1
ion Ru   0.889653169354260   0.445897663931651   0.876883193324136 1
ion Ru   0.778667186738911   0.890571432566450   0.127083601670292 1
ion Ru   0.890205468298108   0.778903917047467   0.376696404314915 1
ion Ru   0.778059222988883   0.891116278450654   0.627063758323180 1
ion Ru   0.889676155437056   0.779519592613624   0.876811310808296 1
ion O   0.334216905333192   0.334890989255948   0.502334378103621 1

# Forces in Lattice coordinates:
force Ru   0.001556538897048  -0.002624075257598   0.000030032169647 1
force Ru  -0.001770167710631  -0.006938452632259   0.000182840136876 1
force Ru  -0.005578673278238   0.002007459970035   0.003012229770913 1
force Ru  -0.004892482532513   0.004853775209139  -0.000923724118404 1
force Ru   0.002119713416452   0.000096696890039  -0.001794077845004 1
force Ru  -0.002459920558705  -0.000326144580824   0.003677192229035 1
force Ru   0.004218301335591  -0.005635967837259   0.002024532755586 1
force Ru  -0.001150450400311  -0.001359692590018  -0.004398471794973 1
force Ru   0.001420125882936   0.002902576848493   0.008223863753289 1
force Ru  -0.003709774588606   0.005231237069949  -0.000628635761408 1
force Ru  -0.002674251806337   0.002680610626912  -0.001588457377314 1
force Ru   0.001697624515877  -0.003153963503884   0.000107507686497 1
force Ru  -0.003112026461228  -0.001222271044670  -0.000330338063427 1
force Ru   0.001358952677094  -0.004245174137942   0.001436037908717 1
force Ru  -0.002731922037205   0.000318445935826   0.002349981079498 1
force Ru   0.001264577343037  -0.000778655934840  -0.002263785889523 1
force Ru  -0.001351585933395   0.000095248507590  -0.001665365547485 1
force Ru   0.002797980745297   0.000133948102722   0.000451127581231 1
force Ru  -0.003231057804384  -0.001634616928258   0.001149910871695 1
force Ru  -0.003736570257391   0.002543807350937  -0.003576679681899 1
force Ru  -0.002995813741800  -0.000283856679922   0.000239981674978 1
force Ru  -0.000912688834229   0.000788420489967   0.001601176415506 1
force Ru   0.001668164576732  -0.001889804150403  -0.001440566732728 1
force Ru  -0.000291064512944  -0.000416495273804  -0.004755650019102 1
force Ru   0.002353231833803  -0.002029433564646  -0.001140536928573 1
force Ru   0.002037472280035  -0.001217356387521   0.006378612438514 1
force Ru   0.008987851861146  -0.005411079652969  -0.000495267141058 1
force Ru   0.003741509414480   0.000469218923783  -0.007141799089075 1
force Ru  -0.000221033764328   0.001783951796777   0.002054412133594 1
force Ru   0.001511549719481  -0.001276085595537   0.003800741918415 1
force Ru  -0.002041311963454   0.002860837655239   0.000010075050140 1
force Ru   0.004655962044509  -0.003764531939733  -0.002320235850524 1
force Ru   0.002474229456739  -0.000657901907151   0.000498743085564 1
force Ru   0.003528339995927   0.002784173467568   0.002405806081755 1
force Ru   0.001207959420316   0.004285764038772   0.000913330886192 1
force Ru  -0.001808560137151   0.003812973710538  -0.003197766052048 1
force O  -0.003608524638210   0.005593627169198   0.003707273265861 1

# Energy components:
   Eewald =    -2988.9870053600807296
       EH =      500.2032595762235019
     Eloc =    -2241.5276417662953463
      Enl =      646.4377071174203593
      Exc =     -468.1855896580867693
 Exc_core =       74.7495216687139248
       KE =     1039.8021700982080802
-------------------------------------
     Etot =    -3437.5075783238971781
       TS =        0.2985818375734181
-------------------------------------
        F =    -3437.8061601614704159

IonicMinimize: Iter:  19  F: -3437.806160161470416  |grad|_K:  1.938e-04  alpha:  1.000e+00  linmin:  1.165e-01  t[s]:  35900.12

#--- Lowdin population analysis ---
# oxidation-state Ru +0.014 +0.045 +0.046 +0.014 +0.022 +0.046 +0.011 +0.014 +0.022 +0.022 +0.011 +0.023 +0.014 +0.011 +0.046 +0.022 +0.014 +0.046 +0.046 +0.014 +0.023 +0.011 +0.021 +0.022 +0.023 +0.011 +0.021 +0.022 +0.022 +0.022 +0.011 +0.023 +0.023 +0.022 +0.021 +0.023
# oxidation-state O -0.034


-------- Electronic minimization -----------
Will mix electronic density at each iteration.
	FillingsUpdate:  mu: +0.893602068  nElectrons: 582.000000
	FillingsUpdate:  mu: +0.893600888  nElectrons: 582.000000
SCF: Cycle:  0   F: -3437.806054253665025   dF: +8.930e-05   |Residual|: 2.901e-03   |deigs|: 3.187e-07  t[s]:  36041.81
	FillingsUpdate:  mu: +0.893604599  nElectrons: 582.000000
SCF: Cycle:  1   F: -3437.805567003450506   dF: +4.873e-04   |Residual|: 8.645e-03   |deigs|: 2.953e-05  t[s]:  36131.05
	FillingsUpdate:  mu: +0.893601593  nElectrons: 582.000000
SCF: Cycle:  2   F: -3437.806166217866576   dF: -5.992e-04   |Residual|: 5.208e-04   |deigs|: 2.402e-05  t[s]:  36216.33
	FillingsUpdate:  mu: +0.893602369  nElectrons: 582.000000
SCF: Cycle:  3   F: -3437.806162681396927   dF: +3.536e-06   |Residual|: 9.635e-04   |deigs|: 5.362e-06  t[s]:  36295.72
	FillingsUpdate:  mu: +0.893601704  nElectrons: 582.000000
SCF: Cycle:  4   F: -3437.806167612608988   dF: -4.931e-06   |Residual|: 1.342e-04   |deigs|: 3.640e-06  t[s]:  36374.23
	FillingsUpdate:  mu: +0.893601933  nElectrons: 582.000000
SCF: Cycle:  5   F: -3437.806167565941450   dF: +4.667e-08   |Residual|: 1.216e-04   |deigs|: 1.393e-06  t[s]:  36463.25
	FillingsUpdate:  mu: +0.893601819  nElectrons: 582.000000
SCF: Cycle:  6   F: -3437.806167597052536   dF: -3.111e-08   |Residual|: 8.368e-05   |deigs|: 6.522e-07  t[s]:  36543.45
	FillingsUpdate:  mu: +0.893601827  nElectrons: 582.000000
SCF: Cycle:  7   F: -3437.806167640055719   dF: -4.300e-08   |Residual|: 1.540e-05   |deigs|: 6.236e-07  t[s]:  36622.09
	FillingsUpdate:  mu: +0.893601809  nElectrons: 582.000000
SCF: Cycle:  8   F: -3437.806167639501837   dF: +5.539e-10   |Residual|: 1.618e-05   |deigs|: 9.728e-08  t[s]:  36699.59
	FillingsUpdate:  mu: +0.893601813  nElectrons: 582.000000
SCF: Cycle:  9   F: -3437.806167640909734   dF: -1.408e-09   |Residual|: 3.359e-06   |deigs|: 6.071e-08  t[s]:  36777.45
	FillingsUpdate:  mu: +0.893601811  nElectrons: 582.000000
SCF: Cycle: 10   F: -3437.806167640890635   dF: +1.910e-11   |Residual|: 3.949e-06   |deigs|: 3.085e-08  t[s]:  36829.60
	FillingsUpdate:  mu: +0.893601815  nElectrons: 582.000000
SCF: Cycle: 11   F: -3437.806167641229877   dF: -3.392e-10   |Residual|: 5.712e-07   |deigs|: 2.216e-08  t[s]:  36879.71
	FillingsUpdate:  mu: +0.893601815  nElectrons: 582.000000
SCF: Cycle: 12   F: -3437.806167640821059   dF: +4.088e-10   |Residual|: 7.120e-07   |deigs|: 1.155e-08  t[s]:  36929.52
	FillingsUpdate:  mu: +0.893601816  nElectrons: 582.000000
SCF: Cycle: 13   F: -3437.806167641043885   dF: -2.228e-10   |Residual|: 2.864e-07   |deigs|: 1.066e-08  t[s]:  36979.89
	FillingsUpdate:  mu: +0.893601816  nElectrons: 582.000000
SCF: Cycle: 14   F: -3437.806167640931108   dF: +1.128e-10   |Residual|: 1.697e-07   |deigs|: 1.095e-08  t[s]:  37027.78
	FillingsUpdate:  mu: +0.893601816  nElectrons: 582.000000
SCF: Cycle: 15   F: -3437.806167641106640   dF: -1.755e-10   |Residual|: 5.815e-08   |deigs|: 1.175e-08  t[s]:  37078.23
	FillingsUpdate:  mu: +0.893601816  nElectrons: 582.000000
SCF: Cycle: 16   F: -3437.806167641037518   dF: +6.912e-11   |Residual|: 4.060e-08   |deigs|: 1.416e-08  t[s]:  37125.45
SCF: Converged (|Residual|<1.000000e-07 for 2 iters).

Setting wave functions to eigenvectors of Hamiltonian

# Ionic positions in lattice coordinates:
ion Ru   0.110982705745386   0.223649062096852   0.125467138679314 1
ion Ru   0.213840419082956   0.093898222112813   0.369087738191210 1
ion Ru   0.093050231474631   0.214782199172630   0.634657735952506 1
ion Ru   0.222793632716869   0.111915132338558   0.878338003827499 1
ion Ru   0.110968633083998   0.558365584449148   0.123624746801208 1
ion Ru   0.213739751540046   0.455620109574242   0.369240366382846 1
ion Ru   0.110171119555957   0.559158546292893   0.628931098207204 1
ion Ru   0.222736322325865   0.446635105909875   0.878515545474196 1
ion Ru   0.110992579470095   0.888871071885760   0.123507119875870 1
ion Ru   0.222279504000401   0.779083714061003   0.376700409790286 1
ion Ru   0.110245406678415   0.887428635789710   0.628935669110411 1
ion Ru   0.223481067402983   0.779604383584749   0.876853181038293 1
ion Ru   0.445733127859371   0.223591210697164   0.125328661153494 1
ion Ru   0.558284320842368   0.111082595098694   0.374924739800776 1
ion Ru   0.454810349491271   0.214580295306631   0.634617668442839 1
ion Ru   0.557466683316685   0.111863334809487   0.880239810457062 1
ion Ru   0.445688094206018   0.558345328996503   0.125511379299988 1
ion Ru   0.575346492638730   0.455442144950640   0.369200391998458 1
ion Ru   0.454606186872241   0.576315254335149   0.634674522517817 1
ion Ru   0.557417439096612   0.446549729157296   0.878361389398819 1
ion Ru   0.445004240672239   0.890639715706872   0.127058176433257 1
ion Ru   0.558241500418981   0.782854623211877   0.374915151333935 1
ion Ru   0.446229924824211   0.891186283701397   0.627176280892623 1
ion Ru   0.557426983133780   0.781305331344780   0.880328804193443 1
ion Ru   0.778691444755593   0.224339351535301   0.127036368275029 1
ion Ru   0.886507830841361   0.111127834279855   0.374858346711817 1
ion Ru   0.778142565964625   0.223119729397644   0.627181911194536 1
ion Ru   0.887983147570375   0.111895167834404   0.880317373499463 1
ion Ru   0.780397332608171   0.558289190852764   0.123547421066603 1
ion Ru   0.890272844741706   0.447078422896117   0.376681802127974 1
ion Ru   0.781922406057387   0.559070741858235   0.628976360130186 1
ion Ru   0.889707731809017   0.445850600990314   0.876845982695866 1
ion Ru   0.778716864042402   0.890599653144437   0.127085036660608 1
ion Ru   0.890314815561797   0.779003803760274   0.376750677130626 1
ion Ru   0.778114355693520   0.891210179332101   0.627087702550381 1
ion Ru   0.889668203487900   0.779586860538507   0.876774555850433 1
ion O   0.334163740416037   0.335040848995326   0.502050732853125 1

# Forces in Lattice coordinates:
force Ru   0.000736159768752  -0.000191720273958   0.000867204066729 1
force Ru   0.000345118473672   0.002295363333743   0.002954644341329 1
force Ru  -0.001997516601025  -0.000349814153427   0.000519569621349 1
force Ru  -0.001035408551396  -0.000255976736860   0.000177972601412 1
force Ru   0.000282835947974  -0.000361181107110  -0.000018591460753 1
force Ru  -0.001124606037247   0.000936974914070  -0.000570553842914 1
force Ru  -0.000241216852302   0.000604751143706   0.000561541043157 1
force Ru  -0.000749270860924   0.000023866673632   0.000558289142969 1
force Ru   0.000198766832239   0.000175580156283   0.000128732289152 1
force Ru  -0.000647248140004  -0.000495151350124   0.000560111060076 1
force Ru  -0.000035298518266  -0.000275892993290   0.001667330817504 1
force Ru  -0.001228472508505   0.000588919564251  -0.000192946715082 1
force Ru  -0.000578450628960   0.000460053392846   0.000377994108502 1
force Ru  -0.000171295011359  -0.000275395325064  -0.000087774956445 1
force Ru  -0.001324630510343   0.000339828533676  -0.000580164990027 1
force Ru   0.000438233589133  -0.000736025936105   0.000781622562192 1
force Ru  -0.000049026576937  -0.000557561612509   0.000351781733767 1
force Ru   0.000308857361313  -0.000243950660658  -0.000195634134979 1
force Ru  -0.000595717705930  -0.000107686586318  -0.001241827509462 1
force Ru   0.000069038442195   0.000249765815119   0.000001197307799 1
force Ru   0.000024434585282  -0.000873736626511  -0.001181070978414 1
force Ru  -0.000117568439725  -0.001188386897870  -0.000872415293626 1
force Ru  -0.000518320657520  -0.000854546116551  -0.000088781517795 1
force Ru  -0.000447964669044   0.000451298682849  -0.000222645170348 1
force Ru   0.000777666173451  -0.000248642707329  -0.000514919216398 1
force Ru   0.001011913642060  -0.000357386575809   0.000878236198431 1
force Ru   0.002057368937331  -0.000455706975981  -0.000640751259572 1
force Ru   0.001117424408627  -0.000331565387455  -0.000413011618521 1
force Ru   0.000042612088110   0.000104534091199   0.000387947992067 1
force Ru  -0.000314166393957   0.000400292818397   0.001015082527092 1
force Ru  -0.000248440586354   0.000948593922965   0.000017441984239 1
force Ru   0.000317742631617   0.000671351966070   0.000468646558298 1
force Ru   0.000371742984439  -0.000403933676576   0.000065029464508 1
force Ru   0.000404847176814  -0.000906428297338   0.000678330571080 1
force Ru   0.000667884356773   0.000251120408055   0.000663065740289 1
force Ru   0.001253625483838   0.000124214683926   0.000040177820508 1
force O   0.001102987987286  -0.000738576551081  -0.000949101299287 1

# Energy components:
   Eewald =    -2988.9887128592918089
       EH =      500.2020898804715898
     Eloc =    -2241.5247682793756212
      Enl =      646.4375244717352871
      Exc =     -468.1855750692424181
 Exc_core =       74.7495217173218833
       KE =     1039.8023474790268210
-------------------------------------
     Etot =    -3437.5075726593540821
       TS =        0.2985949816834923
-------------------------------------
        F =    -3437.8061676410375185

IonicMinimize: Iter:  20  F: -3437.806167641037518  |grad|_K:  5.132e-05  alpha:  1.000e+00  linmin: -2.175e-02  t[s]:  37143.14
IonicMinimize: Converged (|grad|_K<1.000000e-04).

#--- Lowdin population analysis ---
# oxidation-state Ru +0.014 +0.046 +0.046 +0.014 +0.022 +0.046 +0.011 +0.014 +0.022 +0.022 +0.011 +0.023 +0.014 +0.011 +0.046 +0.022 +0.014 +0.046 +0.046 +0.014 +0.023 +0.011 +0.021 +0.022 +0.023 +0.011 +0.021 +0.022 +0.022 +0.022 +0.011 +0.023 +0.023 +0.021 +0.021 +0.023
# oxidation-state O -0.035


Dumping '/data/rc652/Ru/oct/Ru_oct.Ecomponents' ... done
End date and time: Sat Jul 13 01:59:40 2024  (Duration: 0-10:19:16.02)
Done!
