--------------------------------------------------------------------------
Initialization of PSM library failed.

  Error: PSM is in the finalized state
--------------------------------------------------------------------------

*************** JDFTx 1.7.0 (git hash 3664913) ***************

Start date and time: Fri Jul 12 15:41:43 2024
Executable jdftx with command-line: -i Ru_tet.in
Running on hosts (process indices):  node3104.physics.cornell.edu (0-15)
Divided in process groups (process indices):  0 (0)  1 (1)  2 (2)  3 (3)  4 (4)  5 (5)  6 (6)  7 (7)  8 (8)  9 (9)  10 (10)  11 (11)  12 (12)  13 (13)  14 (14)  15 (15)
Resource initialization completed at t[s]:      0.00
Run totals: 16 processes, 32 threads, 0 GPUs


Input parsed successfully to the following command list (including defaults):

basis kpoint-dependent
coords-type Lattice
core-overlap-check vector
coulomb-interaction Periodic
davidson-band-ratio 1.1
dump End Ecomponents
dump-name /data/rc652/Ru/tet/Ru_tet.$VAR
elec-cutoff 20 100
elec-eigen-algo Davidson
elec-ex-corr gga-PBEsol
elec-smearing Fermi 0.01
electronic-minimize  \
	dirUpdateScheme      FletcherReeves \
	linminMethod         DirUpdateRecommended \
	nIterations          100 \
	history              15 \
	knormThreshold       0 \
	maxThreshold         no \
	energyDiffThreshold  1e-08 \
	nEnergyDiff          2 \
	alphaTstart          1 \
	alphaTmin            1e-10 \
	updateTestStepSize   yes \
	alphaTreduceFactor   0.1 \
	alphaTincreaseFactor 3 \
	nAlphaAdjustMax      3 \
	wolfeEnergy          0.0001 \
	wolfeGradient        0.9 \
	fdTest               no
electronic-scf  \
	nIterations	50 \
	energyDiffThreshold	1e-08 \
	residualThreshold	1e-07 \
	mixFraction	0.5 \
	qMetric	0.8 \
	history	10 \
	nEigSteps	2 \
	eigDiffThreshold	1e-08 \
	mixedVariable	Density \
	qKerker	0.8 \
	qKappa	-1 \
	verbose	no \
	mixFractionMag	1.5
exchange-regularization WignerSeitzTruncated
fluid None
fluid-ex-corr lda-TF lda-PZ
fluid-gummel-loop 10 1.000000e-05
fluid-minimize  \
	dirUpdateScheme      PolakRibiere \
	linminMethod         DirUpdateRecommended \
	nIterations          100 \
	history              15 \
	knormThreshold       0 \
	maxThreshold         no \
	energyDiffThreshold  0 \
	nEnergyDiff          2 \
	alphaTstart          1 \
	alphaTmin            1e-10 \
	updateTestStepSize   yes \
	alphaTreduceFactor   0.1 \
	alphaTincreaseFactor 3 \
	nAlphaAdjustMax      3 \
	wolfeEnergy          0.0001 \
	wolfeGradient        0.9 \
	fdTest               no
fluid-solvent H2O 55.338 ScalarEOS \
	epsBulk 78.4 \
	pMol 0.92466 \
	epsInf 1.77 \
	Pvap 1.06736e-10 \
	sigmaBulk 4.62e-05 \
	Rvdw 2.61727 \
	Res 1.42 \
	tauNuc 343133 \
	poleEl 15 7 1
forces-output-coords Positions
ion Ru   0.124450000000000   0.224420000000000   0.140270000000000 1
ion Ru   0.222890000000000   0.094510000000000   0.383880000000000 1
ion Ru   0.112990000000000   0.215870000000000   0.608960000000000 1
ion Ru   0.217290000000000   0.110690000000000   0.874030000000000 1
ion Ru   0.104580000000000   0.544410000000000   0.125070000000000 1
ion Ru   0.230370000000000   0.428120000000000   0.365350000000000 1
ion Ru   0.121540000000000   0.564850000000000   0.625620000000000 1
ion Ru   0.224930000000000   0.449230000000000   0.862470000000000 1
ion Ru   0.103520000000000   0.897200000000000   0.122730000000000 1
ion Ru   0.203990000000000   0.783400000000000   0.367580000000000 1
ion Ru   0.118490000000000   0.887300000000000   0.648160000000000 1
ion Ru   0.226440000000000   0.776480000000000   0.867460000000000 1
ion Ru   0.439890000000000   0.242490000000000   0.137180000000000 1
ion Ru   0.548170000000000   0.114060000000000   0.379230000000000 1
ion Ru   0.435550000000000   0.229600000000000   0.619090000000000 1
ion Ru   0.559520000000000   0.110250000000000   0.890120000000000 1
ion Ru   0.456430000000000   0.544910000000000   0.132260000000000 1
ion Ru   0.572840000000000   0.447160000000000   0.356910000000000 1
ion Ru   0.452970000000000   0.549920000000000   0.619900000000000 1
ion Ru   0.558530000000000   0.436410000000000   0.882850000000000 1
ion Ru   0.443330000000000   0.887300000000000   0.117110000000000 1
ion Ru   0.547970000000000   0.770780000000000   0.363990000000000 1
ion Ru   0.450890000000000   0.881860000000000   0.622790000000000 1
ion Ru   0.546720000000000   0.789070000000000   0.862510000000000 1
ion Ru   0.779720000000000   0.226100000000000   0.114440000000000 1
ion Ru   0.887030000000000   0.112120000000000   0.382880000000000 1
ion Ru   0.787320000000000   0.218450000000000   0.615290000000000 1
ion Ru   0.889360000000000   0.123060000000000   0.890840000000000 1
ion Ru   0.778310000000000   0.557730000000000   0.116690000000000 1
ion Ru   0.875750000000000   0.442000000000000   0.388940000000000 1
ion Ru   0.767820000000000   0.560330000000000   0.641690000000000 1
ion Ru   0.895320000000000   0.449310000000000   0.881160000000000 1
ion Ru   0.771490000000000   0.897380000000000   0.135170000000000 1
ion Ru   0.901830000000000   0.772400000000000   0.383810000000000 1
ion Ru   0.775450000000000   0.890700000000000   0.628330000000000 1
ion Ru   0.902450000000000   0.789110000000000   0.866630000000000 1
ion O   0.150000000000000   0.900000000000000   0.450000000000000 1
ion-species GBRV/$ID_pbesol.uspp
ion-width 0
ionic-minimize  \
	dirUpdateScheme      L-BFGS \
	linminMethod         DirUpdateRecommended \
	nIterations          30 \
	history              15 \
	knormThreshold       0.0001 \
	maxThreshold         no \
	energyDiffThreshold  1e-06 \
	nEnergyDiff          2 \
	alphaTstart          1 \
	alphaTmin            1e-10 \
	updateTestStepSize   yes \
	alphaTreduceFactor   0.1 \
	alphaTincreaseFactor 3 \
	nAlphaAdjustMax      3 \
	wolfeEnergy          0.0001 \
	wolfeGradient        0.9 \
	fdTest               no
kpoint   0.500000000000   0.500000000000   0.500000000000  1.00000000000000
kpoint-folding 3 3 4 
latt-move-scale 1 1 1
latt-scale 1 1 1 
lattice  \
	   7.637106636022303    7.637106636022303    0.000000000000000  \
	 -13.227856220128549   13.227856220128549    0.000000000000000  \
	   0.000000000000000   -0.000000000000000   16.101058041412667 
lattice-minimize  \
	dirUpdateScheme      L-BFGS \
	linminMethod         DirUpdateRecommended \
	nIterations          0 \
	history              15 \
	knormThreshold       0 \
	maxThreshold         no \
	energyDiffThreshold  1e-06 \
	nEnergyDiff          2 \
	alphaTstart          1 \
	alphaTmin            1e-10 \
	updateTestStepSize   yes \
	alphaTreduceFactor   0.1 \
	alphaTincreaseFactor 3 \
	nAlphaAdjustMax      3 \
	wolfeEnergy          0.0001 \
	wolfeGradient        0.9 \
	fdTest               no
lcao-params -1 1e-06 0.01
pcm-variant GLSSA13
perturb-minimize  \
	nIterations            0 \
	algorithm              MINRES \
	residualTol            0.0001 \
	residualDiffThreshold  0.0001 \
	CGBypass               no \
	recomputeResidual      no
spintype no-spin
subspace-rotation-factor 1 yes
symmetries automatic
symmetry-threshold 0.0001



---------- Setting up symmetries ----------

Found 24 point-group symmetries of the bravais lattice
Found 1 space-group symmetries with basis
Applied RMS atom displacement 0 bohrs to make symmetries exact.

---------- Initializing the Grid ----------
R = 
[      7.63711      7.63711            0  ]
[     -13.2279      13.2279            0  ]
[            0            0      16.1011  ]
unit cell volume = 3253.14
G =
[   0.411359  -0.237498          0  ]
[   0.411359   0.237498         -0  ]
[          0          0   0.390234  ]
Minimum fftbox size, Smin = [  72  72  76  ]
Chosen fftbox size, S = [  72  72  80  ]

---------- Initializing tighter grid for wavefunction operations ----------
R = 
[      7.63711      7.63711            0  ]
[     -13.2279      13.2279            0  ]
[            0            0      16.1011  ]
unit cell volume = 3253.14
G =
[   0.411359  -0.237498          0  ]
[   0.411359   0.237498         -0  ]
[          0          0   0.390234  ]
Minimum fftbox size, Smin = [  64  64  68  ]
Chosen fftbox size, S = [  64  64  70  ]

---------- Exchange Correlation functional ----------
Initalized PBEsol GGA exchange.
Initalized PBEsol GGA correlation.

---------- Setting up pseudopotentials ----------
Width of ionic core gaussian charges (only for fluid interactions / plotting) set to 0

Reading pseudopotential file '/home/rc652/build/pseudopotentials/GBRV/ru_pbesol.uspp':
  Title: Ru.  Created by USPP 7.3.6 on 3-2-2014
  Reference state energy: -96.377317.  16 valence electrons in orbitals:
    |400>  occupation: 2  eigenvalue: -3.215115
    |410>  occupation: 6  eigenvalue: -2.110081
    |420>  occupation: 6  eigenvalue: -0.566695
    |500>  occupation: 1  eigenvalue: -0.433966
    |510>  occupation: 0  eigenvalue: -0.255949
  lMax: 2  lLocal: 3  QijEcut: 6
  6 projectors sampled on a log grid with 713 points:
    l: 0  eig: -0.433966  rCut: 1.5
    l: 0  eig: -3.215115  rCut: 1.5
    l: 1  eig: -2.110081  rCut: 1.6
    l: 1  eig: -0.255949  rCut: 1.6
    l: 2  eig: -0.566695  rCut: 1.75
    l: 2  eig: 0.000000  rCut: 1.75
  Partial core density with radius 1.1
  Transforming core density to a uniform radial grid of dG=0.02 with 1679 points.
  Transforming local potential to a uniform radial grid of dG=0.02 with 1679 points.
  Transforming nonlocal projectors to a uniform radial grid of dG=0.02 with 432 points.
  Transforming density augmentations to a uniform radial grid of dG=0.02 with 1679 points.
  Transforming atomic orbitals to a uniform radial grid of dG=0.02 with 432 points.
  Core radius for overlap checks: 1.75 bohrs.

Reading pseudopotential file '/home/rc652/build/pseudopotentials/GBRV/o_pbesol.uspp':
  Title: O.  Created by USPP 7.3.6 on 3-2-2014
  Reference state energy: -15.849885.  6 valence electrons in orbitals:
    |200>  occupation: 2  eigenvalue: -0.873214
    |210>  occupation: 4  eigenvalue: -0.330058
  lMax: 2  lLocal: 2  QijEcut: 6
  5 projectors sampled on a log grid with 511 points:
    l: 0  eig: -0.873214  rCut: 1.25
    l: 0  eig: 0.000000  rCut: 1.25
    l: 1  eig: -0.330058  rCut: 1.25
    l: 1  eig: 0.000000  rCut: 1.25
    l: 2  eig: 1.000000  rCut: 1.25
  Partial core density with radius 0.7
  Transforming core density to a uniform radial grid of dG=0.02 with 1679 points.
  Transforming local potential to a uniform radial grid of dG=0.02 with 1679 points.
  Transforming nonlocal projectors to a uniform radial grid of dG=0.02 with 432 points.
  Transforming density augmentations to a uniform radial grid of dG=0.02 with 1679 points.
  Transforming atomic orbitals to a uniform radial grid of dG=0.02 with 432 points.
  Core radius for overlap checks: 1.25 bohrs.

Initialized 2 species with 37 total atoms.

Folded 1 k-points by 3x3x4 to 36 k-points.

---------- Setting up k-points, bands, fillings ----------
Adding inversion symmetry to k-mesh for non-inversion-symmetric unit cell.
Reduced to 18 k-points under symmetry. 
Computing the number of bands and number of electrons
Calculating initial fillings.
nElectrons: 582.000000   nBands: 472   nStates: 18

----- Setting up reduced wavefunction bases (one per k-point) -----
average nbasis = 13898.778 , ideal nbasis = 13897.661

---------- Setting up ewald sum ----------
Optimum gaussian width for ewald sums = 3.238252 bohr.
Real space sum over 567 unit cells with max indices [  4  4  3  ]
Reciprocal space sum over 6859 terms with max indices [  9  9  9  ]

---------- Allocating electronic variables ----------
Initializing wave functions:  linear combination of atomic orbitals
Ru pseudo-atom occupations:   s ( 2 0 )  p ( 6 0 )  d ( 8 )
O pseudo-atom occupations:   s ( 2 )  p ( 4 )
	FillingsUpdate:  mu: +0.828548427  nElectrons: 582.000000
LCAOMinimize: Iter:   0  F: -3430.4719398339061627  |grad|_K:  2.240e-03  alpha:  1.000e+00
	FillingsUpdate:  mu: +0.863774090  nElectrons: 582.000000
LCAOMinimize: Iter:   1  F: -3432.9630821607815960  |grad|_K:  2.743e-03  alpha:  2.136e-01  linmin: -1.996e-02  cgtest:  7.860e-02  t[s]:    101.25
	FillingsUpdate:  mu: +0.904595064  nElectrons: 582.000000
LCAOMinimize: Iter:   2  F: -3435.2561885148302281  |grad|_K:  1.764e-03  alpha:  1.222e-01  linmin: -1.535e-02  cgtest:  8.017e-03  t[s]:    134.54
	FillingsUpdate:  mu: +0.906662957  nElectrons: 582.000000
LCAOMinimize: Iter:   3  F: -3435.8096082454690077  |grad|_K:  7.589e-04  alpha:  7.910e-02  linmin: -2.406e-03  cgtest: -9.645e-02  t[s]:    167.13
	FillingsUpdate:  mu: +0.912795430  nElectrons: 582.000000
LCAOMinimize: Iter:   4  F: -3435.9136127623519315  |grad|_K:  4.770e-04  alpha:  8.929e-02  linmin:  5.013e-03  cgtest:  3.994e-02  t[s]:    199.37
	FillingsUpdate:  mu: +0.916606313  nElectrons: 582.000000
LCAOMinimize: Iter:   5  F: -3435.9820742727056313  |grad|_K:  2.959e-04  alpha:  1.515e-01  linmin:  1.253e-03  cgtest:  4.771e-02  t[s]:    233.34
	FillingsUpdate:  mu: +0.917210985  nElectrons: 582.000000
LCAOMinimize: Iter:   6  F: -3435.9920574964653497  |grad|_K:  1.368e-04  alpha:  5.640e-02  linmin: -2.725e-03  cgtest:  7.492e-03  t[s]:    266.13
	FillingsUpdate:  mu: +0.917507294  nElectrons: 582.000000
LCAOMinimize: Iter:   7  F: -3435.9950755185313938  |grad|_K:  4.799e-05  alpha:  7.963e-02  linmin: -6.754e-04  cgtest: -2.267e-02  t[s]:    300.62
	FillingsUpdate:  mu: +0.917378006  nElectrons: 582.000000
LCAOMinimize: Iter:   8  F: -3435.9957971979210924  |grad|_K:  4.983e-05  alpha:  1.555e-01  linmin: -8.840e-05  cgtest:  5.062e-04  t[s]:    333.27
	FillingsUpdate:  mu: +0.917151921  nElectrons: 582.000000
LCAOMinimize: Iter:   9  F: -3435.9963187359667245  |grad|_K:  3.052e-05  alpha:  1.043e-01  linmin: -3.110e-06  cgtest: -1.092e-03  t[s]:    366.64
	FillingsUpdate:  mu: +0.917106478  nElectrons: 582.000000
LCAOMinimize: Iter:  10  F: -3435.9964642928994181  |grad|_K:  1.921e-05  alpha:  7.761e-02  linmin: -8.200e-06  cgtest: -1.773e-04  t[s]:    400.85
	FillingsUpdate:  mu: +0.917063521  nElectrons: 582.000000
LCAOMinimize: Iter:  11  F: -3435.9965291201247055  |grad|_K:  1.086e-05  alpha:  8.723e-02  linmin: -4.540e-05  cgtest:  3.739e-05  t[s]:    434.32
	FillingsUpdate:  mu: +0.917005158  nElectrons: 582.000000
LCAOMinimize: Iter:  12  F: -3435.9965673982324006  |grad|_K:  7.025e-06  alpha:  1.612e-01  linmin:  6.903e-05  cgtest: -7.039e-04  t[s]:    466.77
	FillingsUpdate:  mu: +0.917002804  nElectrons: 582.000000
LCAOMinimize: Iter:  13  F: -3435.9965745489616893  |grad|_K:  4.029e-06  alpha:  7.197e-02  linmin: -1.743e-07  cgtest:  8.677e-04  t[s]:    499.40
	FillingsUpdate:  mu: +0.916995954  nElectrons: 582.000000
LCAOMinimize: Iter:  14  F: -3435.9965771543493247  |grad|_K:  2.369e-06  alpha:  7.973e-02  linmin:  3.680e-05  cgtest: -1.986e-04  t[s]:    532.89
	FillingsUpdate:  mu: +0.916991931  nElectrons: 582.000000
LCAOMinimize: Iter:  15  F: -3435.9965789775219491  |grad|_K:  2.686e-06  alpha:  1.614e-01  linmin:  8.513e-05  cgtest: -3.446e-04  t[s]:    567.09
	FillingsUpdate:  mu: +0.916987490  nElectrons: 582.000000
LCAOMinimize: Iter:  16  F: -3435.9965809223440374  |grad|_K:  1.294e-06  alpha:  1.339e-01  linmin: -2.043e-05  cgtest:  1.962e-03  t[s]:    601.17
	FillingsUpdate:  mu: +0.916985114  nElectrons: 582.000000
LCAOMinimize: Iter:  17  F: -3435.9965811748438682  |grad|_K:  8.479e-07  alpha:  7.480e-02  linmin: -8.782e-06  cgtest: -1.755e-04  t[s]:    633.75
	FillingsUpdate:  mu: +0.916985987  nElectrons: 582.000000
LCAOMinimize: Iter:  18  F: -3435.9965812955169895  |grad|_K:  5.296e-07  alpha:  8.306e-02  linmin: -1.454e-03  cgtest:  7.113e-03  t[s]:    665.85
LCAOMinimize: Converged (|Delta F|<1.000000e-06 for 2 iters).


---- Citations for features of the code used in this run ----

   Software package:
      R. Sundararaman, K. Letchworth-Weaver, K.A. Schwarz, D. Gunceler, Y. Ozhabes and T.A. Arias, 'JDFTx: software for joint density-functional theory', SoftwareX 6, 278 (2017)

   gga-PBEsol exchange-correlation functional:
      J.P. Perdew et al., Phys. Rev. Lett. 100, 136406 (2008)

   Pseudopotentials:
      KF Garrity, JW Bennett, KM Rabe and D Vanderbilt, Comput. Mater. Sci. 81, 446 (2014)

This list may not be complete. Please suggest additional citations or
report any other bugs at https://github.com/shankar1729/jdftx/issues

Initialization completed successfully at t[s]:    682.03


-------- Electronic minimization -----------
Will mix electronic density at each iteration.
	FillingsUpdate:  mu: +0.916985987  nElectrons: 582.000000
	FillingsUpdate:  mu: +0.912613657  nElectrons: 582.000000
SCF: Cycle:  0   F: -3436.880662400839810   dF: -8.841e-01   |Residual|: 4.917e-01   |deigs|: 8.212e-02  t[s]:    838.90
	FillingsUpdate:  mu: +0.896349934  nElectrons: 582.000000
SCF: Cycle:  1   F: -3437.114568120561216   dF: -2.339e-01   |Residual|: 1.672e-01   |deigs|: 1.844e-02  t[s]:    974.65
	FillingsUpdate:  mu: +0.895722967  nElectrons: 582.000000
SCF: Cycle:  2   F: -3436.964740305211308   dF: +1.498e-01   |Residual|: 1.703e-01   |deigs|: 5.083e-03  t[s]:   1117.98
	FillingsUpdate:  mu: +0.895193952  nElectrons: 582.000000
SCF: Cycle:  3   F: -3437.136250415429458   dF: -1.715e-01   |Residual|: 7.520e-02   |deigs|: 3.896e-03  t[s]:   1258.87
	FillingsUpdate:  mu: +0.895238533  nElectrons: 582.000000
SCF: Cycle:  4   F: -3437.144807848246728   dF: -8.557e-03   |Residual|: 6.460e-02   |deigs|: 6.614e-04  t[s]:   1374.32
	FillingsUpdate:  mu: +0.895229332  nElectrons: 582.000000
SCF: Cycle:  5   F: -3437.165308390684913   dF: -2.050e-02   |Residual|: 1.482e-02   |deigs|: 5.564e-04  t[s]:   1456.13
	FillingsUpdate:  mu: +0.895202314  nElectrons: 582.000000
SCF: Cycle:  6   F: -3437.164968952963136   dF: +3.394e-04   |Residual|: 1.414e-02   |deigs|: 1.667e-04  t[s]:   1533.78
	FillingsUpdate:  mu: +0.895195288  nElectrons: 582.000000
SCF: Cycle:  7   F: -3437.165944783495888   dF: -9.758e-04   |Residual|: 2.724e-03   |deigs|: 1.098e-04  t[s]:   1613.76
	FillingsUpdate:  mu: +0.895185800  nElectrons: 582.000000
SCF: Cycle:  8   F: -3437.165916840994214   dF: +2.794e-05   |Residual|: 3.180e-03   |deigs|: 3.820e-05  t[s]:   1697.20
	FillingsUpdate:  mu: +0.895183097  nElectrons: 582.000000
SCF: Cycle:  9   F: -3437.165968289779812   dF: -5.145e-05   |Residual|: 5.556e-04   |deigs|: 2.664e-05  t[s]:   1780.13
	FillingsUpdate:  mu: +0.895184999  nElectrons: 582.000000
SCF: Cycle: 10   F: -3437.165967995336814   dF: +2.944e-07   |Residual|: 5.488e-04   |deigs|: 6.953e-06  t[s]:   1856.67
	FillingsUpdate:  mu: +0.895185292  nElectrons: 582.000000
SCF: Cycle: 11   F: -3437.165969317883992   dF: -1.323e-06   |Residual|: 1.464e-04   |deigs|: 4.348e-06  t[s]:   1937.77
	FillingsUpdate:  mu: +0.895185411  nElectrons: 582.000000
SCF: Cycle: 12   F: -3437.165969141445203   dF: +1.764e-07   |Residual|: 2.075e-04   |deigs|: 1.687e-06  t[s]:   2014.40
	FillingsUpdate:  mu: +0.895185412  nElectrons: 582.000000
SCF: Cycle: 13   F: -3437.165969388754093   dF: -2.473e-07   |Residual|: 3.243e-05   |deigs|: 1.314e-06  t[s]:   2099.27
	FillingsUpdate:  mu: +0.895185416  nElectrons: 582.000000
SCF: Cycle: 14   F: -3437.165969380394017   dF: +8.360e-09   |Residual|: 4.351e-05   |deigs|: 7.690e-07  t[s]:   2181.90
	FillingsUpdate:  mu: +0.895185371  nElectrons: 582.000000
SCF: Cycle: 15   F: -3437.165969391051021   dF: -1.066e-08   |Residual|: 2.094e-05   |deigs|: 5.522e-07  t[s]:   2260.11
	FillingsUpdate:  mu: +0.895185395  nElectrons: 582.000000
SCF: Cycle: 16   F: -3437.165969393499836   dF: -2.449e-09   |Residual|: 1.005e-05   |deigs|: 3.255e-07  t[s]:   2341.77
	FillingsUpdate:  mu: +0.895185384  nElectrons: 582.000000
SCF: Cycle: 17   F: -3437.165969393947307   dF: -4.475e-10   |Residual|: 6.067e-06   |deigs|: 2.092e-07  t[s]:   2414.07
SCF: Converged (|Delta E|<1.000000e-08 for 2 iters).

Setting wave functions to eigenvectors of Hamiltonian

# Ionic positions in lattice coordinates:
ion Ru   0.124450000000000   0.224420000000000   0.140270000000000 1
ion Ru   0.222890000000000   0.094510000000000   0.383880000000000 1
ion Ru   0.112990000000000   0.215870000000000   0.608960000000000 1
ion Ru   0.217290000000000   0.110690000000000   0.874030000000000 1
ion Ru   0.104580000000000   0.544410000000000   0.125070000000000 1
ion Ru   0.230370000000000   0.428120000000000   0.365350000000000 1
ion Ru   0.121540000000000   0.564850000000000   0.625620000000000 1
ion Ru   0.224930000000000   0.449230000000000   0.862470000000000 1
ion Ru   0.103520000000000   0.897200000000000   0.122730000000000 1
ion Ru   0.203990000000000   0.783400000000000   0.367580000000000 1
ion Ru   0.118490000000000   0.887300000000000   0.648160000000000 1
ion Ru   0.226440000000000   0.776480000000000   0.867460000000000 1
ion Ru   0.439890000000000   0.242490000000000   0.137180000000000 1
ion Ru   0.548170000000000   0.114060000000000   0.379230000000000 1
ion Ru   0.435550000000000   0.229600000000000   0.619090000000000 1
ion Ru   0.559520000000000   0.110250000000000   0.890120000000000 1
ion Ru   0.456430000000000   0.544910000000000   0.132260000000000 1
ion Ru   0.572840000000000   0.447160000000000   0.356910000000000 1
ion Ru   0.452970000000000   0.549920000000000   0.619900000000000 1
ion Ru   0.558530000000000   0.436410000000000   0.882850000000000 1
ion Ru   0.443330000000000   0.887300000000000   0.117110000000000 1
ion Ru   0.547970000000000   0.770780000000000   0.363990000000000 1
ion Ru   0.450890000000000   0.881860000000000   0.622790000000000 1
ion Ru   0.546720000000000   0.789070000000000   0.862510000000000 1
ion Ru   0.779720000000000   0.226100000000000   0.114440000000000 1
ion Ru   0.887030000000000   0.112120000000000   0.382880000000000 1
ion Ru   0.787320000000000   0.218450000000000   0.615290000000000 1
ion Ru   0.889360000000000   0.123060000000000   0.890840000000000 1
ion Ru   0.778310000000000   0.557730000000000   0.116690000000000 1
ion Ru   0.875750000000000   0.442000000000000   0.388940000000000 1
ion Ru   0.767820000000000   0.560330000000000   0.641690000000000 1
ion Ru   0.895320000000000   0.449310000000000   0.881160000000000 1
ion Ru   0.771490000000000   0.897380000000000   0.135170000000000 1
ion Ru   0.901830000000000   0.772400000000000   0.383810000000000 1
ion Ru   0.775450000000000   0.890700000000000   0.628330000000000 1
ion Ru   0.902450000000000   0.789110000000000   0.866630000000000 1
ion O   0.150000000000000   0.900000000000000   0.450000000000000 1

# Forces in Lattice coordinates:
force Ru  -0.587089244765336   0.067384779838519  -0.666978842089433 1
force Ru  -1.393198507391479   7.695236035871885  -3.768249712028148 1
force Ru  -0.328309511628236   0.445394220736943   0.828757579595165 1
force Ru   0.130619343588517   0.241867837349038   0.165753947656022 1
force Ru   0.145289958503646   0.163196351297746   0.032345077487439 1
force Ru  -0.413785738456259   0.798430312693218   0.527367932755275 1
force Ru  -0.041961219767037  -0.437555835026906  -0.171261129451726 1
force Ru   0.161774959636979  -0.288808729824982   0.309092110309731 1
force Ru   0.225905060711000  -0.307179208408029  -0.455828036986592 1
force Ru   9.075172463954763 -10.845937156438456  -6.068804652096741 1
force Ru  -0.352966867094321   0.185626680711807   2.484116498994601 1
force Ru   0.018640211549103   0.001800715459422   0.635662073869191 1
force Ru   0.735707388894603  -1.409454903888036  -0.701070645202088 1
force Ru   0.730938540019867  -0.396855173076718  -0.145086923699473 1
force Ru   0.711628036432289  -0.359411984009712   0.505556629189898 1
force Ru  -0.370203419569819   0.379654238308166  -0.632941435319247 1
force Ru  -0.840650934434693   1.191177559829072  -0.641631581537444 1
force Ru  -0.311873097612670   0.413470104973982   1.203926296832655 1
force Ru  -0.336798595605120   0.340643190661087   0.050467542950305 1
force Ru  -0.347230167567625   0.349153627957266  -0.379102372269184 1
force Ru  -0.191200277151153  -0.017637450117707   0.402339886292942 1
force Ru  -0.007912836798627   0.104817564584067   0.391083984838096 1
force Ru  -0.232763318460949   0.322000994310308  -0.190762303869231 1
force Ru   0.696906988818815  -0.716437488702119   0.526266788778172 1
force Ru  -0.101249712203948   0.105327424840671   0.855544301561356 1
force Ru  -0.146388586598320   0.027083417322908  -0.446778384921156 1
force Ru  -0.420064168152489   0.366407903741597   0.585797444903638 1
force Ru   0.388333245607762  -0.425402641710017  -0.618738269230754 1
force Ru   0.338539367430496   0.027395358682455   0.133027785938353 1
force Ru   0.517037188948756  -0.420323794675012  -0.347363706190079 1
force Ru   0.494183079417714  -0.553341495435792  -0.400390570533986 1
force Ru  -0.071918432580094  -0.044557227213535  -0.429606845590688 1
force Ru   0.396042611457398  -0.333490494724811  -0.283450125457616 1
force Ru  -2.417325507713496   0.638929409351395  -0.736611011257553 1
force Ru   0.043323855052097   0.016566418768654  -0.082576043383540 1
force Ru  -0.689357683010533   0.131692447955113   0.767408835063634 1
force O  -5.207561801035036   2.543139840432457   6.764043611970544 1

# Energy components:
   Eewald =    -2961.4310925860031602
       EH =      525.2606123377531731
     Eloc =    -2296.5438708160745591
      Enl =      647.2659817746017552
      Exc =     -468.9683511223074674
 Exc_core =       74.7495207131601660
       KE =     1042.7991125756382189
-------------------------------------
     Etot =    -3436.8680871232318168
       TS =        0.2978822707154642
-------------------------------------
        F =    -3437.1659693939473073

IonicMinimize: Iter:   0  F: -3437.165969393947307  |grad|_K:  1.158e-01  t[s]:   2432.69

#--- Lowdin population analysis ---
# oxidation-state Ru +0.011 -0.003 +0.003 +0.012 +0.007 +0.011 +0.007 +0.024 +0.001 -0.006 +0.007 +0.013 +0.023 -0.012 +0.004 +0.029 +0.019 +0.021 +0.013 +0.019 +0.016 +0.011 +0.004 +0.034 +0.035 +0.019 +0.032 +0.026 +0.018 +0.013 +0.015 +0.016 +0.020 -0.015 +0.005 +0.016
# oxidation-state O +0.404


-------- Electronic minimization -----------
Will mix electronic density at each iteration.
	FillingsUpdate:  mu: +0.895185384  nElectrons: 582.000000
	FillingsUpdate:  mu: +0.895224977  nElectrons: 582.000000
SCF: Cycle:  0   F: -3428.105619834524987   dF: +8.608e+00   |Residual|: 1.055e+00   |deigs|: 2.622e-03  t[s]:   2619.80
	FillingsUpdate:  mu: +0.899575591  nElectrons: 582.000000
SCF: Cycle:  1   F: -3413.015333114245095   dF: +1.509e+01   |Residual|: 1.849e+00   |deigs|: 4.689e-02  t[s]:   2761.91
	FillingsUpdate:  mu: +0.896508447  nElectrons: 582.000000
SCF: Cycle:  2   F: -3436.125044888574848   dF: -2.311e+01   |Residual|: 4.476e-01   |deigs|: 3.527e-02  t[s]:   2900.14
	FillingsUpdate:  mu: +0.895622652  nElectrons: 582.000000
SCF: Cycle:  3   F: -3436.568676416629842   dF: -4.436e-01   |Residual|: 3.693e-01   |deigs|: 4.654e-03  t[s]:   3032.49
	FillingsUpdate:  mu: +0.895178730  nElectrons: 582.000000
SCF: Cycle:  4   F: -3437.262978183068299   dF: -6.943e-01   |Residual|: 1.041e-01   |deigs|: 3.489e-03  t[s]:   3172.85
	FillingsUpdate:  mu: +0.895036859  nElectrons: 582.000000
SCF: Cycle:  5   F: -3437.271696680767946   dF: -8.718e-03   |Residual|: 8.904e-02   |deigs|: 9.907e-04  t[s]:   3305.34
	FillingsUpdate:  mu: +0.895001942  nElectrons: 582.000000
SCF: Cycle:  6   F: -3437.311572223449730   dF: -3.988e-02   |Residual|: 2.946e-02   |deigs|: 6.312e-04  t[s]:   3415.41
	FillingsUpdate:  mu: +0.895052914  nElectrons: 582.000000
SCF: Cycle:  7   F: -3437.312387352747919   dF: -8.151e-04   |Residual|: 2.468e-02   |deigs|: 2.808e-04  t[s]:   3497.25
	FillingsUpdate:  mu: +0.895060201  nElectrons: 582.000000
SCF: Cycle:  8   F: -3437.315416481253123   dF: -3.029e-03   |Residual|: 6.697e-03   |deigs|: 2.255e-04  t[s]:   3576.85
	FillingsUpdate:  mu: +0.895051873  nElectrons: 582.000000
SCF: Cycle:  9   F: -3437.315509220120475   dF: -9.274e-05   |Residual|: 5.014e-03   |deigs|: 6.380e-05  t[s]:   3660.02
	FillingsUpdate:  mu: +0.895043375  nElectrons: 582.000000
SCF: Cycle: 10   F: -3437.315628811410534   dF: -1.196e-04   |Residual|: 1.023e-03   |deigs|: 3.776e-05  t[s]:   3739.42
	FillingsUpdate:  mu: +0.895043604  nElectrons: 582.000000
SCF: Cycle: 11   F: -3437.315628105644919   dF: +7.058e-07   |Residual|: 9.875e-04   |deigs|: 1.351e-05  t[s]:   3819.44
	FillingsUpdate:  mu: +0.895044593  nElectrons: 582.000000
SCF: Cycle: 12   F: -3437.315632543204174   dF: -4.438e-06   |Residual|: 3.423e-04   |deigs|: 7.620e-06  t[s]:   3897.54
	FillingsUpdate:  mu: +0.895044213  nElectrons: 582.000000
SCF: Cycle: 13   F: -3437.315632500778975   dF: +4.243e-08   |Residual|: 3.239e-04   |deigs|: 4.349e-06  t[s]:   3975.14
	FillingsUpdate:  mu: +0.895044321  nElectrons: 582.000000
SCF: Cycle: 14   F: -3437.315632954709145   dF: -4.539e-07   |Residual|: 1.007e-04   |deigs|: 2.232e-06  t[s]:   4053.49
	FillingsUpdate:  mu: +0.895044364  nElectrons: 582.000000
SCF: Cycle: 15   F: -3437.315632996972909   dF: -4.226e-08   |Residual|: 6.501e-05   |deigs|: 7.395e-07  t[s]:   4131.30
	FillingsUpdate:  mu: +0.895044418  nElectrons: 582.000000
SCF: Cycle: 16   F: -3437.315633011697628   dF: -1.472e-08   |Residual|: 3.168e-05   |deigs|: 5.883e-07  t[s]:   4209.47
	FillingsUpdate:  mu: +0.895044427  nElectrons: 582.000000
SCF: Cycle: 17   F: -3437.315633012452054   dF: -7.544e-10   |Residual|: 2.726e-05   |deigs|: 2.947e-07  t[s]:   4292.20
	FillingsUpdate:  mu: +0.895044419  nElectrons: 582.000000
SCF: Cycle: 18   F: -3437.315633015413368   dF: -2.961e-09   |Residual|: 8.455e-06   |deigs|: 1.894e-07  t[s]:   4374.14
SCF: Converged (|Delta E|<1.000000e-08 for 2 iters).

Setting wave functions to eigenvectors of Hamiltonian

# Ionic positions in lattice coordinates:
ion Ru   0.124077917891523   0.224267938671141   0.139967306812651 1
ion Ru   0.224540231113025   0.099215549991249   0.382169941123895 1
ion Ru   0.112918986957574   0.216059089945659   0.609336076326048 1
ion Ru   0.217459128249125   0.110896529450277   0.874105203360659 1
ion Ru   0.104732544585859   0.544568566379814   0.125084662029597 1
ion Ru   0.230360199161133   0.428517719621817   0.365589304832780 1
ion Ru   0.121364687099040   0.564541699631652   0.625542264944118 1
ion Ru   0.224941674917247   0.449090201423373   0.862610250633364 1
ion Ru   0.103568617242148   0.897069409004185   0.122523127658593 1
ion Ru   0.206445564987217   0.779158561071579   0.364825942639553 1
ion Ru   0.118315080824062   0.887306145327467   0.649287282990490 1
ion Ru   0.226453133899936   0.776487474947643   0.867748449027173 1
ion Ru   0.439910825216039   0.241789674465400   0.136861835853815 1
ion Ru   0.548528030915213   0.114038895424567   0.379164142874376 1
ion Ru   0.435907634959930   0.229597578718767   0.619319406800150 1
ion Ru   0.559398719251559   0.110380805753261   0.889832753086269 1
ion Ru   0.456265227529451   0.545428282313116   0.131968809472786 1
ion Ru   0.572769305892791   0.447333151214288   0.357456328974809 1
ion Ru   0.452858064483866   0.550035806481863   0.619922886056829 1
ion Ru   0.558413911796059   0.436528021649671   0.882677945987111 1
ion Ru   0.443195512436067   0.887223862242593   0.117292566743751 1
ion Ru   0.547999912711830   0.770847812095283   0.364167458783122 1
ion Ru   0.450841745815388   0.881998246547603   0.622703415254775 1
ion Ru   0.546947713705239   0.788822582799671   0.862748805130459 1
ion Ru   0.779687328817332   0.226136777254234   0.114828232217935 1
ion Ru   0.886940675792363   0.112088995066306   0.382677234416870 1
ion Ru   0.787160742140134   0.218555137542050   0.615555820314354 1
ion Ru   0.889478082347722   0.122904525671953   0.890559198524112 1
ion Ru   0.778546823264579   0.557862226094197   0.116750352133837 1
ion Ru   0.875956324175826   0.441891207665894   0.388782349085556 1
ion Ru   0.767966240753597   0.560124089849200   0.641508285341179 1
ion Ru   0.895256662111312   0.449255862389688   0.880965026911073 1
ion Ru   0.771644164447441   0.897288914755648   0.135041353253312 1
ion Ru   0.900419493420565   0.772016936144191   0.383475707532926 1
ion Ru   0.775484693893311   0.890725700764043   0.628292510492627 1
ion Ru   0.902030776148936   0.788966795876687   0.866978236088377 1
ion O   0.147353621045561   0.899959225753969   0.453069526290668 1

# Forces in Lattice coordinates:
force Ru  -0.577729937495507   0.075694683216549  -0.664179403507648 1
force Ru  -0.981931806490113   5.932742521273508  -3.212979369315527 1
force Ru  -0.309010838598821   0.418040071238624   0.801744484895416 1
force Ru   0.129364325554268   0.245368197682771   0.175971667612041 1
force Ru   0.144150281063319   0.145251334745807   0.031465273084661 1
force Ru  -0.436210735484516   0.815183502576009   0.515772551498230 1
force Ru  -0.046411662079932  -0.408058791478491  -0.179647414810470 1
force Ru   0.156961207335648  -0.280113223020165   0.307710890931343 1
force Ru   0.243790300360841  -0.307325826944714  -0.392248933916901 1
force Ru   6.419487439939568  -7.385256665963096  -4.132564916579088 1
force Ru  -0.311313246668951   0.162966019473394   2.637090606604376 1
force Ru   0.031087611426756  -0.012615065374677   0.633705248447433 1
force Ru   0.723044797053637  -1.343546473753711  -0.682004559752820 1
force Ru   0.680797893639239  -0.390732176336771  -0.145843593215963 1
force Ru   0.692376533695716  -0.360138732608349   0.484488394862914 1
force Ru  -0.349500634108284   0.362680640568265  -0.617733953083766 1
force Ru  -0.805209410374785   1.129167724422027  -0.628496610144188 1
force Ru  -0.314635220951155   0.386364700113628   1.150127685746227 1
force Ru  -0.328724244708136   0.335224911088033   0.053797038319300 1
force Ru  -0.337389087257851   0.345931601143235  -0.369625245876371 1
force Ru  -0.174896101015034  -0.014044118783584   0.389013315451141 1
force Ru  -0.006991676800129   0.110376509932448   0.383805023951338 1
force Ru  -0.240812809526206   0.316247898773519  -0.197156385082859 1
force Ru   0.680272367172127  -0.697569385657079   0.515952124624050 1
force Ru  -0.097089706557270   0.098211817597630   0.817399722784193 1
force Ru  -0.134559386881151   0.023642547699196  -0.432303759331416 1
force Ru  -0.415796919226550   0.359762688157455   0.572147998009397 1
force Ru   0.367702327122471  -0.408466861921162  -0.602360216212237 1
force Ru   0.315015547037451   0.028718121305920   0.144341508201623 1
force Ru   0.505028813172023  -0.410487588501683  -0.343209454525143 1
force Ru   0.484390957589363  -0.546654045417414  -0.393976800974899 1
force Ru  -0.073717483786952  -0.049227145952482  -0.419983773764114 1
force Ru   0.387123363149022  -0.330262712963162  -0.281522878067614 1
force Ru  -2.087935721549126   0.565870656104364  -0.754060201104254 1
force Ru   0.034740889742028   0.019163807515240  -0.078362716119948 1
force Ru  -0.695093576388637   0.129862432702063   0.765593015859301 1
force O  -3.269782573816172   0.937694281162131   4.149855907817393 1

# Energy components:
   Eewald =    -2965.0778806913858716
       EH =      522.0448621332982384
     Eloc =    -2289.3170915082600914
      Enl =      647.0862630309769656
      Exc =     -468.8549297221355232
 Exc_core =       74.7495211737937240
       KE =     1042.3501605768569789
-------------------------------------
     Etot =    -3437.0190950068554230
       TS =        0.2965380085579691
-------------------------------------
        F =    -3437.3156330154133684

IonicMinimize: Iter:   1  F: -3437.315633015413368  |grad|_K:  8.449e-02  alpha:  1.176e-01  linmin: -9.894e-01  t[s]:   4391.24

#--- Lowdin population analysis ---
# oxidation-state Ru +0.012 +0.015 +0.003 +0.012 +0.009 +0.012 +0.008 +0.023 +0.002 +0.002 +0.021 +0.012 +0.023 -0.009 +0.004 +0.028 +0.020 +0.020 +0.014 +0.019 +0.017 +0.012 +0.006 +0.033 +0.034 +0.018 +0.032 +0.025 +0.018 +0.014 +0.014 +0.015 +0.021 -0.002 +0.004 +0.014
# oxidation-state O +0.328


-------- Electronic minimization -----------
Will mix electronic density at each iteration.
	FillingsUpdate:  mu: +0.895044419  nElectrons: 582.000000
	FillingsUpdate:  mu: +0.895109587  nElectrons: 582.000000
SCF: Cycle:  0   F: -3419.413772540970513   dF: +1.708e+01   |Residual|: 1.403e+00   |deigs|: 4.380e-03  t[s]:   4573.75
	FillingsUpdate:  mu: +0.903369567  nElectrons: 582.000000
SCF: Cycle:  1   F: -3395.315674340678470   dF: +2.410e+01   |Residual|: 2.415e+00   |deigs|: 6.151e-02  t[s]:   4715.51
	FillingsUpdate:  mu: +0.897490014  nElectrons: 582.000000
SCF: Cycle:  2   F: -3434.973753325018606   dF: -3.966e+01   |Residual|: 6.765e-01   |deigs|: 4.815e-02  t[s]:   4855.65
	FillingsUpdate:  mu: +0.896164198  nElectrons: 582.000000
SCF: Cycle:  3   F: -3436.493390659044508   dF: -1.520e+00   |Residual|: 4.330e-01   |deigs|: 7.525e-03  t[s]:   4994.65
	FillingsUpdate:  mu: +0.895049650  nElectrons: 582.000000
SCF: Cycle:  4   F: -3437.361806666009215   dF: -8.684e-01   |Residual|: 1.352e-01   |deigs|: 3.434e-03  t[s]:   5129.60
	FillingsUpdate:  mu: +0.894779858  nElectrons: 582.000000
SCF: Cycle:  5   F: -3437.357002077851121   dF: +4.805e-03   |Residual|: 1.260e-01   |deigs|: 1.100e-03  t[s]:   5266.38
	FillingsUpdate:  mu: +0.894800125  nElectrons: 582.000000
SCF: Cycle:  6   F: -3437.437357917302052   dF: -8.036e-02   |Residual|: 4.334e-02   |deigs|: 6.916e-04  t[s]:   5390.91
	FillingsUpdate:  mu: +0.894882712  nElectrons: 582.000000
SCF: Cycle:  7   F: -3437.441421854583041   dF: -4.064e-03   |Residual|: 3.261e-02   |deigs|: 4.090e-04  t[s]:   5485.45
	FillingsUpdate:  mu: +0.894887074  nElectrons: 582.000000
SCF: Cycle:  8   F: -3437.446218218073227   dF: -4.796e-03   |Residual|: 1.152e-02   |deigs|: 2.411e-04  t[s]:   5564.46
	FillingsUpdate:  mu: +0.894862105  nElectrons: 582.000000
SCF: Cycle:  9   F: -3437.446608078991630   dF: -3.899e-04   |Residual|: 7.178e-03   |deigs|: 1.227e-04  t[s]:   5647.94
	FillingsUpdate:  mu: +0.894850221  nElectrons: 582.000000
SCF: Cycle: 10   F: -3437.446877153088735   dF: -2.691e-04   |Residual|: 1.349e-03   |deigs|: 4.791e-05  t[s]:   5728.54
	FillingsUpdate:  mu: +0.894850077  nElectrons: 582.000000
SCF: Cycle: 11   F: -3437.446870393291192   dF: +6.760e-06   |Residual|: 1.580e-03   |deigs|: 1.698e-05  t[s]:   5809.80
	FillingsUpdate:  mu: +0.894851310  nElectrons: 582.000000
SCF: Cycle: 12   F: -3437.446882998866840   dF: -1.261e-05   |Residual|: 4.858e-04   |deigs|: 1.186e-05  t[s]:   5889.27
	FillingsUpdate:  mu: +0.894851235  nElectrons: 582.000000
SCF: Cycle: 13   F: -3437.446882721376824   dF: +2.775e-07   |Residual|: 4.434e-04   |deigs|: 4.642e-06  t[s]:   5969.50
	FillingsUpdate:  mu: +0.894851340  nElectrons: 582.000000
SCF: Cycle: 14   F: -3437.446883490771143   dF: -7.694e-07   |Residual|: 1.803e-04   |deigs|: 3.466e-06  t[s]:   6050.94
	FillingsUpdate:  mu: +0.894851391  nElectrons: 582.000000
SCF: Cycle: 15   F: -3437.446883681384861   dF: -1.906e-07   |Residual|: 7.551e-05   |deigs|: 9.038e-07  t[s]:   6130.94
	FillingsUpdate:  mu: +0.894851424  nElectrons: 582.000000
SCF: Cycle: 16   F: -3437.446883692286974   dF: -1.090e-08   |Residual|: 4.553e-05   |deigs|: 7.286e-07  t[s]:   6210.63
	FillingsUpdate:  mu: +0.894851420  nElectrons: 582.000000
SCF: Cycle: 17   F: -3437.446883694446569   dF: -2.160e-09   |Residual|: 4.126e-05   |deigs|: 4.805e-07  t[s]:   6293.06
	FillingsUpdate:  mu: +0.894851417  nElectrons: 582.000000
SCF: Cycle: 18   F: -3437.446883700653871   dF: -6.207e-09   |Residual|: 1.892e-05   |deigs|: 3.571e-07  t[s]:   6376.06
SCF: Converged (|Delta E|<1.000000e-08 for 2 iters).

Setting wave functions to eigenvectors of Hamiltonian

# Ionic positions in lattice coordinates:
ion Ru   0.123256119479796   0.223953257991179   0.139272964211801 1
ion Ru   0.227023361708430   0.105682153733958   0.379278796461231 1
ion Ru   0.112770750669504   0.216446028596713   0.610153706560760 1
ion Ru   0.217851455832493   0.111382071922749   0.874298551477036 1
ion Ru   0.105056490556840   0.544882655189947   0.125116850606713 1
ion Ru   0.230297733527064   0.429452755206466   0.366120266631883 1
ion Ru   0.120988609463997   0.563906331593946   0.625346525527899 1
ion Ru   0.224967326701558   0.448784883672331   0.862931778281627 1
ion Ru   0.103731438878352   0.896792477437555   0.122166485023315 1
ion Ru   0.209500264589300   0.775396403959356   0.362162001753017 1
ion Ru   0.117996640739477   0.887315167195741   0.652185460011655 1
ion Ru   0.226498320695589   0.776481558627285   0.868411436372239 1
ion Ru   0.440016430119928   0.240339655689939   0.136162833882730 1
ion Ru   0.549222237991948   0.113936450127439   0.379010447039653 1
ion Ru   0.436678727623578   0.229562667251284   0.619809377289838 1
ion Ru   0.559152969869126   0.110664415457269   0.889197838605365 1
ion Ru   0.455896909691188   0.546500840433973   0.131320816711883 1
ion Ru   0.572559665281319   0.447652705238130   0.358616284099770 1
ion Ru   0.452614509694740   0.550299592405013   0.619982132606250 1
ion Ru   0.558168873646932   0.436805651873932   0.882298343234894 1
ion Ru   0.442935906156308   0.887081154330239   0.117689068556106 1
ion Ru   0.548079524358646   0.771021623619599   0.364563716544373 1
ion Ru   0.450699240397761   0.882290116341676   0.622491028882207 1
ion Ru   0.547453660952326   0.788280578703617   0.863281060591004 1
ion Ru   0.779613500694904   0.226207534822066   0.115652677448804 1
ion Ru   0.886762824539152   0.112024346716367   0.382236197123441 1
ion Ru   0.786795279262207   0.218785394186114   0.616144145229788 1
ion Ru   0.889716559299163   0.122563913069999   0.889941420781403 1
ion Ru   0.779029460268350   0.558138306274842   0.116911467221874 1
ion Ru   0.876413142025617   0.441650601678845   0.388425861763182 1
ion Ru   0.768285994216387   0.559653215550688   0.641100494910741 1
ion Ru   0.895098531215635   0.449114958191859   0.880532725813173 1
ion Ru   0.771979805911328   0.897074893752592   0.134747650982262 1
ion Ru   0.897988711479815   0.771391083801944   0.382669608031363 1
ion Ru   0.775544239175868   0.890780320887880   0.628213888942625 1
ion Ru   0.901042885805486   0.788622483373045   0.867779690692887 1
ion O   0.144451897479889   0.898061751094420   0.455166400095207 1

# Forces in Lattice coordinates:
force Ru  -0.557693280216639   0.101147796757383  -0.649945502212873 1
force Ru  -0.632147553457471   3.958007623062436  -2.334503807787947 1
force Ru  -0.269392741819228   0.366914387298100   0.744093550555359 1
force Ru   0.125434522326227   0.256445246390722   0.202653433056456 1
force Ru   0.140194047416292   0.119405640469485   0.017486687000047 1
force Ru  -0.448181542156991   0.798555296261302   0.480290530322291 1
force Ru  -0.046872564595278  -0.361667541356642  -0.172869110093946 1
force Ru   0.146734370026315  -0.261686713517312   0.304570892904993 1
force Ru   0.260836994770059  -0.301524250553174  -0.310014221442710 1
force Ru   4.708788891004749  -5.199773315546388  -2.902139379611740 1
force Ru  -0.255533595808809   0.173304119549702   2.318532913746262 1
force Ru   0.060714461308766  -0.047579658830011   0.636201537750080 1
force Ru   0.689836896921143  -1.207859086191237  -0.644790896248367 1
force Ru   0.606936609030225  -0.364677016177569  -0.143940005772580 1
force Ru   0.643002697428944  -0.357206527915237   0.442503602223653 1
force Ru  -0.309468985984208   0.327590679242671  -0.585743725175165 1
force Ru  -0.734501183364002   1.007024827540328  -0.592165534444973 1
force Ru  -0.313957096560176   0.337278998706477   1.036339686780350 1
force Ru  -0.311179313049154   0.320485903263052   0.059697328114120 1
force Ru  -0.317418792568032   0.338528043880578  -0.346927244090663 1
force Ru  -0.141472499117276  -0.008170877881257   0.351110641652372 1
force Ru   0.010244125731567   0.109202193853754   0.366456929524803 1
force Ru  -0.242303467788385   0.300290702330759  -0.175847637580105 1
force Ru   0.642518622720684  -0.655243330128030   0.491863797831836 1
force Ru  -0.088197502896819   0.084706567983053   0.741348633230922 1
force Ru  -0.108675462667017   0.015932792211344  -0.397428923830323 1
force Ru  -0.402027068108314   0.341722934192013   0.541605834067765 1
force Ru   0.327441388566567  -0.374679380238809  -0.566854760780868 1
force Ru   0.274188312582809   0.026503405140439   0.157369694033598 1
force Ru   0.479091695097712  -0.382054745371877  -0.337162885397136 1
force Ru   0.465236929572608  -0.515105397357434  -0.381797290851839 1
force Ru  -0.071819809590338  -0.058557373032529  -0.393480151489282 1
force Ru   0.363726026171999  -0.317864129240483  -0.276087895648302 1
force Ru  -1.758358023311667   0.518706250307852  -0.744601762158975 1
force Ru   0.030011519608486   0.017538262211854  -0.072405643543286 1
force Ru  -0.695143810282880   0.122419253145733   0.757480762817330 1
force O  -2.270534042050874   0.772023856712053   2.381164650681201 1

# Energy components:
   Eewald =    -2969.4066196002554534
       EH =      518.1285243530041953
     Eloc =    -2280.6815294949778945
      Enl =      646.9162814287861920
      Exc =     -468.7329592379744554
 Exc_core =       74.7495220292849893
       KE =     1041.8747342220422070
-------------------------------------
     Etot =    -3437.1520463000897507
       TS =        0.2948374005640649
-------------------------------------
        F =    -3437.4468837006538706

IonicMinimize: Iter:   2  F: -3437.446883700653871  |grad|_K:  6.132e-02  alpha:  3.735e-01  linmin: -9.856e-01  t[s]:   6393.30

#--- Lowdin population analysis ---
# oxidation-state Ru +0.013 +0.027 +0.003 +0.012 +0.010 +0.014 +0.007 +0.022 +0.003 +0.014 +0.035 +0.013 +0.023 -0.007 +0.005 +0.027 +0.021 +0.020 +0.015 +0.019 +0.018 +0.012 +0.006 +0.032 +0.033 +0.018 +0.031 +0.025 +0.018 +0.014 +0.013 +0.015 +0.021 +0.010 +0.004 +0.014
# oxidation-state O +0.258


-------- Electronic minimization -----------
Will mix electronic density at each iteration.
	FillingsUpdate:  mu: +0.894851417  nElectrons: 582.000000
	FillingsUpdate:  mu: +0.895073411  nElectrons: 582.000000
SCF: Cycle:  0   F: -3413.639990639710959   dF: +2.278e+01   |Residual|: 1.561e+00   |deigs|: 5.079e-03  t[s]:   6577.32
	FillingsUpdate:  mu: +0.905787968  nElectrons: 582.000000
SCF: Cycle:  1   F: -3382.607863552242634   dF: +3.103e+01   |Residual|: 2.714e+00   |deigs|: 6.625e-02  t[s]:   6722.08
	FillingsUpdate:  mu: +0.898209131  nElectrons: 582.000000
SCF: Cycle:  2   F: -3434.110420988189617   dF: -5.150e+01   |Residual|: 8.062e-01   |deigs|: 5.422e-02  t[s]:   6857.12
	FillingsUpdate:  mu: +0.896502754  nElectrons: 582.000000
SCF: Cycle:  3   F: -3436.655945620477723   dF: -2.546e+00   |Residual|: 4.293e-01   |deigs|: 1.035e-02  t[s]:   6997.75
	FillingsUpdate:  mu: +0.894788898  nElectrons: 582.000000
SCF: Cycle:  4   F: -3437.423882923588280   dF: -7.679e-01   |Residual|: 1.618e-01   |deigs|: 3.149e-03  t[s]:   7138.24
	FillingsUpdate:  mu: +0.894515564  nElectrons: 582.000000
SCF: Cycle:  5   F: -3437.437825047553815   dF: -1.394e-02   |Residual|: 1.412e-01   |deigs|: 1.154e-03  t[s]:   7277.71
	FillingsUpdate:  mu: +0.894602088  nElectrons: 582.000000
SCF: Cycle:  6   F: -3437.536821942015195   dF: -9.900e-02   |Residual|: 4.825e-02   |deigs|: 7.964e-04  t[s]:   7404.42
	FillingsUpdate:  mu: +0.894673702  nElectrons: 582.000000
SCF: Cycle:  7   F: -3437.540720960093040   dF: -3.899e-03   |Residual|: 3.825e-02   |deigs|: 4.691e-04  t[s]:   7495.43
	FillingsUpdate:  mu: +0.894680491  nElectrons: 582.000000
SCF: Cycle:  8   F: -3437.547175677776977   dF: -6.455e-03   |Residual|: 1.374e-02   |deigs|: 2.700e-04  t[s]:   7575.65
	FillingsUpdate:  mu: +0.894638104  nElectrons: 582.000000
SCF: Cycle:  9   F: -3437.547812342017551   dF: -6.367e-04   |Residual|: 7.547e-03   |deigs|: 1.550e-04  t[s]:   7656.88
	FillingsUpdate:  mu: +0.894623836  nElectrons: 582.000000
SCF: Cycle: 10   F: -3437.548108999035776   dF: -2.967e-04   |Residual|: 1.840e-03   |deigs|: 5.479e-05  t[s]:   7739.68
	FillingsUpdate:  mu: +0.894626150  nElectrons: 582.000000
SCF: Cycle: 11   F: -3437.548109989630120   dF: -9.906e-07   |Residual|: 1.640e-03   |deigs|: 1.911e-05  t[s]:   7816.15
	FillingsUpdate:  mu: +0.894627350  nElectrons: 582.000000
SCF: Cycle: 12   F: -3437.548123425082395   dF: -1.344e-05   |Residual|: 6.427e-04   |deigs|: 1.470e-05  t[s]:   7894.06
	FillingsUpdate:  mu: +0.894627377  nElectrons: 582.000000
SCF: Cycle: 13   F: -3437.548123669062988   dF: -2.440e-07   |Residual|: 4.698e-04   |deigs|: 4.263e-06  t[s]:   7976.71
	FillingsUpdate:  mu: +0.894627455  nElectrons: 582.000000
SCF: Cycle: 14   F: -3437.548124534173439   dF: -8.651e-07   |Residual|: 2.048e-04   |deigs|: 3.740e-06  t[s]:   8058.12
	FillingsUpdate:  mu: +0.894627527  nElectrons: 582.000000
SCF: Cycle: 15   F: -3437.548124777245903   dF: -2.431e-07   |Residual|: 9.619e-05   |deigs|: 1.194e-06  t[s]:   8137.14
	FillingsUpdate:  mu: +0.894627533  nElectrons: 582.000000
SCF: Cycle: 16   F: -3437.548124798376193   dF: -2.113e-08   |Residual|: 5.869e-05   |deigs|: 6.920e-07  t[s]:   8215.40
	FillingsUpdate:  mu: +0.894627517  nElectrons: 582.000000
SCF: Cycle: 17   F: -3437.548124801206086   dF: -2.830e-09   |Residual|: 5.197e-05   |deigs|: 6.693e-07  t[s]:   8293.36
	FillingsUpdate:  mu: +0.894627542  nElectrons: 582.000000
SCF: Cycle: 18   F: -3437.548124810355148   dF: -9.149e-09   |Residual|: 2.862e-05   |deigs|: 5.091e-07  t[s]:   8379.32
SCF: Converged (|Delta E|<1.000000e-08 for 2 iters).

Setting wave functions to eigenvectors of Hamiltonian

# Ionic positions in lattice coordinates:
ion Ru   0.122013587199424   0.223561380234602   0.138160771192817 1
ion Ru   0.229087676003948   0.110874942820288   0.376467633821179 1
ion Ru   0.112576014228822   0.216979681501440   0.611369863673306 1
ion Ru   0.218506641927852   0.112219121476363   0.874683543948963 1
ion Ru   0.105535770006934   0.545310847674569   0.125132540006745 1
ion Ru   0.230128323669630   0.430901947618334   0.366910765952698 1
ion Ru   0.120446668257286   0.563010735159017   0.625047653044661 1
ion Ru   0.225006241560290   0.448326384759664   0.863456280742901 1
ion Ru   0.104061305440291   0.896382172677235   0.121752021263517 1
ion Ru   0.213112574321859   0.772113895996227   0.359619717308865 1
ion Ru   0.117681966120837   0.887487113121869   0.655991199140302 1
ion Ru   0.226616340378631   0.776399479574329   0.869516823664305 1
ion Ru   0.440308302895415   0.238354506740946   0.135093190091279 1
ion Ru   0.550178483579985   0.113744580641907   0.378761899579392 1
ion Ru   0.437783061796574   0.229428590011380   0.620521597727183 1
ion Ru   0.558823479000776   0.111080196281999   0.888222942388945 1
ion Ru   0.455321451968503   0.547974693401103   0.130337759508477 1
ion Ru   0.572134814510440   0.448016588443711   0.360266081984302 1
ion Ru   0.452246617371866   0.550713466816661   0.620093712998915 1
ion Ru   0.557819933162924   0.437273544677398   0.881724937457604 1
ion Ru   0.442632959441619   0.886923044481248   0.118251793449035 1
ion Ru   0.548274528521849   0.771332470861887   0.365177579412338 1
ion Ru   0.450437637830444   0.882716587653003   0.622202814868984 1
ion Ru   0.548231928696565   0.787466618124591   0.864103875755156 1
ion Ru   0.779499357322100   0.226293661562386   0.116838401563818 1
ion Ru   0.886546250163658   0.111935716500726   0.381590572329370 1
ion Ru   0.786208748041391   0.219126352529901   0.617044668791173 1
ion Ru   0.890030469556763   0.122048024159180   0.889003590140289 1
ion Ru   0.779684416549832   0.558515392532370   0.117204924653790 1
ion Ru   0.877129725358375   0.441310720993997   0.387849279361242 1
ion Ru   0.768808842516004   0.558961020643319   0.640454046289715 1
ion Ru   0.894830438745675   0.448854203162763   0.879882416103863 1
ion Ru   0.772473923760499   0.896724977647743   0.134275012658771 1
ion Ru   0.894870508978985   0.770726990931177   0.381375111782614 1
ion Ru   0.775628710539749   0.890856453074634   0.628096806576186 1
ion Ru   0.899400590291572   0.788027844527612   0.869085073986148 1
ion O   0.142061710282633   0.897006050984420   0.455823096781151 1

# Forces in Lattice coordinates:
force Ru  -0.516471328269517   0.128993647791523  -0.608094479642697 1
force Ru  -0.440841615710437   2.821976623856878  -1.743442615740651 1
force Ru  -0.223194684806312   0.311335608129459   0.666370089670807 1
force Ru   0.118526958224142   0.264613612379262   0.235854371153042 1
force Ru   0.130073355272402   0.090719958310477  -0.006618383843326 1
force Ru  -0.441816033715144   0.741815035560811   0.419500999603384 1
force Ru  -0.045837128345177  -0.304345222968673  -0.152312598350864 1
force Ru   0.131049580357875  -0.234978199813245   0.298397650524064 1
force Ru   0.272065856015157  -0.294580457703718  -0.230267615405261 1
force Ru   3.409815358504601  -3.642432329665137  -1.945934058473507 1
force Ru  -0.194392920056638   0.165473465725806   1.670572942907084 1
force Ru   0.093336875619209  -0.089044666690417   0.626097834775871 1
force Ru   0.628744163892645  -1.024772891305063  -0.583083981833047 1
force Ru   0.524609521243950  -0.327710144432422  -0.137478417582307 1
force Ru   0.576299185537700  -0.343123176415012   0.390389957458974 1
force Ru  -0.255311429639937   0.276751184904649  -0.540082856461705 1
force Ru  -0.641385831495934   0.849171894040845  -0.534545889147421 1
force Ru  -0.305684703476586   0.279060046738738   0.883941618296200 1
force Ru  -0.284776093774119   0.296686266744749   0.065014861529747 1
force Ru  -0.286731496915594   0.323287152849508  -0.312026546280946 1
force Ru  -0.093601017707666   0.000389307217414   0.292485616137124 1
force Ru   0.038785373650972   0.101303888097518   0.338914195245756 1
force Ru  -0.235926083600219   0.275008126163445  -0.133589901897690 1
force Ru   0.586306196937486  -0.592206785097771   0.454202955435131 1
force Ru  -0.075298493569629   0.064768962860846   0.636736107388927 1
force Ru  -0.078056405139644   0.008749070092194  -0.345226537093530 1
force Ru  -0.377784893785736   0.313363296547087   0.493773540196575 1
force Ru   0.272659841451645  -0.328863563542902  -0.518185579050893 1
force Ru   0.222707360385620   0.019109619620767   0.167481733472858 1
force Ru   0.442217308571537  -0.336620572397208  -0.326697174695019 1
force Ru   0.434909251673130  -0.460984312621636  -0.364736838665109 1
force Ru  -0.066369830297038  -0.068061477386078  -0.351542054356902 1
force Ru   0.326654946467124  -0.294871997562217  -0.268451650444179 1
force Ru  -1.438703090800855   0.459974916784447  -0.696791537479307 1
force Ru   0.030088036246889   0.010386707108061  -0.064337825742489 1
force Ru  -0.673972908440684   0.107779984485461   0.727091848032454 1
force O  -1.562765842859394   0.431895252331457   1.497386833620717 1

# Energy components:
   Eewald =    -2973.6268588781913422
       EH =      514.2467800998363145
     Eloc =    -2272.2245872267849336
      Enl =      646.7748062207432440
      Exc =     -468.6213222027538450
 Exc_core =       74.7495215322178126
       KE =     1041.4467768709171196
-------------------------------------
     Etot =    -3437.2548835840152606
       TS =        0.2932412263400289
-------------------------------------
        F =    -3437.5481248103551479

IonicMinimize: Iter:   3  F: -3437.548124810355148  |grad|_K:  4.554e-02  alpha:  3.210e-01  linmin: -9.714e-01  t[s]:   8396.68

#--- Lowdin population analysis ---
# oxidation-state Ru +0.014 +0.037 +0.003 +0.013 +0.012 +0.015 +0.007 +0.022 +0.004 +0.024 +0.047 +0.014 +0.022 -0.005 +0.005 +0.025 +0.021 +0.019 +0.016 +0.020 +0.019 +0.013 +0.007 +0.030 +0.031 +0.018 +0.030 +0.024 +0.019 +0.013 +0.011 +0.015 +0.020 +0.020 +0.004 +0.014
# oxidation-state O +0.202


-------- Electronic minimization -----------
Will mix electronic density at each iteration.
	FillingsUpdate:  mu: +0.894627542  nElectrons: 582.000000
	FillingsUpdate:  mu: +0.895033579  nElectrons: 582.000000
SCF: Cycle:  0   F: -3403.648966403153281   dF: +3.242e+01   |Residual|: 1.825e+00   |deigs|: 6.755e-03  t[s]:   8584.43
	FillingsUpdate:  mu: +0.910643825  nElectrons: 582.000000
SCF: Cycle:  1   F: -3366.018717358324920   dF: +3.763e+01   |Residual|: 3.074e+00   |deigs|: 7.453e-02  t[s]:   8722.78
	FillingsUpdate:  mu: +0.899498952  nElectrons: 582.000000
SCF: Cycle:  2   F: -3432.552534501220180   dF: -6.653e+01   |Residual|: 9.977e-01   |deigs|: 6.383e-02  t[s]:   8863.88
	FillingsUpdate:  mu: +0.896990230  nElectrons: 582.000000
SCF: Cycle:  3   F: -3436.698532731088108   dF: -4.146e+00   |Residual|: 4.541e-01   |deigs|: 1.454e-02  t[s]:   9002.70
	FillingsUpdate:  mu: +0.894448374  nElectrons: 582.000000
SCF: Cycle:  4   F: -3437.395146167049006   dF: -6.966e-01   |Residual|: 2.226e-01   |deigs|: 3.816e-03  t[s]:   9138.66
	FillingsUpdate:  mu: +0.894198546  nElectrons: 582.000000
SCF: Cycle:  5   F: -3437.497087922823994   dF: -1.019e-01   |Residual|: 1.606e-01   |deigs|: 1.270e-03  t[s]:   9275.90
	FillingsUpdate:  mu: +0.894397877  nElectrons: 582.000000
SCF: Cycle:  6   F: -3437.622337587923084   dF: -1.252e-01   |Residual|: 5.328e-02   |deigs|: 1.032e-03  t[s]:   9406.72
	FillingsUpdate:  mu: +0.894432513  nElectrons: 582.000000
SCF: Cycle:  7   F: -3437.624532405602167   dF: -2.195e-03   |Residual|: 4.555e-02   |deigs|: 4.846e-04  t[s]:   9513.05
	FillingsUpdate:  mu: +0.894420682  nElectrons: 582.000000
SCF: Cycle:  8   F: -3437.633617967300779   dF: -9.086e-03   |Residual|: 1.638e-02   |deigs|: 2.892e-04  t[s]:   9590.62
	FillingsUpdate:  mu: +0.894359754  nElectrons: 582.000000
SCF: Cycle:  9   F: -3437.634712101302284   dF: -1.094e-03   |Residual|: 7.658e-03   |deigs|: 1.988e-04  t[s]:   9670.56
	FillingsUpdate:  mu: +0.894343662  nElectrons: 582.000000
SCF: Cycle: 10   F: -3437.634953509485513   dF: -2.414e-04   |Residual|: 3.418e-03   |deigs|: 5.394e-05  t[s]:   9747.05
	FillingsUpdate:  mu: +0.894353366  nElectrons: 582.000000
SCF: Cycle: 11   F: -3437.635011381071308   dF: -5.787e-05   |Residual|: 1.508e-03   |deigs|: 3.090e-05  t[s]:   9827.19
	FillingsUpdate:  mu: +0.894354397  nElectrons: 582.000000
SCF: Cycle: 12   F: -3437.635018077842233   dF: -6.697e-06   |Residual|: 1.056e-03   |deigs|: 1.460e-05  t[s]:   9907.91
	FillingsUpdate:  mu: +0.894354479  nElectrons: 582.000000
SCF: Cycle: 13   F: -3437.635022375368408   dF: -4.298e-06   |Residual|: 4.408e-04   |deigs|: 6.140e-06  t[s]:   9984.45
	FillingsUpdate:  mu: +0.894354587  nElectrons: 582.000000
SCF: Cycle: 14   F: -3437.635022967310761   dF: -5.919e-07   |Residual|: 2.427e-04   |deigs|: 3.577e-06  t[s]:  10063.66
	FillingsUpdate:  mu: +0.894354637  nElectrons: 582.000000
SCF: Cycle: 15   F: -3437.635023172512774   dF: -2.052e-07   |Residual|: 1.676e-04   |deigs|: 1.709e-06  t[s]:  10144.69
	FillingsUpdate:  mu: +0.894354576  nElectrons: 582.000000
SCF: Cycle: 16   F: -3437.635023301390447   dF: -1.289e-07   |Residual|: 8.150e-05   |deigs|: 9.432e-07  t[s]:  10221.72
	FillingsUpdate:  mu: +0.894354569  nElectrons: 582.000000
SCF: Cycle: 17   F: -3437.635023304998867   dF: -3.608e-09   |Residual|: 7.395e-05   |deigs|: 8.915e-07  t[s]:  10301.13
	FillingsUpdate:  mu: +0.894354627  nElectrons: 582.000000
SCF: Cycle: 18   F: -3437.635023324476606   dF: -1.948e-08   |Residual|: 3.492e-05   |deigs|: 5.543e-07  t[s]:  10381.63
	FillingsUpdate:  mu: +0.894354625  nElectrons: 582.000000
SCF: Cycle: 19   F: -3437.635023330834429   dF: -6.358e-09   |Residual|: 1.195e-05   |deigs|: 4.268e-07  t[s]:  10460.73
	FillingsUpdate:  mu: +0.894354613  nElectrons: 582.000000
SCF: Cycle: 20   F: -3437.635023330898093   dF: -6.366e-11   |Residual|: 5.381e-06   |deigs|: 2.659e-07  t[s]:  10535.00
SCF: Converged (|Delta E|<1.000000e-08 for 2 iters).

Setting wave functions to eigenvectors of Hamiltonian

# Ionic positions in lattice coordinates:
ion Ru   0.120249328978042   0.223176000801817   0.136472536960062 1
ion Ru   0.231203638068747   0.116150000107881   0.373389021591534 1
ion Ru   0.112351395709958   0.217709661720815   0.613119744591522 1
ion Ru   0.219584082195825   0.113641148511942   0.875452318121436 1
ion Ru   0.106204387195682   0.545852070501237   0.125061386850933 1
ion Ru   0.229733256282186   0.432993991106550   0.367996375278880 1
ion Ru   0.119701087619590   0.561817921092204   0.624639648389986 1
ion Ru   0.225057490415220   0.447662776613122   0.864311406680200 1
ion Ru   0.104673364231070   0.895753492424286   0.121313815667796 1
ion Ru   0.217254269652182   0.769178791542307   0.357511631288227 1
ion Ru   0.117438928432806   0.887884772410683   0.659593930343155 1
ion Ru   0.226875014786355   0.776124167062296   0.871324121206331 1
ion Ru   0.440942840530734   0.235855031119297   0.133537950299641 1
ion Ru   0.551468252774307   0.113424897828513   0.378373517719931 1
ion Ru   0.439308773376857   0.229109512315394   0.621526352219166 1
ion Ru   0.558426267281516   0.111641710591788   0.886760368280803 1
ion Ru   0.454436317944411   0.549841726190951   0.128913564795103 1
ion Ru   0.571325535295883   0.448347195268054   0.362465868182965 1
ion Ru   0.451710195221872   0.551344660769435   0.620298353252249 1
ion Ru   0.557363007486070   0.438054304471346   0.880897825367239 1
ion Ru   0.442415805016576   0.886838813542198   0.118968248937887 1
ion Ru   0.548743759393305   0.771882281795513   0.366100627382647 1
ion Ru   0.449978090248787   0.883312056398852   0.621898287548470 1
ion Ru   0.549397386176114   0.786298958717714   0.865338703294306 1
ion Ru   0.779324572133352   0.226362811980779   0.118436863320125 1
ion Ru   0.886329378950352   0.111833259157986   0.380708011879899 1
ion Ru   0.785286297947134   0.219606369706295   0.618370894008549 1
ion Ru   0.890381519470775   0.121284496896112   0.887613288838001 1
ion Ru   0.780482569656800   0.558961460138914   0.117725682498747 1
ion Ru   0.878256691099734   0.440900392524810   0.386922593680513 1
ion Ru   0.769673646545979   0.558034416987086   0.639433811968110 1
ion Ru   0.894392631848139   0.448386410110231   0.878955129464931 1
ion Ru   0.773157755502818   0.896168447347802   0.133511674753440 1
ion Ru   0.890961365163915   0.770069478353330   0.379424547348635 1
ion Ru   0.775760120916321   0.890942621400341   0.627929861547506 1
ion Ru   0.896750141225365   0.787016563038952   0.871144131859459 1
ion O   0.139540835225221   0.895517329453163   0.455947904581616 1

# Forces in Lattice coordinates:
force Ru  -0.450889981284299   0.155408926048385  -0.537585273436813 1
force Ru  -0.302200094880450   1.900408451956225  -1.202029332192365 1
force Ru  -0.173269701048344   0.253624091227168   0.566460969724472 1
force Ru   0.108127065590619   0.249830421818508   0.250822853182346 1
force Ru   0.111630348344934   0.062981993672562  -0.037979029727476 1
force Ru  -0.412774353320578   0.640150857837877   0.338828807012000 1
force Ru  -0.041346738826941  -0.240988160554105  -0.113401367886962 1
force Ru   0.105475641174790  -0.194421775499157   0.283777391582499 1
force Ru   0.275115243261097  -0.280076096464648  -0.149275511637408 1
force Ru   2.413358937648411  -2.503822781155748  -1.237884023220188 1
force Ru  -0.155783605345145   0.147508975451507   1.104531672861579 1
force Ru   0.104168216279106  -0.113626307747094   0.570073849097451 1
force Ru   0.543050070924296  -0.805162551467749  -0.498331515327631 1
force Ru   0.423487427668741  -0.273648841511900  -0.125702898194177 1
force Ru   0.488505215544038  -0.311243891381891   0.324285743534272 1
force Ru  -0.188851830319640   0.210318107093781  -0.477027693628769 1
force Ru  -0.528911484393133   0.664276260150010  -0.452964111837687 1
force Ru  -0.282711902386221   0.207749539334691   0.701234542377634 1
force Ru  -0.246406005818062   0.259526100214644   0.069371532743791 1
force Ru  -0.239875513932353   0.294566936742182  -0.265576927408665 1
force Ru  -0.034194160300723   0.010996540167424   0.217498427397290 1
force Ru   0.075303556325190   0.086587332080248   0.298690617535735 1
force Ru  -0.216498840653300   0.237719712892098  -0.071863878125429 1
force Ru   0.505450284980371  -0.503117580729000   0.397094127189631 1
force Ru  -0.059179417412971   0.040305892291516   0.501927599994463 1
force Ru  -0.041645893149726   0.001301239590093  -0.275063400492077 1
force Ru  -0.338375474453609   0.272525509620769   0.422584030170980 1
force Ru   0.205051687870265  -0.270873533412494  -0.453796769910976 1
force Ru   0.162760263127976   0.003273390545449   0.170561799526408 1
force Ru   0.388057508420290  -0.271219732856724  -0.308309289782823 1
force Ru   0.385737148851523  -0.381206989238880  -0.335613702791527 1
force Ru  -0.056995768402477  -0.072629612089766  -0.292424445412176 1
force Ru   0.272563026637563  -0.258493239278631  -0.255557097487943 1
force Ru  -1.117982415601767   0.397672900610826  -0.614089654073517 1
force Ru   0.030688302255435   0.000569604071226  -0.051774100958761 1
force Ru  -0.601163201491912   0.080594864095382   0.639414158131900 1
force O  -1.109217641065216   0.302345289895829   0.898410071078255 1

# Energy components:
   Eewald =    -2977.8531904998812934
       EH =      510.3202642434912946
     Eloc =    -2263.7234854238163280
      Enl =      646.6447414103316760
      Exc =     -468.5113594421037533
 Exc_core =       74.7495223460939826
       KE =     1041.0301454366772305
-------------------------------------
     Etot =    -3437.3433619292072763
       TS =        0.2916614016907246
-------------------------------------
        F =    -3437.6350233308980933

IonicMinimize: Iter:   4  F: -3437.635023330898093  |grad|_K:  3.305e-02  alpha:  3.194e-01  linmin: -9.572e-01  t[s]:  10552.11

#--- Lowdin population analysis ---
# oxidation-state Ru +0.015 +0.046 +0.004 +0.014 +0.014 +0.014 +0.007 +0.021 +0.004 +0.035 +0.056 +0.016 +0.020 -0.003 +0.005 +0.024 +0.022 +0.018 +0.017 +0.020 +0.019 +0.013 +0.008 +0.028 +0.029 +0.017 +0.029 +0.024 +0.019 +0.012 +0.010 +0.016 +0.020 +0.030 +0.004 +0.015
# oxidation-state O +0.154


-------- Electronic minimization -----------
Will mix electronic density at each iteration.
	FillingsUpdate:  mu: +0.894354613  nElectrons: 582.000000
	FillingsUpdate:  mu: +0.894678693  nElectrons: 582.000000
SCF: Cycle:  0   F: -3394.338575471998865   dF: +4.135e+01   |Residual|: 2.035e+00   |deigs|: 8.183e-03  t[s]:  10738.41
	FillingsUpdate:  mu: +0.915044401  nElectrons: 582.000000
SCF: Cycle:  1   F: -3350.273429268569998   dF: +4.407e+01   |Residual|: 3.349e+00   |deigs|: 8.004e-02  t[s]:  10876.32
	FillingsUpdate:  mu: +0.900774969  nElectrons: 582.000000
SCF: Cycle:  2   F: -3431.172581526322574   dF: -8.090e+01   |Residual|: 1.141e+00   |deigs|: 7.174e-02  t[s]:  11010.55
	FillingsUpdate:  mu: +0.897353464  nElectrons: 582.000000
SCF: Cycle:  3   F: -3436.730427521949423   dF: -5.558e+00   |Residual|: 4.772e-01   |deigs|: 1.799e-02  t[s]:  11146.02
	FillingsUpdate:  mu: +0.894143031  nElectrons: 582.000000
SCF: Cycle:  4   F: -3437.291190739202648   dF: -5.608e-01   |Residual|: 2.924e-01   |deigs|: 4.605e-03  t[s]:  11283.24
	FillingsUpdate:  mu: +0.893879868  nElectrons: 582.000000
SCF: Cycle:  5   F: -3437.554484058514390   dF: -2.633e-01   |Residual|: 1.705e-01   |deigs|: 1.630e-03  t[s]:  11419.96
	FillingsUpdate:  mu: +0.894200500  nElectrons: 582.000000
SCF: Cycle:  6   F: -3437.691092149916130   dF: -1.366e-01   |Residual|: 5.730e-02   |deigs|: 1.228e-03  t[s]:  11547.03
	FillingsUpdate:  mu: +0.894180246  nElectrons: 582.000000
SCF: Cycle:  7   F: -3437.694047789945216   dF: -2.956e-03   |Residual|: 4.831e-02   |deigs|: 3.978e-04  t[s]:  11650.32
	FillingsUpdate:  mu: +0.894117375  nElectrons: 582.000000
SCF: Cycle:  8   F: -3437.704576340502626   dF: -1.053e-02   |Residual|: 1.420e-02   |deigs|: 2.826e-04  t[s]:  11730.18
	FillingsUpdate:  mu: +0.894058603  nElectrons: 582.000000
SCF: Cycle:  9   F: -3437.705116977015223   dF: -5.406e-04   |Residual|: 9.391e-03   |deigs|: 1.751e-04  t[s]:  11810.66
	FillingsUpdate:  mu: +0.894044296  nElectrons: 582.000000
SCF: Cycle: 10   F: -3437.705433545757387   dF: -3.166e-04   |Residual|: 4.633e-03   |deigs|: 4.962e-05  t[s]:  11888.55
	FillingsUpdate:  mu: +0.894062989  nElectrons: 582.000000
SCF: Cycle: 11   F: -3437.705554573401059   dF: -1.210e-04   |Residual|: 1.610e-03   |deigs|: 5.291e-05  t[s]:  11967.15
	FillingsUpdate:  mu: +0.894062453  nElectrons: 582.000000
SCF: Cycle: 12   F: -3437.705551569031741   dF: +3.004e-06   |Residual|: 1.611e-03   |deigs|: 1.554e-05  t[s]:  12050.79
	FillingsUpdate:  mu: +0.894062361  nElectrons: 582.000000
SCF: Cycle: 13   F: -3437.705566207114316   dF: -1.464e-05   |Residual|: 3.704e-04   |deigs|: 1.062e-05  t[s]:  12131.89
	FillingsUpdate:  mu: +0.894062417  nElectrons: 582.000000
SCF: Cycle: 14   F: -3437.705566510001063   dF: -3.029e-07   |Residual|: 2.650e-04   |deigs|: 2.861e-06  t[s]:  12213.83
	FillingsUpdate:  mu: +0.894062332  nElectrons: 582.000000
SCF: Cycle: 15   F: -3437.705566593184358   dF: -8.318e-08   |Residual|: 2.004e-04   |deigs|: 1.954e-06  t[s]:  12297.96
	FillingsUpdate:  mu: +0.894062291  nElectrons: 582.000000
SCF: Cycle: 16   F: -3437.705566832605200   dF: -2.394e-07   |Residual|: 4.812e-05   |deigs|: 1.122e-06  t[s]:  12379.19
	FillingsUpdate:  mu: +0.894062358  nElectrons: 582.000000
SCF: Cycle: 17   F: -3437.705566812647248   dF: +1.996e-08   |Residual|: 7.521e-05   |deigs|: 8.089e-07  t[s]:  12468.78
	FillingsUpdate:  mu: +0.894062389  nElectrons: 582.000000
SCF: Cycle: 18   F: -3437.705566841392283   dF: -2.875e-08   |Residual|: 1.475e-05   |deigs|: 5.841e-07  t[s]:  12545.63
	FillingsUpdate:  mu: +0.894062384  nElectrons: 582.000000
SCF: Cycle: 19   F: -3437.705566840786105   dF: +6.062e-10   |Residual|: 1.589e-05   |deigs|: 4.130e-07  t[s]:  12624.37
	FillingsUpdate:  mu: +0.894062385  nElectrons: 582.000000
SCF: Cycle: 20   F: -3437.705566841956625   dF: -1.171e-09   |Residual|: 6.964e-06   |deigs|: 3.819e-07  t[s]:  12705.71
	FillingsUpdate:  mu: +0.894062391  nElectrons: 582.000000
SCF: Cycle: 21   F: -3437.705566842106691   dF: -1.501e-10   |Residual|: 4.670e-06   |deigs|: 2.970e-07  t[s]:  12767.01
SCF: Converged (|Delta E|<1.000000e-08 for 2 iters).

Setting wave functions to eigenvectors of Hamiltonian

# Ionic positions in lattice coordinates:
ion Ru   0.118085734830351   0.223013091986956   0.134204139231958 1
ion Ru   0.233046366910448   0.120905861510178   0.370513671825624 1
ion Ru   0.112150690002264   0.218646952039770   0.615376487007451 1
ion Ru   0.221118822656260   0.115677387969559   0.876705405580822 1
ion Ru   0.107014434399294   0.546448368832216   0.124781287858701 1
ion Ru   0.228964066587125   0.435569402157061   0.369285785301331 1
ion Ru   0.118791163542225   0.560402619894097   0.624224719982871 1
ion Ru   0.225092316221674   0.446832234892585   0.865579083748018 1
ion Ru   0.105684527777776   0.894871971702335   0.120973662083663 1
ion Ru   0.221785766253392   0.766448265599468   0.356011877057509 1
ion Ru   0.117159097671569   0.888447449921126   0.662497413391497 1
ion Ru   0.227233161676414   0.775571936254585   0.873827108327138 1
ion Ru   0.442079519090035   0.233192587838231   0.131527016050050 1
ion Ru   0.552992752359264   0.112983797511737   0.377827860444112 1
ion Ru   0.441190371342440   0.228550639426615   0.622782286731349 1
ion Ru   0.558040002095523   0.112268289596259   0.884777430701639 1
ion Ru   0.453192722468733   0.551856436412219   0.127097069719292 1
ion Ru   0.569992797446110   0.448451172070425   0.365029222342614 1
ion Ru   0.451014583664292   0.552194176259005   0.620639270127333 1
ion Ru   0.556893966633331   0.439234577142358   0.879833235535433 1
ion Ru   0.442562294228167   0.887010703950545   0.119710713427587 1
ion Ru   0.549707967360604   0.772764357947488   0.367345091014079 1
ion Ru   0.449286101880981   0.884048123509873   0.621760524468296 1
ion Ru   0.550953189086734   0.784832878135991   0.866983553720376 1
ion Ru   0.779077988045959   0.226348587184742   0.120273678558107 1
ion Ru   0.886227905809229   0.111754768974917   0.379680553122105 1
ion Ru   0.783988138267295   0.220203109762436   0.620085718229144 1
ion Ru   0.890648556340210   0.120261015215573   0.885746951706277 1
ion Ru   0.781239117619115   0.559309110284962   0.118544437571750 1
ion Ru   0.879872846445721   0.440558815708571   0.385558604898656 1
ion Ru   0.770965266353751   0.557013648694803   0.637979272739748 1
ion Ru   0.893773060848864   0.447671396705421   0.877804300502177 1
ion Ru   0.773957406430271   0.895370850976468   0.132374763846996 1
ion Ru   0.886582386653621   0.769625826154775   0.376826133137046 1
ion Ru   0.775942622422437   0.891003908670877   0.627732996190021 1
ion Ru   0.893116468023265   0.785523769372742   0.873868656125472 1
ion O   0.136715820555255   0.894111909733031   0.455620017693758 1

# Forces in Lattice coordinates:
force Ru  -0.358616487625505   0.160441829628229  -0.436155866342150 1
force Ru  -0.208417013117024   1.260756272703341  -0.796966278687515 1
force Ru  -0.123860320658251   0.195884981851303   0.451999908720774 1
force Ru   0.095054381012295   0.198503657180119   0.232528454545719 1
force Ru   0.084341982925259   0.040834727872338  -0.068381578754232 1
force Ru  -0.354437131773569   0.494280172716057   0.253275987442260 1
force Ru  -0.035760151528741  -0.175293915444628  -0.061704815763362 1
force Ru   0.071801333343426  -0.142630950108157   0.255797376880105 1
force Ru   0.259560870919234  -0.250600234240224  -0.079990393114656 1
force Ru   1.593465612488486  -1.607582452019891  -0.689336703991181 1
force Ru  -0.133817389059172   0.117038356172329   0.728600154561295 1
force Ru   0.083448431967987  -0.105816277168492   0.459699858987171 1
force Ru   0.434889299101281  -0.581015434350579  -0.392314389397612 1
force Ru   0.311546713935874  -0.208234321795669  -0.106754895315171 1
force Ru   0.382347719986755  -0.259738481081006   0.249200891306608 1
force Ru  -0.122085235252245   0.137776443303271  -0.398480522098089 1
force Ru  -0.407296686549181   0.477275465265655  -0.351095994554171 1
force Ru  -0.242493904543714   0.133015559152065   0.515874607538521 1
force Ru  -0.197619778144887   0.209645026241220   0.069789267191347 1
force Ru  -0.177055448371997   0.248029900041234  -0.211463130769280 1
force Ru   0.026840219058109   0.021494839958966   0.137568751143018 1
force Ru   0.111671777374078   0.066125958507995   0.248068816857581 1
force Ru  -0.183746350159345   0.191917392600368  -0.003843996438802 1
force Ru   0.403301696527573  -0.392873984609268   0.321993222778285 1
force Ru  -0.040252848524575   0.012591938512438   0.353789293203451 1
force Ru  -0.005319609944523  -0.006748711772401  -0.197636779676994 1
force Ru  -0.280852589637025   0.218704331290826   0.330138501917154 1
force Ru   0.137783904887260  -0.211941936495896  -0.378035584249519 1
force Ru   0.102070165220983  -0.018291924122456   0.160255023102396 1
force Ru   0.316770527102348  -0.191860220944403  -0.277110835314869 1
force Ru   0.314524038178664  -0.279741473119467  -0.292911470558646 1
force Ru  -0.047521696689221  -0.064678622624249  -0.220347483938044 1
force Ru   0.207838884044911  -0.207708259718397  -0.233931390382845 1
force Ru  -0.815223319230446   0.323407160148848  -0.505143133607466 1
force Ru   0.032860930824987  -0.010849893278310  -0.035165029254628 1
force Ru  -0.469575630245772   0.042229786844670   0.496940509375761 1
force O  -0.765946240051788   0.165502925936245   0.470730793536840 1

# Energy components:
   Eewald =    -2981.6040913010961049
       EH =      506.8174262977190665
     Eloc =    -2256.1575705949117037
      Enl =      646.5325178040660603
      Exc =     -468.4126230913863083
 Exc_core =       74.7495214527814227
       KE =     1040.6594613301131176
-------------------------------------
     Etot =    -3437.4153581027139808
       TS =        0.2902087393927130
-------------------------------------
        F =    -3437.7055668421066912

IonicMinimize: Iter:   5  F: -3437.705566842106691  |grad|_K:  2.307e-02  alpha:  3.330e-01  linmin: -9.521e-01  t[s]:  12784.32

#--- Lowdin population analysis ---
# oxidation-state Ru +0.015 +0.052 +0.005 +0.016 +0.015 +0.013 +0.007 +0.021 +0.004 +0.044 +0.062 +0.017 +0.019 -0.000 +0.006 +0.023 +0.023 +0.016 +0.019 +0.020 +0.019 +0.012 +0.008 +0.026 +0.026 +0.015 +0.027 +0.023 +0.019 +0.010 +0.009 +0.017 +0.020 +0.039 +0.005 +0.015
# oxidation-state O +0.115


-------- Electronic minimization -----------
Will mix electronic density at each iteration.
	FillingsUpdate:  mu: +0.894062391  nElectrons: 582.000000
	FillingsUpdate:  mu: +0.894060173  nElectrons: 582.000000
SCF: Cycle:  0   F: -3380.149398955775723   dF: +5.485e+01   |Residual|: 2.322e+00   |deigs|: 1.057e-02  t[s]:  12975.60
	FillingsUpdate:  mu: +0.921744196  nElectrons: 582.000000
SCF: Cycle:  1   F: -3326.742408958360102   dF: +5.341e+01   |Residual|: 3.691e+00   |deigs|: 8.829e-02  t[s]:  13109.94
	FillingsUpdate:  mu: +0.902425693  nElectrons: 582.000000
SCF: Cycle:  2   F: -3428.973648024545128   dF: -1.022e+02   |Residual|: 1.324e+00   |deigs|: 8.195e-02  t[s]:  13244.94
	FillingsUpdate:  mu: +0.897926608  nElectrons: 582.000000
SCF: Cycle:  3   F: -3436.617959814193910   dF: -7.644e+00   |Residual|: 5.266e-01   |deigs|: 2.187e-02  t[s]:  13380.02
	FillingsUpdate:  mu: +0.893913142  nElectrons: 582.000000
SCF: Cycle:  4   F: -3437.088164050552678   dF: -4.702e-01   |Residual|: 3.772e-01   |deigs|: 5.796e-03  t[s]:  13515.49
	FillingsUpdate:  mu: +0.893565094  nElectrons: 582.000000
SCF: Cycle:  5   F: -3437.561486195550060   dF: -4.733e-01   |Residual|: 1.979e-01   |deigs|: 2.245e-03  t[s]:  13649.94
	FillingsUpdate:  mu: +0.894001901  nElectrons: 582.000000
SCF: Cycle:  6   F: -3437.740707333004593   dF: -1.792e-01   |Residual|: 6.833e-02   |deigs|: 1.632e-03  t[s]:  13773.43
	FillingsUpdate:  mu: +0.893949380  nElectrons: 582.000000
SCF: Cycle:  7   F: -3437.746494611113576   dF: -5.787e-03   |Residual|: 5.590e-02   |deigs|: 3.763e-04  t[s]:  13885.52
	FillingsUpdate:  mu: +0.893834547  nElectrons: 582.000000
SCF: Cycle:  8   F: -3437.760808222191827   dF: -1.431e-02   |Residual|: 1.382e-02   |deigs|: 3.343e-04  t[s]:  13968.88
	FillingsUpdate:  mu: +0.893770893  nElectrons: 582.000000
SCF: Cycle:  9   F: -3437.760834292677373   dF: -2.607e-05   |Residual|: 1.294e-02   |deigs|: 1.564e-04  t[s]:  14059.00
	FillingsUpdate:  mu: +0.893760999  nElectrons: 582.000000
SCF: Cycle: 10   F: -3437.761523315155500   dF: -6.890e-04   |Residual|: 4.564e-03   |deigs|: 4.574e-05  t[s]:  14148.89
	FillingsUpdate:  mu: +0.893783496  nElectrons: 582.000000
SCF: Cycle: 11   F: -3437.761625125230239   dF: -1.018e-04   |Residual|: 2.406e-03   |deigs|: 5.849e-05  t[s]:  14226.31
	FillingsUpdate:  mu: +0.893780357  nElectrons: 582.000000
SCF: Cycle: 12   F: -3437.761631294903054   dF: -6.170e-06   |Residual|: 1.985e-03   |deigs|: 1.941e-05  t[s]:  14305.54
	FillingsUpdate:  mu: +0.893780233  nElectrons: 582.000000
SCF: Cycle: 13   F: -3437.761655261780561   dF: -2.397e-05   |Residual|: 4.432e-04   |deigs|: 1.317e-05  t[s]:  14382.41
	FillingsUpdate:  mu: +0.893780162  nElectrons: 582.000000
SCF: Cycle: 14   F: -3437.761655803809845   dF: -5.420e-07   |Residual|: 3.167e-04   |deigs|: 2.580e-06  t[s]:  14459.99
	FillingsUpdate:  mu: +0.893780032  nElectrons: 582.000000
SCF: Cycle: 15   F: -3437.761656109533305   dF: -3.057e-07   |Residual|: 1.662e-04   |deigs|: 1.541e-06  t[s]:  14538.95
	FillingsUpdate:  mu: +0.893780075  nElectrons: 582.000000
SCF: Cycle: 16   F: -3437.761656191599741   dF: -8.207e-08   |Residual|: 1.095e-04   |deigs|: 1.305e-06  t[s]:  14618.09
	FillingsUpdate:  mu: +0.893780188  nElectrons: 582.000000
SCF: Cycle: 17   F: -3437.761656229588425   dF: -3.799e-08   |Residual|: 6.482e-05   |deigs|: 9.272e-07  t[s]:  14694.65
	FillingsUpdate:  mu: +0.893780191  nElectrons: 582.000000
SCF: Cycle: 18   F: -3437.761656249361295   dF: -1.977e-08   |Residual|: 2.115e-05   |deigs|: 5.023e-07  t[s]:  14785.43
	FillingsUpdate:  mu: +0.893780177  nElectrons: 582.000000
[...]
force Ru  -0.004458373236560   0.002455383836516   0.001248761396738 1
force Ru  -0.001449591260370  -0.002870872506178  -0.004831607018041 1
force Ru   0.003861609825568   0.000793807844776   0.000084619860667 1
force Ru   0.004546925633950  -0.003500394910750   0.005526219657354 1
force Ru  -0.000420369518734  -0.000297428507857   0.005668382620554 1
force Ru  -0.003248929989433   0.000030655230644  -0.001503148654074 1
force Ru   0.000012662337426  -0.001620995500125   0.009197625546655 1
force Ru   0.004880777368439  -0.002534693056386   0.001880083789074 1
force Ru   0.005162465632979   0.000240316191783  -0.001516692361936 1
force Ru  -0.000162098965552  -0.002713068935370   0.001152370511330 1
force Ru   0.001774207167151  -0.005574790765741   0.006633390950354 1
force Ru   0.009231710441385  -0.005933483712457   0.000178795484976 1
force Ru   0.000161509475524  -0.003599970553695  -0.001940623596990 1
force Ru  -0.016821683582164   0.005228521941478  -0.006235736552965 1
force Ru  -0.003436191646267   0.002734138502960   0.000571362608909 1
force Ru  -0.008152848885470   0.004409764435372  -0.001448877702221 1
force O  -0.009809432343772  -0.003811194215943   0.007727083099344 1

# Energy components:
   Eewald =    -2986.7266668819270308
       EH =      502.1389672819954058
     Eloc =    -2245.8464080547746562
      Enl =      646.3331478530939194
      Exc =     -468.2506936933523889
 Exc_core =       74.7495317659239618
       KE =     1040.0729484024859630
-------------------------------------
     Etot =    -3437.5291733265548828
       TS =        0.2867551928568941
-------------------------------------
        F =    -3437.8159285194119548

IonicMinimize: Iter:  13  F: -3437.815928519411955  |grad|_K:  3.228e-04  alpha:  1.000e+00  linmin: -4.102e-01  t[s]:  26625.51

#--- Lowdin population analysis ---
# oxidation-state Ru +0.018 +0.065 +0.007 +0.021 +0.018 +0.009 +0.007 +0.021 +0.007 +0.065 +0.071 +0.021 +0.018 +0.007 +0.007 +0.022 +0.030 +0.010 +0.021 +0.020 +0.018 +0.010 +0.007 +0.021 +0.018 +0.007 +0.025 +0.022 +0.018 +0.007 +0.007 +0.022 +0.018 +0.064 +0.007 +0.021
# oxidation-state O +0.026


-------- Electronic minimization -----------
Will mix electronic density at each iteration.
	FillingsUpdate:  mu: +0.893439829  nElectrons: 582.000000
	FillingsUpdate:  mu: +0.893443917  nElectrons: 582.000000
SCF: Cycle:  0   F: -3437.815924231840654   dF: -7.361e-05   |Residual|: 3.140e-03   |deigs|: 2.553e-06  t[s]:  26799.62
	FillingsUpdate:  mu: +0.893440513  nElectrons: 582.000000
SCF: Cycle:  1   F: -3437.815715203068066   dF: +2.090e-04   |Residual|: 6.387e-03   |deigs|: 4.190e-05  t[s]:  26878.33
	FillingsUpdate:  mu: +0.893440666  nElectrons: 582.000000
SCF: Cycle:  2   F: -3437.815972956897440   dF: -2.578e-04   |Residual|: 9.320e-04   |deigs|: 3.416e-05  t[s]:  26957.17
	FillingsUpdate:  mu: +0.893441417  nElectrons: 582.000000
SCF: Cycle:  3   F: -3437.815968525044809   dF: +4.432e-06   |Residual|: 1.111e-03   |deigs|: 9.848e-06  t[s]:  27034.97
	FillingsUpdate:  mu: +0.893441243  nElectrons: 582.000000
SCF: Cycle:  4   F: -3437.815974621349596   dF: -6.096e-06   |Residual|: 3.264e-04   |deigs|: 6.421e-06  t[s]:  27113.51
	FillingsUpdate:  mu: +0.893440748  nElectrons: 582.000000
SCF: Cycle:  5   F: -3437.815974971750165   dF: -3.504e-07   |Residual|: 1.218e-04   |deigs|: 3.162e-06  t[s]:  27196.38
	FillingsUpdate:  mu: +0.893440788  nElectrons: 582.000000
SCF: Cycle:  6   F: -3437.815974926746549   dF: +4.500e-08   |Residual|: 1.372e-04   |deigs|: 9.796e-07  t[s]:  27274.79
	FillingsUpdate:  mu: +0.893440822  nElectrons: 582.000000
SCF: Cycle:  7   F: -3437.815975020289898   dF: -9.354e-08   |Residual|: 1.877e-05   |deigs|: 6.671e-07  t[s]:  27353.20
	FillingsUpdate:  mu: +0.893440837  nElectrons: 582.000000
SCF: Cycle:  8   F: -3437.815975016693756   dF: +3.596e-09   |Residual|: 2.740e-05   |deigs|: 1.883e-07  t[s]:  27431.88
	FillingsUpdate:  mu: +0.893440835  nElectrons: 582.000000
SCF: Cycle:  9   F: -3437.815975021483155   dF: -4.789e-09   |Residual|: 4.563e-06   |deigs|: 1.391e-07  t[s]:  27511.26
	FillingsUpdate:  mu: +0.893440833  nElectrons: 582.000000
SCF: Cycle: 10   F: -3437.815975021313989   dF: +1.692e-10   |Residual|: 5.910e-06   |deigs|: 4.080e-08  t[s]:  27577.90
	FillingsUpdate:  mu: +0.893440831  nElectrons: 582.000000
SCF: Cycle: 11   F: -3437.815975021477698   dF: -1.637e-10   |Residual|: 7.227e-07   |deigs|: 2.788e-08  t[s]:  27634.07
	FillingsUpdate:  mu: +0.893440830  nElectrons: 582.000000
SCF: Cycle: 12   F: -3437.815975021264421   dF: +2.133e-10   |Residual|: 8.544e-07   |deigs|: 1.276e-08  t[s]:  27688.54
	FillingsUpdate:  mu: +0.893440830  nElectrons: 582.000000
SCF: Cycle: 13   F: -3437.815975021414033   dF: -1.496e-10   |Residual|: 2.214e-07   |deigs|: 1.183e-08  t[s]:  27740.11
	FillingsUpdate:  mu: +0.893440830  nElectrons: 582.000000
SCF: Cycle: 14   F: -3437.815975021567738   dF: -1.537e-10   |Residual|: 2.286e-07   |deigs|: 1.069e-08  t[s]:  27787.79
SCF: Converged (|Delta E|<1.000000e-08 for 2 iters).

Setting wave functions to eigenvectors of Hamiltonian

# Ionic positions in lattice coordinates:
ion Ru   0.110398819000038   0.225656835666414   0.122932439412988 1
ion Ru   0.236870222725299   0.136960737054700   0.360523009407541 1
ion Ru   0.113988490178617   0.223947628918049   0.627158054838905 1
ion Ru   0.228536922029214   0.120528355817714   0.883714725282121 1
ion Ru   0.110479400327290   0.551194741932799   0.122823971344398 1
ion Ru   0.220767694517101   0.443300887871115   0.376312022685770 1
ion Ru   0.113978184592841   0.556692913018629   0.627256681020526 1
ion Ru   0.224031284087773   0.445102996358391   0.874414418484808 1
ion Ru   0.113258924768626   0.889703375593366   0.122950965561663 1
ion Ru   0.237275174165483   0.765771207057570   0.360513395406387 1
ion Ru   0.113069771199266   0.889807742518391   0.668511369387275 1
ion Ru   0.228637854194198   0.774222898944502   0.883625167999268 1
ion Ru   0.451605449658437   0.225762247541842   0.122955370583121 1
ion Ru   0.558362949971128   0.112273663919146   0.375922392965636 1
ion Ru   0.446043704774012   0.224118713798201   0.627120229075048 1
ion Ru   0.559128056695962   0.112702496915026   0.873741492305083 1
ion Ru   0.446376044605982   0.556401646050989   0.122806532315260 1
ion Ru   0.559398367120164   0.443647266507797   0.376226233317277 1
ion Ru   0.446180520820308   0.556511360208790   0.624483217248376 1
ion Ru   0.557474509611905   0.445133013705873   0.874368975977599 1
ion Ru   0.451739874580790   0.892267970933739   0.122835173905067 1
ion Ru   0.559721842007353   0.782014501859929   0.376297299459769 1
ion Ru   0.446215994405350   0.888734971248713   0.627194773562546 1
ion Ru   0.557691837522301   0.778585080380737   0.874351911612930 1
ion Ru   0.779699601932739   0.223027255571964   0.123825408949641 1
ion Ru   0.890648436975119   0.112228746519247   0.375983576832550 1
ion Ru   0.779615885164370   0.223195243559056   0.624655552460881 1
ion Ru   0.890036058799143   0.112578514514082   0.873718542612240 1
ion Ru   0.777048116819946   0.551211657658267   0.122995482737252 1
ion Ru   0.890579333642806   0.444472559723032   0.375865738685001 1
ion Ru   0.778604554111684   0.556591744786756   0.627152205115428 1
ion Ru   0.889922979661768   0.443570032518052   0.873755569252108 1
ion Ru   0.777238193457815   0.892303970491618   0.123018587265206 1
ion Ru   0.866346939893633   0.766160055536346   0.360626900018372 1
ion Ru   0.778871049509934   0.888716630632579   0.627156646036717 1
ion Ru   0.882278955341050   0.774150089372379   0.883686696778190 1
ion O   0.114018001130553   0.889730245294201   0.449909270097051 1

# Forces in Lattice coordinates:
force Ru   0.000221038829247  -0.000111905210828   0.000673981729372 1
force Ru  -0.001334401471714   0.011294512159588  -0.005501866271666 1
force Ru  -0.000249080709622   0.001776814945546  -0.000091820432857 1
force Ru   0.000277741672843   0.002122613069050  -0.000535540597420 1
force Ru   0.000474567496717   0.000346475462289   0.000049309315804 1
force Ru   0.000895826167675   0.000346299405707  -0.001171507944727 1
force Ru   0.003321272702925  -0.003698569163541  -0.002473287226880 1
force Ru   0.001967492933743  -0.001543369671596  -0.001122061489582 1
force Ru  -0.002752437438028   0.001850946050497  -0.001774515270810 1
force Ru  -0.000404733430784  -0.001540846574919  -0.002200690088396 1
force Ru   0.000046163884082  -0.000918517011573  -0.002109848290990 1
force Ru   0.001893819570721  -0.002597401904328   0.000211248609611 1
force Ru   0.000219944158022  -0.001811734479297  -0.001177585889881 1
force Ru   0.001762774471636  -0.001764145805539  -0.001223256184566 1
force Ru   0.005252452446664  -0.003295921475389   0.001598180362642 1
force Ru   0.000388245659880  -0.001005426066652   0.001096866274862 1
force Ru  -0.001409760875776   0.001392153961153  -0.004682872949035 1
force Ru   0.000853882740681  -0.002557449793303   0.001292577956780 1
force Ru   0.002821521442059  -0.001887086230356  -0.002105449885392 1
force Ru   0.002601133289730  -0.000389924761018   0.000729094889767 1
force Ru  -0.002462994610745   0.001654029544847  -0.000611797687172 1
force Ru  -0.002684553772859   0.000313318451020  -0.000997711190468 1
force Ru   0.001041047989557  -0.001156772057404  -0.000779462166809 1
force Ru   0.000245414096123   0.000572334324982   0.001229615749676 1
force Ru  -0.000751584821783   0.001307913266515   0.003656521937826 1
force Ru  -0.002398307432203   0.001536078494896  -0.000926787859973 1
force Ru  -0.000028726303382  -0.000847900203604   0.005466021373033 1
force Ru   0.002082390362625  -0.000794904276445   0.001907275039442 1
force Ru   0.001582699457621   0.001095152424863  -0.001113177672187 1
force Ru   0.001053018365907  -0.000540959197821   0.000862454184258 1
force Ru   0.003592139998623  -0.002367774392346   0.000508418285031 1
force Ru   0.003289820026112  -0.000750676519010   0.001358656230247 1
force Ru  -0.000801660703419   0.000937583908756  -0.001552776625333 1
force Ru  -0.007208458494971   0.001479653217145  -0.001477643633685 1
force Ru  -0.001912148635850   0.001408743235245  -0.000780291312104 1
force Ru  -0.003570129675522   0.001298455495850   0.000930107384305 1
force O  -0.009840646382910  -0.000717583222122   0.009839012158305 1

# Energy components:
   Eewald =    -2986.7188951096281926
       EH =      502.1453704209148441
     Eloc =    -2245.8608005657333706
      Enl =      646.3333034897290190
      Exc =     -468.2508689381604654
 Exc_core =       74.7495314042585193
       KE =     1040.0731358648731657
-------------------------------------
     Etot =    -3437.5292234337462105
       TS =        0.2867515878215147
-------------------------------------
        F =    -3437.8159750215677377

IonicMinimize: Iter:  14  F: -3437.815975021567738  |grad|_K:  1.723e-04  alpha:  1.000e+00  linmin: -3.907e-01  t[s]:  27805.03

#--- Lowdin population analysis ---
# oxidation-state Ru +0.018 +0.065 +0.007 +0.021 +0.018 +0.009 +0.007 +0.021 +0.007 +0.064 +0.071 +0.021 +0.018 +0.007 +0.007 +0.022 +0.030 +0.010 +0.021 +0.020 +0.018 +0.010 +0.007 +0.021 +0.019 +0.007 +0.025 +0.022 +0.018 +0.007 +0.007 +0.022 +0.018 +0.064 +0.007 +0.021
# oxidation-state O +0.026


-------- Electronic minimization -----------
Will mix electronic density at each iteration.
	FillingsUpdate:  mu: +0.893440830  nElectrons: 582.000000
	FillingsUpdate:  mu: +0.893441746  nElectrons: 582.000000
SCF: Cycle:  0   F: -3437.815964513981271   dF: -1.840e-05   |Residual|: 1.813e-03   |deigs|: 7.148e-07  t[s]:  27933.01
	FillingsUpdate:  mu: +0.893440379  nElectrons: 582.000000
SCF: Cycle:  1   F: -3437.815875340532330   dF: +8.917e-05   |Residual|: 3.869e-03   |deigs|: 3.526e-05  t[s]:  28009.59
	FillingsUpdate:  mu: +0.893441445  nElectrons: 582.000000
SCF: Cycle:  2   F: -3437.815986404866635   dF: -1.111e-04   |Residual|: 5.185e-04   |deigs|: 2.715e-05  t[s]:  28087.83
	FillingsUpdate:  mu: +0.893440974  nElectrons: 582.000000
SCF: Cycle:  3   F: -3437.815984783225304   dF: +1.622e-06   |Residual|: 6.529e-04   |deigs|: 4.376e-06  t[s]:  28166.90
	FillingsUpdate:  mu: +0.893441237  nElectrons: 582.000000
SCF: Cycle:  4   F: -3437.815987124329695   dF: -2.341e-06   |Residual|: 1.182e-04   |deigs|: 3.668e-06  t[s]:  28256.55
	FillingsUpdate:  mu: +0.893441372  nElectrons: 582.000000
SCF: Cycle:  5   F: -3437.815987122718070   dF: +1.612e-09   |Residual|: 9.639e-05   |deigs|: 1.191e-06  t[s]:  28334.16
	FillingsUpdate:  mu: +0.893441370  nElectrons: 582.000000
SCF: Cycle:  6   F: -3437.815987161057365   dF: -3.834e-08   |Residual|: 4.569e-05   |deigs|: 6.913e-07  t[s]:  28412.96
	FillingsUpdate:  mu: +0.893441312  nElectrons: 582.000000
SCF: Cycle:  7   F: -3437.815987170993594   dF: -9.936e-09   |Residual|: 1.541e-05   |deigs|: 4.415e-07  t[s]:  28489.38
	FillingsUpdate:  mu: +0.893441327  nElectrons: 582.000000
SCF: Cycle:  8   F: -3437.815987170724839   dF: +2.688e-10   |Residual|: 1.649e-05   |deigs|: 1.597e-07  t[s]:  28567.82
	FillingsUpdate:  mu: +0.893441332  nElectrons: 582.000000
SCF: Cycle:  9   F: -3437.815987172107270   dF: -1.382e-09   |Residual|: 2.937e-06   |deigs|: 9.334e-08  t[s]:  28643.60
	FillingsUpdate:  mu: +0.893441333  nElectrons: 582.000000
SCF: Cycle: 10   F: -3437.815987172221867   dF: -1.146e-10   |Residual|: 3.306e-06   |deigs|: 2.500e-08  t[s]:  28696.13
SCF: Converged (|Delta E|<1.000000e-08 for 2 iters).

Setting wave functions to eigenvectors of Hamiltonian

# Ionic positions in lattice coordinates:
ion Ru   0.110462686658046   0.225702700933164   0.122950246927419 1
ion Ru   0.236894678696524   0.137087680616459   0.360508268069450 1
ion Ru   0.114072782204257   0.224042267532958   0.627131147124188 1
ion Ru   0.228598975951993   0.120571908902755   0.883663846587421 1
ion Ru   0.110577921877242   0.551321708395375   0.122902084299147 1
ion Ru   0.220842060000210   0.443462058590053   0.376263191591447 1
ion Ru   0.114077488008897   0.556634366491135   0.627194276244401 1
ion Ru   0.224123041551628   0.445089206797479   0.874392187966961 1
ion Ru   0.113137071797597   0.889739162857726   0.122907493155404 1
ion Ru   0.237069539268792   0.765976516348822   0.360619712235236 1
ion Ru   0.113076910323671   0.889759309191011   0.668453544315571 1
ion Ru   0.228693844350136   0.774177351077327   0.883603557986364 1
ion Ru   0.451590966089065   0.225696349997084   0.122914815236553 1
ion Ru   0.558427200209785   0.112282153972846   0.375901469577359 1
ion Ru   0.446213321871072   0.224061363139869   0.627174475167730 1
ion Ru   0.559204565604522   0.112651044041753   0.873819092205915 1
ion Ru   0.446365890106136   0.556397531281003   0.122687053388272 1
ion Ru   0.559351872447546   0.443488983540065   0.376246940518819 1
ion Ru   0.446288147648276   0.556487158823842   0.624431036160770 1
ion Ru   0.557597113787242   0.445121556261361   0.874412884550667 1
ion Ru   0.451623897287555   0.892259963170693   0.122871794766310 1
ion Ru   0.559507854713817   0.781978497246154   0.376264861397355 1
ion Ru   0.446305321005943   0.888744514207245   0.627191388161038 1
ion Ru   0.557735846619859   0.778611567002666   0.874389163680895 1
ion Ru   0.779763104681938   0.223066712590529   0.123921862122428 1
ion Ru   0.890601434451721   0.112236653553739   0.375959925797947 1
ion Ru   0.779666742266345   0.223146864791617   0.624821003834083 1
ion Ru   0.890185831798445   0.112587901599810   0.873801289193133 1
ion Ru   0.777104796665191   0.551206356652541   0.122897222497850 1
ion Ru   0.890602733339899   0.444490519883987   0.375911826585963 1
ion Ru   0.778700686633376   0.556534625977016   0.627195232015226 1
ion Ru   0.890132049531972   0.443590546497671   0.873829331868084 1
ion Ru   0.777202234066956   0.892314776789988   0.122923616273942 1
ion Ru   0.865941310624760   0.765983885453526   0.360534024287138 1
ion Ru   0.778826283800064   0.888703277918755   0.627133744002559 1
ion Ru   0.882216889240932   0.774098862879711   0.883658495586680 1
ion O   0.113356904818589   0.889674094992264   0.449907894620275 1

# Forces in Lattice coordinates:
force Ru  -0.000585891280093   0.000724864017632  -0.000045870394546 1
force Ru  -0.001133757514518   0.002833254240413  -0.001193261870638 1
force Ru   0.000652302065859  -0.000736075293175  -0.000082771061312 1
force Ru   0.001039333567579  -0.000126175284130  -0.000844666010669 1
force Ru   0.000414535345330  -0.000589920357398  -0.001139356316034 1
force Ru   0.001267682356282  -0.001353204190174  -0.000491842566475 1
force Ru   0.001420518323081  -0.001284292773692  -0.000380866172413 1
force Ru   0.000806328478652   0.000079552533875  -0.000794165622690 1
force Ru  -0.000572758476937   0.000548844891565  -0.000824684342193 1
force Ru   0.001047758044161  -0.002910779469058  -0.002524710473819 1
force Ru  -0.000658846792167   0.000400164877249   0.004481285544216 1
force Ru  -0.000217727654035  -0.000037989869867  -0.000287106539127 1
force Ru   0.000312515271431  -0.000296519814849  -0.000283213094984 1
force Ru  -0.000252391658057  -0.000922513939471   0.000226508437210 1
force Ru   0.000965132579491  -0.001062100535756   0.000572946892664 1
force Ru  -0.000561743394666  -0.000053879736345  -0.000128430071560 1
force Ru   0.000246285685422   0.000596322571667  -0.000422222891096 1
force Ru   0.001076064080905  -0.000278150023788   0.000363509424536 1
force Ru   0.001545290696101  -0.001205305170276  -0.000398631820355 1
force Ru   0.001085026957431  -0.000704055633468  -0.001234476069229 1
force Ru  -0.000887782099544   0.000415466845015  -0.000115077883068 1
force Ru  -0.000419695389072  -0.000229531549637  -0.001006515755668 1
force Ru  -0.000917369928956  -0.000212683675807  -0.000500486235030 1
force Ru  -0.000562284666445   0.000252023671883  -0.000736266449474 1
force Ru  -0.000818793396285   0.000841166846145   0.000973332792645 1
force Ru  -0.000342900544572   0.000412767486893   0.000180812124770 1
force Ru   0.000525032179825  -0.000277046249053   0.000827548116655 1
force Ru   0.000149827352640   0.000089006330162  -0.000681082243405 1
force Ru   0.000107539226764   0.000412880936930   0.001722940844179 1
force Ru   0.000841137007007  -0.000887041375316   0.000149742554888 1
force Ru   0.001519300266415  -0.000361497726985  -0.000307142532424 1
force Ru   0.000645863304340   0.000388573020873  -0.000377745209112 1
force Ru  -0.002021575932337   0.001488884112957   0.001450947288604 1
force Ru  -0.006794161179091   0.001756461134887  -0.002499778124424 1
force Ru  -0.000150719064873   0.000295267477259  -0.000121569255234 1
force Ru   0.000169084103555   0.001181500899913  -0.001240762849815 1
force O  -0.000845571676530   0.001210682848893   0.004766278178513 1

# Energy components:
   Eewald =    -2986.7102757408310936
       EH =      502.1540981869662232
     Eloc =    -2245.8784251738429703
      Enl =      646.3333133842204461
      Exc =     -468.2509719451294927
 Exc_core =       74.7495312122612603
       KE =     1040.0734896402850609
-------------------------------------
     Etot =    -3437.5292404360702676
       TS =        0.2867467361516930
-------------------------------------
        F =    -3437.8159871722218668

IonicMinimize: Iter:  15  F: -3437.815987172221867  |grad|_K:  8.084e-05  alpha:  1.000e+00  linmin: -2.354e-01  t[s]:  28713.40
IonicMinimize: Converged (|grad|_K<1.000000e-04).

#--- Lowdin population analysis ---
# oxidation-state Ru +0.018 +0.065 +0.007 +0.021 +0.018 +0.010 +0.007 +0.021 +0.007 +0.064 +0.071 +0.021 +0.018 +0.007 +0.007 +0.022 +0.030 +0.010 +0.021 +0.020 +0.018 +0.010 +0.007 +0.021 +0.019 +0.007 +0.024 +0.022 +0.018 +0.007 +0.007 +0.022 +0.018 +0.065 +0.007 +0.021
# oxidation-state O +0.026


Dumping '/data/rc652/Ru/tet/Ru_tet.Ecomponents' ... done
End date and time: Fri Jul 12 23:40:29 2024  (Duration: 0-7:58:46.19)
Done!
