--------------------------------------------------------------------------
Initialization of PSM library failed.

  Error: PSM is in the finalized state
--------------------------------------------------------------------------

*************** JDFTx 1.7.0 (git hash 3664913) ***************

Start date and time: Sun Jun 16 19:50:27 2024
Executable jdftx with command-line: -i IrO2_ion.in
Running on hosts (process indices):  node3204.physics.cornell.edu (0-15)
Divided in process groups (process indices):  0 (0)  1 (1)  2 (2)  3 (3)  4 (4)  5 (5)  6 (6)  7 (7)  8 (8)  9 (9)  10 (10)  11 (11)  12 (12)  13 (13)  14 (14)  15 (15)
Resource initialization completed at t[s]:      0.00
Run totals: 16 processes, 32 threads, 0 GPUs


Input parsed successfully to the following command list (including defaults):

basis kpoint-dependent
coords-type Lattice
core-overlap-check vector
coulomb-interaction Periodic
davidson-band-ratio 1.1
dump End Ecomponents
dump-name $INPUT.$VAR
elec-cutoff 20 100
elec-eigen-algo Davidson
elec-ex-corr gga-PBEsol
elec-smearing Fermi 0.01
electronic-minimize  \
	dirUpdateScheme      FletcherReeves \
	linminMethod         DirUpdateRecommended \
	nIterations          100 \
	history              15 \
	knormThreshold       0 \
	maxThreshold         no \
	energyDiffThreshold  1e-08 \
	nEnergyDiff          2 \
	alphaTstart          1 \
	alphaTmin            1e-10 \
	updateTestStepSize   yes \
	alphaTreduceFactor   0.1 \
	alphaTincreaseFactor 3 \
	nAlphaAdjustMax      3 \
	wolfeEnergy          0.0001 \
	wolfeGradient        0.9 \
	fdTest               no
electronic-scf  \
	nIterations	50 \
	energyDiffThreshold	1e-08 \
	residualThreshold	1e-07 \
	mixFraction	0.5 \
	qMetric	0.8 \
	history	10 \
	nEigSteps	2 \
	eigDiffThreshold	1e-08 \
	mixedVariable	Density \
	qKerker	0.8 \
	qKappa	-1 \
	verbose	no \
	mixFractionMag	1.5
exchange-regularization WignerSeitzTruncated
fluid None
fluid-ex-corr lda-TF lda-PZ
fluid-gummel-loop 10 1.000000e-05
fluid-minimize  \
	dirUpdateScheme      PolakRibiere \
	linminMethod         DirUpdateRecommended \
	nIterations          100 \
	history              15 \
	knormThreshold       0 \
	maxThreshold         no \
	energyDiffThreshold  0 \
	nEnergyDiff          2 \
	alphaTstart          1 \
	alphaTmin            1e-10 \
	updateTestStepSize   yes \
	alphaTreduceFactor   0.1 \
	alphaTincreaseFactor 3 \
	nAlphaAdjustMax      3 \
	wolfeEnergy          0.0001 \
	wolfeGradient        0.9 \
	fdTest               no
fluid-solvent H2O 55.338 ScalarEOS \
	epsBulk 78.4 \
	pMol 0.92466 \
	epsInf 1.77 \
	Pvap 1.06736e-10 \
	sigmaBulk 4.62e-05 \
	Rvdw 2.61727 \
	Res 1.42 \
	tauNuc 343133 \
	poleEl 15 7 1
forces-output-coords Positions
ion Ir   0.261570000000000   0.238230000000000   0.263670000000000 1
ion Ir   0.000000000000000  -0.000000000000000   0.000000000000000 0
ion Ir   0.248450000000000   0.247440000000000   0.760850000000000 1
ion Ir   0.000690000000000  -0.009780000000000   0.499240000000000 1
ion Ir   0.246480000000000   0.741330000000000   0.257470000000000 1
ion Ir  -0.009490000000000   0.484660000000000   0.025280000000000 1
ion Ir   0.245280000000000   0.759840000000000   0.759390000000000 1
ion Ir  -0.003440000000000   0.494160000000000   0.494280000000000 1
ion Ir   0.743540000000000   0.254760000000000   0.266150000000000 1
ion Ir   0.501580000000000   0.000290000000000   0.000150000000000 1
ion Ir   0.738910000000000   0.248780000000000   0.743520000000000 1
ion Ir   0.498170000000000  -0.008500000000000   0.508670000000000 1
ion Ir   0.765130000000000   0.738510000000000   0.250550000000000 1
ion Ir   0.489340000000000   0.498900000000000   0.000300000000000 1
ion Ir   0.753480000000000   0.739270000000000   0.763010000000000 1
ion Ir   0.498860000000000   0.495300000000000   0.489370000000000 1
ion O  -0.006690000000000   0.352390000000000   0.350080000000000 1
ion O   0.247830000000000   0.405680000000000   0.106340000000000 1
ion O  -0.004790000000000   0.169600000000000   0.143490000000000 1
ion O   0.246510000000000   0.111670000000000   0.404000000000000 1
ion O  -0.009290000000000   0.353110000000000   0.844100000000000 1
ion O   0.252280000000000   0.409190000000000   0.594640000000000 1
ion O   0.010220000000000   0.155360000000000   0.650240000000000 1
ion O   0.239070000000000   0.089320000000000   0.904120000000000 1
ion O   0.010450000000000   0.842010000000000   0.357910000000000 1
ion O   0.244350000000000   0.873310000000000   0.098190000000000 1
ion O  -0.005090000000000   0.663300000000000   0.160800000000000 1
ion O   0.254320000000000   0.590190000000000   0.406650000000000 1
ion O  -0.001280000000000   0.855770000000000   0.825860000000000 1
ion O   0.238020000000000   0.891540000000000   0.588240000000000 1
ion O   0.016850000000000   0.648630000000000   0.646350000000000 1
ion O   0.265420000000000   0.611390000000000   0.911870000000000 1
ion O   0.488490000000000   0.338970000000000   0.345630000000000 1
ion O   0.741000000000000   0.389670000000000   0.088140000000000 1
ion O   0.515910000000000   0.149380000000000   0.163230000000000 1
ion O   0.738680000000000   0.099800000000000   0.392960000000000 1
ion O   0.513880000000000   0.339180000000000   0.836360000000000 1
ion O   0.743260000000000   0.400630000000000   0.588900000000000 1
ion O   0.515730000000000   0.167470000000000   0.658100000000000 1
ion O   0.745550000000000   0.093020000000000   0.909570000000000 1
ion O   0.511720000000000   0.839510000000000   0.352440000000000 1
ion O   0.750860000000000   0.912970000000000   0.087440000000000 1
ion O   0.501860000000000   0.634120000000000   0.166830000000000 1
ion O   0.725870000000000   0.602680000000000   0.405860000000000 1
ion O   0.510810000000000   0.837830000000000   0.849580000000000 1
ion O   0.740890000000000   0.906350000000000   0.583450000000000 1
ion O   0.503870000000000   0.641270000000000   0.665340000000000 1
ion O   0.747250000000000   0.609260000000000   0.893560000000000 1
ion-species GBRV/$ID_pbesol.uspp
ion-width 0
ionic-minimize  \
	dirUpdateScheme      L-BFGS \
	linminMethod         DirUpdateRecommended \
	nIterations          30 \
	history              15 \
	knormThreshold       0.0001 \
	maxThreshold         no \
	energyDiffThreshold  1e-06 \
	nEnergyDiff          2 \
	alphaTstart          1 \
	alphaTmin            1e-10 \
	updateTestStepSize   yes \
	alphaTreduceFactor   0.1 \
	alphaTincreaseFactor 3 \
	nAlphaAdjustMax      3 \
	wolfeEnergy          0.0001 \
	wolfeGradient        0.9 \
	fdTest               no
kpoint   0.000000000000   0.000000000000   0.000000000000  1.00000000000000
kpoint-folding 4 4 4 
latt-move-scale 1 1 1
latt-scale 1 1 1 
lattice  \
	  11.930774155486494   -0.000000000000000    0.000000000000000  \
	  -0.000000000000000   16.949602172872201    0.000018234516261  \
	   0.000000000000000    0.000018234516261   16.949602172872201 
lattice-minimize  \
	dirUpdateScheme      L-BFGS \
	linminMethod         DirUpdateRecommended \
	nIterations          0 \
	history              15 \
	knormThreshold       0 \
	maxThreshold         no \
	energyDiffThreshold  1e-06 \
	nEnergyDiff          2 \
	alphaTstart          1 \
	alphaTmin            1e-10 \
	updateTestStepSize   yes \
	alphaTreduceFactor   0.1 \
	alphaTincreaseFactor 3 \
	nAlphaAdjustMax      3 \
	wolfeEnergy          0.0001 \
	wolfeGradient        0.9 \
	fdTest               no
lcao-params -1 1e-06 0.01
pcm-variant GLSSA13
perturb-minimize  \
	nIterations            0 \
	algorithm              MINRES \
	residualTol            0.0001 \
	residualDiffThreshold  0.0001 \
	CGBypass               no \
	recomputeResidual      no
spintype no-spin
subspace-rotation-factor 1 yes
symmetries automatic
symmetry-threshold 0.0001



---------- Setting up symmetries ----------

Found 16 point-group symmetries of the bravais lattice
Found 1 space-group symmetries with basis
Applied RMS atom displacement 0 bohrs to make symmetries exact.

---------- Initializing the Grid ----------
R = 
[      11.9308            0            0  ]
[            0      16.9496  1.82345e-05  ]
[            0  1.82345e-05      16.9496  ]
unit cell volume = 3427.58
G =
[   0.526637          0         -0  ]
[          0   0.370698 -3.988e-07  ]
[         -0 -3.988e-07   0.370698  ]
Minimum fftbox size, Smin = [  56  80  80  ]
Chosen fftbox size, S = [  56  80  80  ]

---------- Initializing tighter grid for wavefunction operations ----------
R = 
[      11.9308            0            0  ]
[            0      16.9496  1.82345e-05  ]
[            0  1.82345e-05      16.9496  ]
unit cell volume = 3427.58
G =
[   0.526637          0         -0  ]
[          0   0.370698 -3.988e-07  ]
[         -0 -3.988e-07   0.370698  ]
Minimum fftbox size, Smin = [  52  72  72  ]
Chosen fftbox size, S = [  54  72  72  ]

---------- Exchange Correlation functional ----------
Initalized PBEsol GGA exchange.
Initalized PBEsol GGA correlation.

---------- Setting up pseudopotentials ----------
Width of ionic core gaussian charges (only for fluid interactions / plotting) set to 0

Reading pseudopotential file '/home/rc652/build/pseudopotentials/GBRV/ir_pbesol.uspp':
  Title: Ir.  Created by USPP 7.3.6 on 3-2-2014
  Reference state energy: -90.341717.  15 valence electrons in orbitals:
    |510>  occupation: 6  eigenvalue: -2.020249
    |520>  occupation: 8.5  eigenvalue: -0.307346
    |600>  occupation: 0  eigenvalue: -0.313250
    |610>  occupation: 0  eigenvalue: -0.121182
  lMax: 2  lLocal: 3  QijEcut: 5
  7 projectors sampled on a log grid with 745 points:
    l: 0  eig: -0.313250  rCut: 2.55
    l: 0  eig: 0.250000  rCut: 2.55
    l: 1  eig: -2.020249  rCut: 1.62
    l: 1  eig: -0.121182  rCut: 1.62
    l: 1  eig: 1.000000  rCut: 1.62
    l: 2  eig: -0.500000  rCut: 1.65
    l: 2  eig: -0.307346  rCut: 1.65
  Partial core density with radius 1.15
  Transforming core density to a uniform radial grid of dG=0.02 with 1287 points.
  Transforming local potential to a uniform radial grid of dG=0.02 with 1287 points.
  Transforming nonlocal projectors to a uniform radial grid of dG=0.02 with 432 points.
  Transforming density augmentations to a uniform radial grid of dG=0.02 with 1287 points.
  Transforming atomic orbitals to a uniform radial grid of dG=0.02 with 432 points.
  Core radius for overlap checks: 2.55 bohrs.

Reading pseudopotential file '/home/rc652/build/pseudopotentials/GBRV/o_pbesol.uspp':
  Title: O.  Created by USPP 7.3.6 on 3-2-2014
  Reference state energy: -15.849885.  6 valence electrons in orbitals:
    |200>  occupation: 2  eigenvalue: -0.873214
    |210>  occupation: 4  eigenvalue: -0.330058
  lMax: 2  lLocal: 2  QijEcut: 6
  5 projectors sampled on a log grid with 511 points:
    l: 0  eig: -0.873214  rCut: 1.25
    l: 0  eig: 0.000000  rCut: 1.25
    l: 1  eig: -0.330058  rCut: 1.25
    l: 1  eig: 0.000000  rCut: 1.25
    l: 2  eig: 1.000000  rCut: 1.25
  Partial core density with radius 0.7
  Transforming core density to a uniform radial grid of dG=0.02 with 1287 points.
  Transforming local potential to a uniform radial grid of dG=0.02 with 1287 points.
  Transforming nonlocal projectors to a uniform radial grid of dG=0.02 with 432 points.
  Transforming density augmentations to a uniform radial grid of dG=0.02 with 1287 points.
  Transforming atomic orbitals to a uniform radial grid of dG=0.02 with 432 points.
  Core radius for overlap checks: 1.25 bohrs.

Initialized 2 species with 48 total atoms.

Folded 1 k-points by 4x4x4 to 64 k-points.

---------- Setting up k-points, bands, fillings ----------
Adding inversion symmetry to k-mesh for non-inversion-symmetric unit cell.
Reduced to 36 k-points under symmetry. 
Computing the number of bands and number of electrons
Calculating initial fillings.
nElectrons: 432.000000   nBands: 320   nStates: 36

----- Setting up reduced wavefunction bases (one per k-point) -----
average nbasis = 14641.141 , ideal nbasis = 14642.884

---------- Setting up ewald sum ----------
Optimum gaussian width for ewald sums = 3.155240 bohr.
Real space sum over 441 unit cells with max indices [  4  3  3  ]
Reciprocal space sum over 6615 terms with max indices [  7  10  10  ]

---------- Allocating electronic variables ----------
Initializing wave functions:  linear combination of atomic orbitals
Ir pseudo-atom occupations:   s ( 2 )  p ( 6 0 )  d ( 7 )
O pseudo-atom occupations:   s ( 2 )  p ( 4 )
	FillingsUpdate:  mu: +0.564061256  nElectrons: 432.000000
LCAOMinimize: Iter:   0  F: -1734.8881650000685113  |grad|_K:  1.430e-03  alpha:  1.000e+00
	FillingsUpdate:  mu: +0.539112192  nElectrons: 432.000000
LCAOMinimize: Iter:   1  F: -1735.5850052514931576  |grad|_K:  8.977e-04  alpha:  1.735e-01  linmin: -4.026e-02  cgtest:  4.951e-02  t[s]:    116.47
	FillingsUpdate:  mu: +0.532817632  nElectrons: 432.000000
LCAOMinimize: Iter:   2  F: -1735.7549970355535152  |grad|_K:  4.179e-04  alpha:  1.072e-01  linmin:  1.748e-03  cgtest: -9.981e-02  t[s]:    156.52
	FillingsUpdate:  mu: +0.528575423  nElectrons: 432.000000
LCAOMinimize: Iter:   3  F: -1735.7819255959848306  |grad|_K:  1.646e-04  alpha:  8.345e-02  linmin:  3.295e-04  cgtest:  9.565e-02  t[s]:    199.15
	FillingsUpdate:  mu: +0.527540871  nElectrons: 432.000000
LCAOMinimize: Iter:   4  F: -1735.7897447871298482  |grad|_K:  1.095e-04  alpha:  1.552e-01  linmin: -2.817e-03  cgtest:  9.206e-03  t[s]:    240.51
	FillingsUpdate:  mu: +0.525906530  nElectrons: 432.000000
LCAOMinimize: Iter:   5  F: -1735.7952042238102877  |grad|_K:  1.218e-04  alpha:  2.428e-01  linmin: -1.207e-03  cgtest: -1.348e-02  t[s]:    280.65
	FillingsUpdate:  mu: +0.524414574  nElectrons: 432.000000
LCAOMinimize: Iter:   6  F: -1735.7982837040808590  |grad|_K:  6.070e-05  alpha:  1.116e-01  linmin:  8.043e-04  cgtest: -3.126e-02  t[s]:    320.83
	FillingsUpdate:  mu: +0.524043010  nElectrons: 432.000000
LCAOMinimize: Iter:   7  F: -1735.7991035836676019  |grad|_K:  1.410e-05  alpha:  1.205e-01  linmin: -1.259e-03  cgtest:  3.784e-02  t[s]:    360.51
	FillingsUpdate:  mu: +0.524002353  nElectrons: 432.000000
LCAOMinimize: Iter:   8  F: -1735.7991472649562184  |grad|_K:  8.929e-06  alpha:  1.183e-01  linmin:  3.140e-05  cgtest: -2.941e-03  t[s]:    401.87
	FillingsUpdate:  mu: +0.523993277  nElectrons: 432.000000
LCAOMinimize: Iter:   9  F: -1735.7991628189950006  |grad|_K:  4.896e-06  alpha:  1.052e-01  linmin: -6.115e-06  cgtest:  1.081e-03  t[s]:    440.94
	FillingsUpdate:  mu: +0.524001296  nElectrons: 432.000000
LCAOMinimize: Iter:  10  F: -1735.7991706761717978  |grad|_K:  3.561e-06  alpha:  1.767e-01  linmin:  8.914e-06  cgtest: -4.022e-04  t[s]:    481.12
	FillingsUpdate:  mu: +0.524000800  nElectrons: 432.000000
LCAOMinimize: Iter:  11  F: -1735.7991762598105652  |grad|_K:  2.939e-06  alpha:  2.374e-01  linmin:  1.700e-05  cgtest:  2.033e-04  t[s]:    521.34
	FillingsUpdate:  mu: +0.524000381  nElectrons: 432.000000
LCAOMinimize: Iter:  12  F: -1735.7991779846745430  |grad|_K:  1.926e-06  alpha:  1.077e-01  linmin: -1.485e-05  cgtest:  5.924e-04  t[s]:    562.11
	FillingsUpdate:  mu: +0.524007610  nElectrons: 432.000000
LCAOMinimize: Iter:  13  F: -1735.7991788936776629  |grad|_K:  5.979e-07  alpha:  1.322e-01  linmin:  1.169e-04  cgtest: -8.225e-04  t[s]:    601.77
	FillingsUpdate:  mu: +0.524007586  nElectrons: 432.000000
LCAOMinimize: Iter:  14  F: -1735.7991789927616537  |grad|_K:  3.579e-07  alpha:  1.494e-01  linmin:  1.092e-05  cgtest:  4.227e-04  t[s]:    640.41
LCAOMinimize: Converged (|Delta F|<1.000000e-06 for 2 iters).


---- Citations for features of the code used in this run ----

   Software package:
      R. Sundararaman, K. Letchworth-Weaver, K.A. Schwarz, D. Gunceler, Y. Ozhabes and T.A. Arias, 'JDFTx: software for joint density-functional theory', SoftwareX 6, 278 (2017)

   gga-PBEsol exchange-correlation functional:
      J.P. Perdew et al., Phys. Rev. Lett. 100, 136406 (2008)

   Pseudopotentials:
      KF Garrity, JW Bennett, KM Rabe and D Vanderbilt, Comput. Mater. Sci. 81, 446 (2014)

This list may not be complete. Please suggest additional citations or
report any other bugs at https://github.com/shankar1729/jdftx/issues

Initialization completed successfully at t[s]:    660.58


-------- Electronic minimization -----------
Will mix electronic density at each iteration.
	FillingsUpdate:  mu: +0.524007586  nElectrons: 432.000000
	FillingsUpdate:  mu: +0.514775204  nElectrons: 432.000000
SCF: Cycle:  0   F: -1737.069630559136158   dF: -1.270e+00   |Residual|: 4.943e-01   |deigs|: 3.900e-02  t[s]:    827.96
	FillingsUpdate:  mu: +0.520986339  nElectrons: 432.000000
SCF: Cycle:  1   F: -1737.215912589862000   dF: -1.463e-01   |Residual|: 2.483e-01   |deigs|: 1.442e-02  t[s]:    975.00
	FillingsUpdate:  mu: +0.520949337  nElectrons: 432.000000
SCF: Cycle:  2   F: -1737.261925787330483   dF: -4.601e-02   |Residual|: 1.388e-01   |deigs|: 5.182e-03  t[s]:   1129.00
	FillingsUpdate:  mu: +0.522345010  nElectrons: 432.000000
SCF: Cycle:  3   F: -1737.232276043361708   dF: +2.965e-02   |Residual|: 1.306e-01   |deigs|: 2.907e-03  t[s]:   1280.91
	FillingsUpdate:  mu: +0.522790226  nElectrons: 432.000000
SCF: Cycle:  4   F: -1737.286303846880855   dF: -5.403e-02   |Residual|: 2.848e-02   |deigs|: 1.635e-03  t[s]:   1434.07
	FillingsUpdate:  mu: +0.522879121  nElectrons: 432.000000
SCF: Cycle:  5   F: -1737.287323523311670   dF: -1.020e-03   |Residual|: 1.877e-02   |deigs|: 4.099e-04  t[s]:   1524.04
	FillingsUpdate:  mu: +0.522920078  nElectrons: 432.000000
SCF: Cycle:  6   F: -1737.288088012501703   dF: -7.645e-04   |Residual|: 1.003e-02   |deigs|: 3.144e-04  t[s]:   1614.66
	FillingsUpdate:  mu: +0.522975769  nElectrons: 432.000000
SCF: Cycle:  7   F: -1737.288432884037320   dF: -3.449e-04   |Residual|: 2.987e-03   |deigs|: 1.641e-04  t[s]:   1705.86
	FillingsUpdate:  mu: +0.523039549  nElectrons: 432.000000
SCF: Cycle:  8   F: -1737.288436024362454   dF: -3.140e-06   |Residual|: 2.381e-03   |deigs|: 1.150e-04  t[s]:   1797.99
	FillingsUpdate:  mu: +0.523092444  nElectrons: 432.000000
SCF: Cycle:  9   F: -1737.288452882598676   dF: -1.686e-05   |Residual|: 8.009e-04   |deigs|: 1.169e-04  t[s]:   1890.64
	FillingsUpdate:  mu: +0.523102662  nElectrons: 432.000000
SCF: Cycle: 10   F: -1737.288453798817272   dF: -9.162e-07   |Residual|: 4.109e-04   |deigs|: 1.332e-04  t[s]:   1981.67
	FillingsUpdate:  mu: +0.523104971  nElectrons: 432.000000
SCF: Cycle: 11   F: -1737.288454177152516   dF: -3.783e-07   |Residual|: 2.250e-04   |deigs|: 1.997e-04  t[s]:   2075.00
	FillingsUpdate:  mu: +0.523105349  nElectrons: 432.000000
SCF: Cycle: 12   F: -1737.288454365716916   dF: -1.886e-07   |Residual|: 1.286e-04   |deigs|: 8.493e-04  t[s]:   2200.72
	FillingsUpdate:  mu: +0.523105104  nElectrons: 432.000000
SCF: Cycle: 13   F: -1737.288454427228316   dF: -6.151e-08   |Residual|: 5.612e-05   |deigs|: 1.690e-03  t[s]:   2329.38
	FillingsUpdate:  mu: +0.523105598  nElectrons: 432.000000
SCF: Cycle: 14   F: -1737.288454435366475   dF: -8.138e-09   |Residual|: 4.817e-05   |deigs|: 2.087e-03  t[s]:   2451.25
	FillingsUpdate:  mu: +0.523105846  nElectrons: 432.000000
SCF: Cycle: 15   F: -1737.288454444966646   dF: -9.600e-09   |Residual|: 2.256e-05   |deigs|: 2.188e-03  t[s]:   2576.69
SCF: Converged (|Delta E|<1.000000e-08 for 2 iters).

Setting wave functions to eigenvectors of Hamiltonian

# Ionic positions in lattice coordinates:
ion Ir   0.261570000000000   0.238230000000000   0.263670000000000 1
ion Ir   0.000000000000000   0.000000000000000   0.000000000000000 0
ion Ir   0.248450000000000   0.247440000000000   0.760850000000000 1
ion Ir   0.000690000000000  -0.009780000000000   0.499240000000000 1
ion Ir   0.246480000000000   0.741330000000000   0.257470000000000 1
ion Ir  -0.009490000000000   0.484660000000000   0.025280000000000 1
ion Ir   0.245280000000000   0.759840000000000   0.759390000000000 1
ion Ir  -0.003440000000000   0.494160000000000   0.494280000000000 1
ion Ir   0.743540000000000   0.254760000000000   0.266150000000000 1
ion Ir   0.501580000000000   0.000290000000000   0.000150000000000 1
ion Ir   0.738910000000000   0.248780000000000   0.743520000000000 1
ion Ir   0.498170000000000  -0.008500000000000   0.508670000000000 1
ion Ir   0.765130000000000   0.738510000000000   0.250550000000000 1
ion Ir   0.489340000000000   0.498900000000000   0.000300000000000 1
ion Ir   0.753480000000000   0.739270000000000   0.763010000000000 1
ion Ir   0.498860000000000   0.495300000000000   0.489370000000000 1
ion O  -0.006690000000000   0.352390000000000   0.350080000000000 1
ion O   0.247830000000000   0.405680000000000   0.106340000000000 1
ion O  -0.004790000000000   0.169600000000000   0.143490000000000 1
ion O   0.246510000000000   0.111670000000000   0.404000000000000 1
ion O  -0.009290000000000   0.353110000000000   0.844100000000000 1
ion O   0.252280000000000   0.409190000000000   0.594640000000000 1
ion O   0.010220000000000   0.155360000000000   0.650240000000000 1
ion O   0.239070000000000   0.089320000000000   0.904120000000000 1
ion O   0.010450000000000   0.842010000000000   0.357910000000000 1
ion O   0.244350000000000   0.873310000000000   0.098190000000000 1
ion O  -0.005090000000000   0.663300000000000   0.160800000000000 1
ion O   0.254320000000000   0.590190000000000   0.406650000000000 1
ion O  -0.001280000000000   0.855770000000000   0.825860000000000 1
ion O   0.238020000000000   0.891540000000000   0.588240000000000 1
ion O   0.016850000000000   0.648630000000000   0.646350000000000 1
ion O   0.265420000000000   0.611390000000000   0.911870000000000 1
ion O   0.488490000000000   0.338970000000000   0.345630000000000 1
ion O   0.741000000000000   0.389670000000000   0.088140000000000 1
ion O   0.515910000000000   0.149380000000000   0.163230000000000 1
ion O   0.738680000000000   0.099800000000000   0.392960000000000 1
ion O   0.513880000000000   0.339180000000000   0.836360000000000 1
ion O   0.743260000000000   0.400630000000000   0.588900000000000 1
ion O   0.515730000000000   0.167470000000000   0.658100000000000 1
ion O   0.745550000000000   0.093020000000000   0.909570000000000 1
ion O   0.511720000000000   0.839510000000000   0.352440000000000 1
ion O   0.750860000000000   0.912970000000000   0.087440000000000 1
ion O   0.501860000000000   0.634120000000000   0.166830000000000 1
ion O   0.725870000000000   0.602680000000000   0.405860000000000 1
ion O   0.510810000000000   0.837830000000000   0.849580000000000 1
ion O   0.740890000000000   0.906350000000000   0.583450000000000 1
ion O   0.503870000000000   0.641270000000000   0.665340000000000 1
ion O   0.747250000000000   0.609260000000000   0.893560000000000 1

# Forces in Lattice coordinates:
force Ir  -0.983604724981855   1.823030109377929  -2.757470272062333 1
force Ir  -0.192978806484178  -0.151831395323572   0.088881752663515 0
force Ir   0.002753426196875   0.380025434081678  -0.904029415409812 1
force Ir  -0.295267230785304   1.617875473132467  -0.007500138051300 1
force Ir   0.735566585580341   0.150504980695012   0.381707744215414 1
force Ir   0.345431527540340   1.293454468868270  -1.675828786248716 1
force Ir   0.706793432364604  -1.383904989325103  -1.046594581740516 1
force Ir   0.204340353154090   0.881315074645168   1.001353396167065 1
force Ir   0.512802716287793   0.090014044931237  -1.839925732860780 1
force Ir  -0.240682359716465  -0.510230719880724   0.304949196116507 1
force Ir   1.994380066528530   0.345842648339116   0.828719736459046 1
force Ir  -0.310821189630390   1.235877111004853  -1.049855464772069 1
force Ir  -1.413365238093262   1.730172760462965   0.439159829671734 1
force Ir   0.668073962385274   0.001717915722383  -0.468934282478682 1
force Ir   0.101713820404341   2.149638814338471  -3.454985265329512 1
force Ir  -0.452595733198899   0.139732016135547   1.229530259168981 1
force O   0.107181251752223  -0.736317646712980  -0.621881219732263 1
force O   0.157322496555073  -0.504113246672004   0.314000847342800 1
force O   0.208149811496414  -0.197348145098687   0.484376239504008 1
force O   0.059897248019989  -2.416363870426491   2.252405239657453 1
force O   0.073294608570167  -0.220014442751763   0.145306819588637 1
force O  -0.062145157974793  -0.491676388821214   0.251947103755088 1
force O  -0.373763784732411  -0.056452053672999   0.082203419306879 1
force O   0.455080335266786   0.036037200894750   0.110899701307852 1
force O  -0.247313965245709  -0.652627013966097  -0.816718308006971 1
force O   0.118985748659132   1.228919787303927  -0.825037775369465 1
force O   0.557605149732503  -1.275013237256409  -0.829010935179785 1
force O  -0.300261496610516   0.029714015033948  -0.093505598495300 1
force O  -0.282384726531227   0.467119993652565   0.816401984053212 1
force O   0.385329533572837  -0.005006427776253   0.346953741221304 1
force O  -0.460803025672842   0.456892033145977   0.636104130390651 1
force O  -0.542784492546492  -0.367783201187315   0.358989175606732 1
force O   0.389434144099151   0.493070726732200   0.477738545602764 1
force O  -0.329762979281542  -0.158259869536154   0.581112960237054 1
force O  -0.474290676613109  -0.016381065808299  -0.080119127878763 1
force O   0.260747588215501  -1.257080474560984   1.346073193957290 1
force O  -0.843480571191845   0.830230454034561   0.925297721758971 1
force O   0.152883830651691   0.023963873653869  -0.076631589244166 1
force O  -1.324930129571115  -1.438937688708739  -1.061235286257260 1
force O   0.099380331002902   0.596662301774469  -0.639747554530216 1
force O  -0.300130336510540  -0.187900561976553  -0.282911046992499 1
force O   0.168607876170757  -0.817986238308283   0.693223094915530 1
force O  -0.048700958284709   0.285864115791990   0.029358218092035 1
force O   0.865103710555061  -0.421626733614447   0.188454890937219 1
force O  -0.266193863646844   0.638763970906893   0.274301519580361 1
force O   0.522579803371837  -0.968473558515713   1.058479713681597 1
force O  -0.104861020917785   0.201754227140999  -0.060892004163621 1
force O  -0.007411023191175  -2.886289045123373   2.944273973099124 1

# Energy components:
   Eewald =    -1403.2841695860245181
       EH =      350.2150321355815095
     Eloc =    -1090.6806469852981536
      Enl =       83.9544550414674831
      Exc =     -515.9085526525640262
 Exc_core =      230.4980822728531393
       KE =      608.1146374362963343
-------------------------------------
     Etot =    -1737.0911623376885018
       TS =        0.1972921072780414
-------------------------------------
        F =    -1737.2884544449666464

IonicMinimize: Iter:   0  F: -1737.288454444966646  |grad|_K:  5.765e-02  t[s]:   2598.45

#--- Lowdin population analysis ---
# oxidation-state Ir +0.578 +0.510 +0.502 +0.519 +0.540 +0.475 +0.545 +0.533 +0.555 +0.502 +0.586 +0.490 +0.524 +0.495 +0.611 +0.548
# oxidation-state O -0.221 -0.240 -0.292 -0.200 -0.265 -0.261 -0.280 -0.218 -0.211 -0.262 -0.189 -0.222 -0.224 -0.217 -0.275 -0.244 -0.183 -0.229 -0.243 -0.237 -0.225 -0.251 -0.212 -0.228 -0.273 -0.248 -0.252 -0.210 -0.233 -0.240 -0.299 -0.166


-------- Electronic minimization -----------
Will mix electronic density at each iteration.
	FillingsUpdate:  mu: +0.523105846  nElectrons: 432.000000
	FillingsUpdate:  mu: +0.523664022  nElectrons: 432.000000
SCF: Cycle:  0   F: -1734.378302467512185   dF: +1.489e+00   |Residual|: 9.907e-01   |deigs|: 6.971e-03  t[s]:   2798.67
	FillingsUpdate:  mu: +0.524308775  nElectrons: 432.000000
SCF: Cycle:  1   F: -1735.493524782585837   dF: -1.115e+00   |Residual|: 8.564e-01   |deigs|: 8.861e-03  t[s]:   2947.94
	FillingsUpdate:  mu: +0.521717632  nElectrons: 432.000000
SCF: Cycle:  2   F: -1736.916006139349065   dF: -1.422e+00   |Residual|: 3.217e-01   |deigs|: 1.022e-02  t[s]:   3089.17
	FillingsUpdate:  mu: +0.521395773  nElectrons: 432.000000
SCF: Cycle:  3   F: -1737.242604064997977   dF: -3.266e-01   |Residual|: 2.349e-01   |deigs|: 2.960e-03  t[s]:   3235.41
	FillingsUpdate:  mu: +0.521008954  nElectrons: 432.000000
SCF: Cycle:  4   F: -1737.439494241005150   dF: -1.969e-01   |Residual|: 5.934e-02   |deigs|: 3.034e-03  t[s]:   3385.85
	FillingsUpdate:  mu: +0.521064539  nElectrons: 432.000000
SCF: Cycle:  5   F: -1737.444775539797320   dF: -5.281e-03   |Residual|: 3.309e-02   |deigs|: 2.108e-03  t[s]:   3509.01
	FillingsUpdate:  mu: +0.521032476  nElectrons: 432.000000
SCF: Cycle:  6   F: -1737.446478832159301   dF: -1.703e-03   |Residual|: 1.880e-02   |deigs|: 9.742e-04  t[s]:   3597.71
	FillingsUpdate:  mu: +0.521005570  nElectrons: 432.000000
SCF: Cycle:  7   F: -1737.447344627000803   dF: -8.658e-04   |Residual|: 6.652e-03   |deigs|: 6.366e-04  t[s]:   3684.72
	FillingsUpdate:  mu: +0.520994562  nElectrons: 432.000000
SCF: Cycle:  8   F: -1737.447378875011964   dF: -3.425e-05   |Residual|: 5.131e-03   |deigs|: 5.351e-04  t[s]:   3775.28
	FillingsUpdate:  mu: +0.520994199  nElectrons: 432.000000
SCF: Cycle:  9   F: -1737.447450189390111   dF: -7.131e-05   |Residual|: 1.989e-03   |deigs|: 5.522e-04  t[s]:   3865.86
	FillingsUpdate:  mu: +0.520997473  nElectrons: 432.000000
SCF: Cycle: 10   F: -1737.447448119307637   dF: +2.070e-06   |Residual|: 1.512e-03   |deigs|: 5.813e-04  t[s]:   3957.53
	FillingsUpdate:  mu: +0.520997412  nElectrons: 432.000000
SCF: Cycle: 11   F: -1737.447455522541532   dF: -7.403e-06   |Residual|: 5.211e-04   |deigs|: 6.024e-04  t[s]:   4047.11
	FillingsUpdate:  mu: +0.520995532  nElectrons: 432.000000
SCF: Cycle: 12   F: -1737.447456336656387   dF: -8.141e-07   |Residual|: 3.053e-04   |deigs|: 5.505e-04  t[s]:   4140.58
	FillingsUpdate:  mu: +0.520995389  nElectrons: 432.000000
SCF: Cycle: 13   F: -1737.447456479558468   dF: -1.429e-07   |Residual|: 1.597e-04   |deigs|: 5.740e-04  t[s]:   4231.81
	FillingsUpdate:  mu: +0.520995277  nElectrons: 432.000000
SCF: Cycle: 14   F: -1737.447456512208191   dF: -3.265e-08   |Residual|: 1.090e-04   |deigs|: 5.311e-04  t[s]:   4320.98
	FillingsUpdate:  mu: +0.520995000  nElectrons: 432.000000
SCF: Cycle: 15   F: -1737.447456541378870   dF: -2.917e-08   |Residual|: 4.596e-05   |deigs|: 5.132e-04  t[s]:   4409.70
	FillingsUpdate:  mu: +0.520995020  nElectrons: 432.000000
SCF: Cycle: 16   F: -1737.447456545302202   dF: -3.923e-09   |Residual|: 3.103e-05   |deigs|: 4.886e-04  t[s]:   4498.97
	FillingsUpdate:  mu: +0.520994978  nElectrons: 432.000000
SCF: Cycle: 17   F: -1737.447456548163700   dF: -2.861e-09   |Residual|: 1.352e-05   |deigs|: 5.517e-04  t[s]:   4593.39
SCF: Converged (|Delta E|<1.000000e-08 for 2 iters).

Setting wave functions to eigenvectors of Hamiltonian

# Ionic positions in lattice coordinates:
ion Ir   0.258729308893335   0.240838656470257   0.259724217946420 1
ion Ir   0.000000000000000   0.000000000000000   0.000000000000000 0
ion Ir   0.248457952008680   0.247983796643942   0.759556386345642 1
ion Ir  -0.000162743968464  -0.007464916115202   0.499229262766037 1
ion Ir   0.248604346706505   0.741545362527184   0.258016200683245 1
ion Ir  -0.008492379468782   0.486510861802436   0.022881984401535 1
ion Ir   0.247321248650574   0.757859717248416   0.757892389477616 1
ion Ir  -0.002849856612931   0.495421106526652   0.495712874616031 1
ion Ir   0.745020995443224   0.254888810425273   0.263517175107109 1
ion Ir   0.500884899395649  -0.000440110842252   0.000586365787009 1
ion Ir   0.744669852077166   0.249274877769743   0.744705847734831 1
ion Ir   0.497272335555411  -0.006731529909586   0.507167715281493 1
ion Ir   0.761048142765739   0.740985773268524   0.251178406347077 1
ion Ir   0.491269425220662   0.498902459679297  -0.000371017155618 1
ion Ir   0.753773753718042   0.742346016306626   0.758066114348262 1
ion Ir   0.497552884812813   0.495499944443433   0.491129384459264 1
ion O  -0.006380456114209   0.351336375026010   0.349190127119247 1
ion O   0.248284353873555   0.404958642871274   0.106789318144315 1
ion O  -0.004188854739761   0.169317605015835   0.144183114282723 1
ion O   0.246682985728355   0.108212319657507   0.407223065769444 1
ion O  -0.009078322140547   0.352795171931948   0.844307926119495 1
ion O   0.252100522214770   0.408486439468404   0.595000522878749 1
ion O   0.009140554738793   0.155279220205721   0.650357628392155 1
ion O   0.240384290820669   0.089371566756025   0.904278690785244 1
ion O   0.009735747044739   0.841076131958470   0.356741326542135 1
ion O   0.244693635760841   0.875068513880593   0.097009416084714 1
ion O  -0.003479613276914   0.661475534218419   0.159613738437830 1
ion O   0.253452832385376   0.590232519281355   0.406516198941970 1
ion O  -0.002095538763633   0.856438418497039   0.827028221388191 1
ion O   0.239132847621971   0.891532835030521   0.588736470244674 1
ion O   0.015519181812870   0.649283783447182   0.647260225882789 1
ion O   0.263852415947534   0.610863722943451   0.912383693354506 1
ion O   0.489614701906850   0.339675553499881   0.346313614010681 1
ion O   0.740047630883870   0.389443537722386   0.088971538673238 1
ion O   0.514540228919393   0.149356559912902   0.163115354329521 1
ion O   0.739433049813726   0.098001188241695   0.394886154788481 1
ion O   0.511443993242028   0.340368007698049   0.837684043613351 1
ion O   0.743701534822937   0.400664291118072   0.588790344666280 1
ion O   0.511903547014941   0.165410968764124   0.656581439667086 1
ion O   0.745837014504188   0.093873790341320   0.908654557349603 1
ion O   0.510853211181167   0.839241126309390   0.352035171646951 1
ion O   0.751346946516407   0.911799508065412   0.088431963658998 1
ion O   0.501719349619241   0.634529054507509   0.166872008989013 1
ion O   0.728368455278325   0.602076676566528   0.406129669071637 1
ion O   0.510041221117686   0.838744032519005   0.849972507241735 1
ion O   0.742399232074895   0.904964168509560   0.584964624683985 1
ion O   0.503567157036774   0.641558698522448   0.665252866531782 1
ion O   0.747228596658662   0.605129882469025   0.897773090345864 1

# Forces in Lattice coordinates:
force Ir  -0.801338791805789   1.039049356808773  -1.546841964588073 1
force Ir  -0.198291646750484  -0.151206152350335   0.063559786000692 0
force Ir   0.071503402126419   0.292295983291113  -0.793449305206408 1
force Ir  -0.220243281189245   1.189013556623684  -0.055627558569087 1
force Ir   0.534470564870815   0.158001355566350   0.131959972198503 1
force Ir   0.250305686187273   1.189341139929575  -1.553462375588089 1
force Ir   0.511499066128049  -1.111362842582770  -0.827266166967065 1
force Ir   0.116162833388881   0.633692935039767   0.701174118521545 1
force Ir   0.337677211800633  -0.174810869777920  -1.405950903097966 1
force Ir  -0.161904398424483  -0.405497569963967   0.246030125353061 1
force Ir   1.085926537237146   0.148761430405788   0.539910815064584 1
force Ir  -0.178931552257189   0.968776907671428  -0.832082375537803 1
force Ir  -0.927738817694627   1.322065535412100   0.161217211824161 1
force Ir   0.534409656235594  -0.034104107673789  -0.328046754245486 1
force Ir   0.036634529266441   0.936572185707955  -1.963975984055068 1
force Ir  -0.283587435423168   0.162814972121240   1.062266303902075 1
force O   0.126456277996995  -0.518434977860756  -0.436288102700868 1
force O   0.122076232806580  -0.376542527262727   0.158093508293343 1
force O   0.175492013122684  -0.234263811076159   0.389313704654202 1
force O   0.094207792549238  -1.511086098687991   1.235541180155978 1
force O   0.120702830493893  -0.200967693458881   0.135723898945820 1
force O  -0.083233025596814  -0.443604636402707   0.245482472328355 1
force O  -0.326060918341626  -0.017355174469089   0.109785295373937 1
force O   0.400684475533136   0.075709192605531   0.076144263443221 1
force O  -0.244818054003674  -0.425202557048486  -0.605951172419183 1
force O   0.131825763481860   1.084242515698695  -0.662318628850668 1
force O   0.300798753671930  -0.947830334125370  -0.486103135324102 1
force O  -0.247610764585052   0.013008724630674  -0.038156893765522 1
force O  -0.118042050075580   0.311672593169873   0.680163685309034 1
force O   0.336684299331253   0.108126098847902   0.229073187859987 1
force O  -0.409160582097185   0.417488523013015   0.563971140178710 1
force O  -0.484523035039857  -0.394424370919850   0.343512066290531 1
force O   0.315343353200633   0.341113072003400   0.355902565988039 1
force O  -0.182714431159140  -0.011598669885211   0.431136303049244 1
force O  -0.442133990151786  -0.026189988612654  -0.097462819778886 1
force O   0.257162031630750  -0.876811486246249   1.038930439775235 1
force O  -0.593673141871475   0.630191928687519   0.701074894953985 1
force O   0.164062594907632   0.014065324376344  -0.035782739307899 1
force O  -0.821603393260379  -1.003772927617468  -0.660642731620336 1
force O   0.107324044800412   0.480123012716000  -0.501697563333283 1
force O  -0.294850824768159  -0.114805280482473  -0.209413006419881 1
force O   0.122161594058407  -0.730935208014831   0.641281505133761 1
force O  -0.036420993343763   0.299229990367652   0.023851311766384 1
force O   0.741726501140108  -0.414840638676732   0.176042550718311 1
force O  -0.243995441772750   0.503258094226350   0.170264791113116 1
force O   0.367468527500560  -0.789633527131202   0.875774080464154 1
force O  -0.111925609492919   0.177151230378113  -0.090667144139556 1
force O   0.043981630737497  -1.573582724627753   1.644533239168506 1

# Energy components:
   Eewald =    -1405.8979650864669111
       EH =      347.9360789085741317
     Eloc =    -1085.4259531474353935
      Enl =       83.7896078396569806
      Exc =     -515.7511226197334508
 Exc_core =      230.4980553440512949
       KE =      607.5957471532215095
-------------------------------------
     Etot =    -1737.2555516081315545
       TS =        0.1919049400322005
-------------------------------------
        F =    -1737.4474565481637001

IonicMinimize: Iter:   1  F: -1737.447456548163700  |grad|_K:  3.913e-02  alpha:  4.111e-01  linmin: -9.791e-01  t[s]:   4613.19

#--- Lowdin population analysis ---
# oxidation-state Ir +0.553 +0.517 +0.508 +0.524 +0.543 +0.484 +0.546 +0.533 +0.555 +0.509 +0.568 +0.501 +0.523 +0.510 +0.570 +0.553
# oxidation-state O -0.224 -0.236 -0.282 -0.222 -0.255 -0.254 -0.266 -0.220 -0.217 -0.261 -0.203 -0.219 -0.225 -0.221 -0.264 -0.241 -0.191 -0.225 -0.242 -0.240 -0.227 -0.247 -0.226 -0.229 -0.261 -0.244 -0.250 -0.216 -0.229 -0.238 -0.287 -0.207


-------- Electronic minimization -----------
Will mix electronic density at each iteration.
	FillingsUpdate:  mu: +0.520994978  nElectrons: 432.000000
	FillingsUpdate:  mu: +0.523318709  nElectrons: 432.000000
SCF: Cycle:  0   F: -1731.931316554531350   dF: +3.667e+00   |Residual|: 1.184e+00   |deigs|: 8.116e-03  t[s]:   4814.58
	FillingsUpdate:  mu: +0.525825090  nElectrons: 432.000000
SCF: Cycle:  1   F: -1733.746414106780776   dF: -1.815e+00   |Residual|: 1.124e+00   |deigs|: 1.364e-02  t[s]:   4962.28
	FillingsUpdate:  mu: +0.520718869  nElectrons: 432.000000
SCF: Cycle:  2   F: -1737.027003010236967   dF: -3.281e+00   |Residual|: 3.445e-01   |deigs|: 1.655e-02  t[s]:   5113.80
	FillingsUpdate:  mu: +0.520386965  nElectrons: 432.000000
SCF: Cycle:  3   F: -1737.241056432942969   dF: -2.141e-01   |Residual|: 2.993e-01   |deigs|: 2.171e-03  t[s]:   5263.54
	FillingsUpdate:  mu: +0.519769198  nElectrons: 432.000000
SCF: Cycle:  4   F: -1737.555074190139521   dF: -3.140e-01   |Residual|: 7.409e-02   |deigs|: 3.344e-03  t[s]:   5413.85
	FillingsUpdate:  mu: +0.519807473  nElectrons: 432.000000
SCF: Cycle:  5   F: -1737.563202756000919   dF: -8.129e-03   |Residual|: 4.471e-02   |deigs|: 9.827e-04  t[s]:   5558.62
	FillingsUpdate:  mu: +0.519756772  nElectrons: 432.000000
SCF: Cycle:  6   F: -1737.566828927144797   dF: -3.626e-03   |Residual|: 2.354e-02   |deigs|: 4.823e-04  t[s]:   5648.41
	FillingsUpdate:  mu: +0.519724425  nElectrons: 432.000000
SCF: Cycle:  7   F: -1737.568023300588948   dF: -1.194e-03   |Residual|: 1.031e-02   |deigs|: 2.501e-04  t[s]:   5738.78
	FillingsUpdate:  mu: +0.519702421  nElectrons: 432.000000
SCF: Cycle:  8   F: -1737.568061643657757   dF: -3.834e-05   |Residual|: 7.055e-03   |deigs|: 1.619e-04  t[s]:   5829.77
	FillingsUpdate:  mu: +0.519699614  nElectrons: 432.000000
SCF: Cycle:  9   F: -1737.568228714182624   dF: -1.671e-04   |Residual|: 2.766e-03   |deigs|: 8.952e-05  t[s]:   5919.61
	FillingsUpdate:  mu: +0.519703119  nElectrons: 432.000000
SCF: Cycle: 10   F: -1737.568234035105661   dF: -5.321e-06   |Residual|: 1.762e-03   |deigs|: 3.628e-05  t[s]:   6008.43
	FillingsUpdate:  mu: +0.519702158  nElectrons: 432.000000
SCF: Cycle: 11   F: -1737.568241237381699   dF: -7.202e-06   |Residual|: 9.314e-04   |deigs|: 3.348e-05  t[s]:   6097.86
	FillingsUpdate:  mu: +0.519699188  nElectrons: 432.000000
SCF: Cycle: 12   F: -1737.568243767548211   dF: -2.530e-06   |Residual|: 3.808e-04   |deigs|: 1.590e-05  t[s]:   6187.80
	FillingsUpdate:  mu: +0.519698769  nElectrons: 432.000000
SCF: Cycle: 13   F: -1737.568244011986508   dF: -2.444e-07   |Residual|: 1.991e-04   |deigs|: 5.308e-06  t[s]:   6276.83
	FillingsUpdate:  mu: +0.519698256  nElectrons: 432.000000
SCF: Cycle: 14   F: -1737.568244021178089   dF: -9.192e-09   |Residual|: 1.420e-04   |deigs|: 4.100e-06  t[s]:   6370.20
	FillingsUpdate:  mu: +0.519697814  nElectrons: 432.000000
SCF: Cycle: 15   F: -1737.568244094006332   dF: -7.283e-08   |Residual|: 4.281e-05   |deigs|: 2.353e-06  t[s]:   6459.75
	FillingsUpdate:  mu: +0.519697802  nElectrons: 432.000000
SCF: Cycle: 16   F: -1737.568244095300997   dF: -1.295e-09   |Residual|: 3.105e-05   |deigs|: 1.024e-06  t[s]:   6548.05
	FillingsUpdate:  mu: +0.519697805  nElectrons: 432.000000
SCF: Cycle: 17   F: -1737.568244097373963   dF: -2.073e-09   |Residual|: 1.938e-05   |deigs|: 8.216e-07  t[s]:   6642.40
SCF: Converged (|Delta E|<1.000000e-08 for 2 iters).

Setting wave functions to eigenvectors of Hamiltonian

# Ionic positions in lattice coordinates:
ion Ir   0.254304167436712   0.242756706355556   0.256942284454508 1
ion Ir   0.000000000000000   0.000000000000000   0.000000000000000 0
ion Ir   0.249142578121351   0.248747666390419   0.757267407405021 1
ion Ir  -0.001293996268358  -0.004479217802992   0.498974407841799 1
ion Ir   0.251284712972415   0.742051019933063   0.258006161632191 1
ion Ir  -0.007240328197574   0.490046035759611   0.018241504631351 1
ion Ir   0.249876727894840   0.754852313726683   0.755681560001801 1
ion Ir  -0.002418881208430   0.496980166651752   0.497393730525428 1
ion Ir   0.746550584426864   0.253896128394899   0.259863224367431 1
ion Ir   0.500133829601635  -0.001528473449295   0.001254529526436 1
ion Ir   0.748411943155502   0.249406205980252   0.745902734010544 1
ion Ir   0.496595070549257  -0.004159824303646   0.504939219547309 1
ion Ir   0.756861014726765   0.744421672064541   0.251212033495804 1
ion Ir   0.494179250796231   0.498735552225194  -0.001156656727981 1
ion Ir   0.753782633667131   0.743219666069238   0.754456152507557 1
ion Ir   0.496343073429119   0.496046937829449   0.494161396701083 1
ion O  -0.005518403141963   0.350086717682419   0.348142254200729 1
ion O   0.248932986343752   0.403999195698636   0.107019304576415 1
ion O  -0.003195015607616   0.168524306453030   0.145237312103986 1
ion O   0.247393204097153   0.105026267346905   0.409360912604911 1
ion O  -0.008156608498911   0.352200276438605   0.844715230485393 1
ion O   0.251504486878304   0.407183483369520   0.595755564744661 1
ion O   0.007249795297668   0.155291095443732   0.650746762479612 1
ion O   0.242722175965504   0.089674794019701   0.904457580264395 1
ion O   0.008202522224652   0.840133494759530   0.355206583221457 1
ion O   0.245567568943871   0.878207246530058   0.095217640992058 1
ion O  -0.002460676550131   0.659070662385977   0.158676111908659 1
ion O   0.252072974683901   0.590244896940378   0.406490615788260 1
ion O  -0.002278737401895   0.857148374446107   0.828920390074231 1
ion O   0.241087295305897   0.892061271214983   0.589252145585379 1
ion O   0.013118533619824   0.650519885815193   0.648898111127119 1
ion O   0.260999736722544   0.609588041766637   0.913429387503875 1
ion O   0.491348023920516   0.340483265606504   0.347218342932106 1
ion O   0.739398212914497   0.389655030442231   0.090063489159839 1
ion O   0.511865514221059   0.149258276812418   0.162781959650119 1
ion O   0.741040296267790   0.095907555403170   0.397609128882421 1
ion O   0.508556835237401   0.341996504152554   0.839492867056049 1
ion O   0.744772815783123   0.400691461032291   0.588747681597981 1
ion O   0.508445134716689   0.163013907933889   0.655196632594586 1
ion O   0.746539959885208   0.095175062858374   0.907322295632512 1
ion O   0.509014394906958   0.839006356200912   0.351505885184367 1
ion O   0.751957940970870   0.909665847184166   0.090345180452895 1
ion O   0.501531846428682   0.635485287225669   0.166937127807113 1
ion O   0.732618914502798   0.600793746329960   0.406657999152730 1
ion O   0.508580333223129   0.840085456422791   0.850328066144923 1
ion O   0.744184649770443   0.902802371199634   0.587388669657733 1
ion O   0.502838230003346   0.642069897966628   0.664919679910420 1
ion O   0.747680742567015   0.602436902089164   0.900709347289446 1

# Forces in Lattice coordinates:
force Ir  -0.452578217044706   0.675509802480780  -0.790143464794992 1
force Ir  -0.167890485516986  -0.133619020258119   0.033798512580329 0
force Ir   0.062308879902582   0.182674321415294  -0.577680780000725 1
force Ir  -0.129918947050519   0.627198822572447   0.005442550204851 1
force Ir   0.256262240093242   0.128866284337781  -0.083586502341538 1
force Ir   0.197587211477405   0.890012318634157  -1.208156245812117 1
force Ir   0.279311559157088  -0.717989287410168  -0.518449037776662 1
force Ir   0.037133550341723   0.368917207627579   0.400939964902847 1
force Ir   0.155743791522226  -0.291251546001123  -0.882224873855448 1
force Ir  -0.075299474697174  -0.248685424480314   0.171384471753567 1
force Ir   0.523234886015771   0.091752988487403   0.344145480378255 1
force Ir  -0.040725037919725   0.533460379667447  -0.502320542137652 1
force Ir  -0.492654194312347   0.788719245861356   0.042208499373516 1
force Ir   0.313938842363715  -0.073384319764570  -0.082896090827800 1
force Ir   0.017962687065987   0.650489849448318  -1.166095561276214 1
force Ir  -0.097995069233963   0.139572716071736   0.755263547455635 1
force O   0.107985700058147  -0.331219380426680  -0.272460280126892 1
force O   0.055324515816853  -0.168800189878555  -0.060190989036654 1
force O   0.117522024385789  -0.290612370629595   0.268709202520211 1
force O   0.054839939969701  -0.928556981629171   0.624666011001323 1
force O   0.146756379358399  -0.182612044662570   0.087334578779477 1
force O  -0.095748449826518  -0.346815986108077   0.201533037111160 1
force O  -0.249895881744803   0.010861185481152   0.114829019087535 1
force O   0.312422583553606   0.113866703918815   0.032352257111546 1
force O  -0.202967874485477  -0.182969213231185  -0.400955254155165 1
force O   0.132198882212379   0.878724616329710  -0.450919085523800 1
force O   0.142889475027262  -0.608150996426985  -0.211583256086736 1
force O  -0.170081780644568   0.019749306285706   0.011680826891057 1
force O  -0.010589398013631   0.090747204377324   0.476272596096515 1
force O   0.266545327678338   0.216666615102513   0.102997833177410 1
force O  -0.331976417034099   0.303457032528459   0.439824238674854 1
force O  -0.398418310690745  -0.387913652529114   0.276537099384394 1
force O   0.207859218755395   0.185819251373259   0.213611007344582 1
force O  -0.011240531548238   0.164737099381417   0.214875103495840 1
force O  -0.398032889614395  -0.046430079807346  -0.110633160825832 1
force O   0.233156769269482  -0.479892032078807   0.678929821129031 1
force O  -0.385249633901947   0.429269894473402   0.465702412091783 1
force O   0.140803835688328  -0.005933822626989   0.036790653805594 1
force O  -0.497540560483271  -0.674483103632740  -0.397518495319332 1
force O   0.085246360428273   0.305445990803745  -0.303232040552347 1
force O  -0.260253134722265  -0.009237389925874  -0.120397711410471 1
force O   0.066281828954717  -0.565282891918179   0.515085621495936 1
force O  -0.009216795749341   0.291594847797018  -0.017559510513041 1
force O   0.561129685613189  -0.317284437449571   0.103341360709158 1
force O  -0.185847341183471   0.289348506676476   0.016243440104984 1
force O   0.201873065150666  -0.496614864232668   0.576419515766113 1
force O  -0.098373642232474   0.123167356208427  -0.109555969815906 1
force O   0.081034926365461  -1.003489086283500   1.059324898391841 1

# Energy components:
   Eewald =    -1407.9757261119214036
       EH =      346.0942498450611993
     Eloc =    -1081.2553641224908461
      Enl =       83.6752377271301668
      Exc =     -515.6442206934490287
 Exc_core =      230.4980389598916304
       KE =      607.2267081275074361
-------------------------------------
     Etot =    -1737.3810762682708173
       TS =        0.1871678291031462
-------------------------------------
        F =    -1737.5682440973739631

IonicMinimize: Iter:   2  F: -1737.568244097373963  |grad|_K:  2.513e-02  alpha:  4.387e-01  linmin: -9.825e-01  t[s]:   6663.17

#--- Lowdin population analysis ---
# oxidation-state Ir +0.541 +0.521 +0.513 +0.525 +0.543 +0.489 +0.542 +0.533 +0.553 +0.515 +0.555 +0.509 +0.523 +0.518 +0.552 +0.553
# oxidation-state O -0.230 -0.236 -0.268 -0.228 -0.248 -0.247 -0.253 -0.225 -0.225 -0.258 -0.216 -0.217 -0.232 -0.228 -0.251 -0.241 -0.207 -0.224 -0.243 -0.240 -0.229 -0.245 -0.231 -0.231 -0.249 -0.240 -0.248 -0.226 -0.230 -0.242 -0.270 -0.220


-------- Electronic minimization -----------
Will mix electronic density at each iteration.
	FillingsUpdate:  mu: +0.519697805  nElectrons: 432.000000
	FillingsUpdate:  mu: +0.522083803  nElectrons: 432.000000
SCF: Cycle:  0   F: -1733.086212284671092   dF: +3.316e+00   |Residual|: 9.707e-01   |deigs|: 4.990e-03  t[s]:   6869.59
	FillingsUpdate:  mu: +0.525023609  nElectrons: 432.000000
SCF: Cycle:  1   F: -1733.724245850384250   dF: -6.380e-01   |Residual|: 1.046e+00   |deigs|: 1.378e-02  t[s]:   7014.50
	FillingsUpdate:  mu: +0.519867881  nElectrons: 432.000000
SCF: Cycle:  2   F: -1737.376896251031894   dF: -3.653e+00   |Residual|: 2.652e-01   |deigs|: 1.833e-02  t[s]:   7164.52
	FillingsUpdate:  mu: +0.519769122  nElectrons: 432.000000
SCF: Cycle:  3   F: -1737.426026635201424   dF: -4.913e-02   |Residual|: 2.458e-01   |deigs|: 1.831e-03  t[s]:   7314.40
	FillingsUpdate:  mu: +0.519256454  nElectrons: 432.000000
SCF: Cycle:  4   F: -1737.622923778059430   dF: -1.969e-01   |Residual|: 6.235e-02   |deigs|: 2.945e-03  t[s]:   7458.30
	FillingsUpdate:  mu: +0.519255528  nElectrons: 432.000000
SCF: Cycle:  5   F: -1737.629620775174317   dF: -6.697e-03   |Residual|: 3.713e-02   |deigs|: 7.519e-04  t[s]:   7589.00
	FillingsUpdate:  mu: +0.519232123  nElectrons: 432.000000
SCF: Cycle:  6   F: -1737.632324298047706   dF: -2.704e-03   |Residual|: 1.860e-02   |deigs|: 3.689e-04  t[s]:   7677.89
	FillingsUpdate:  mu: +0.519213704  nElectrons: 432.000000
SCF: Cycle:  7   F: -1737.632998009395806   dF: -6.737e-04   |Residual|: 9.412e-03   |deigs|: 1.788e-04  t[s]:   7766.90
	FillingsUpdate:  mu: +0.519201220  nElectrons: 432.000000
SCF: Cycle:  8   F: -1737.633153718097901   dF: -1.557e-04   |Residual|: 5.021e-03   |deigs|: 1.411e-04  t[s]:   7858.92
	FillingsUpdate:  mu: +0.519200839  nElectrons: 432.000000
SCF: Cycle:  9   F: -1737.633221130357924   dF: -6.741e-05   |Residual|: 2.405e-03   |deigs|: 5.809e-05  t[s]:   7950.77
	FillingsUpdate:  mu: +0.519202633  nElectrons: 432.000000
SCF: Cycle: 10   F: -1737.633226670408703   dF: -5.540e-06   |Residual|: 1.622e-03   |deigs|: 3.714e-05  t[s]:   8039.64
	FillingsUpdate:  mu: +0.519201859  nElectrons: 432.000000
SCF: Cycle: 11   F: -1737.633235191403173   dF: -8.521e-06   |Residual|: 7.409e-04   |deigs|: 3.037e-05  t[s]:   8132.91
	FillingsUpdate:  mu: +0.519199781  nElectrons: 432.000000
SCF: Cycle: 12   F: -1737.633236468153200   dF: -1.277e-06   |Residual|: 2.367e-04   |deigs|: 9.478e-06  t[s]:   8222.67
	FillingsUpdate:  mu: +0.519199295  nElectrons: 432.000000
SCF: Cycle: 13   F: -1737.633236490199579   dF: -2.205e-08   |Residual|: 1.591e-04   |deigs|: 3.492e-06  t[s]:   8313.27
	FillingsUpdate:  mu: +0.519198920  nElectrons: 432.000000
SCF: Cycle: 14   F: -1737.633236500252906   dF: -1.005e-08   |Residual|: 1.082e-04   |deigs|: 3.497e-06  t[s]:   8405.33
	FillingsUpdate:  mu: +0.519198717  nElectrons: 432.000000
SCF: Cycle: 15   F: -1737.633236545761520   dF: -4.551e-08   |Residual|: 3.435e-05   |deigs|: 1.819e-06  t[s]:   8498.72
	FillingsUpdate:  mu: +0.519198683  nElectrons: 432.000000
SCF: Cycle: 16   F: -1737.633236545675572   dF: +8.595e-11   |Residual|: 2.298e-05   |deigs|: 5.201e-07  t[s]:   8589.89
	FillingsUpdate:  mu: +0.519198670  nElectrons: 432.000000
SCF: Cycle: 17   F: -1737.633236547033903   dF: -1.358e-09   |Residual|: 1.286e-05   |deigs|: 5.131e-07  t[s]:   8680.04
	FillingsUpdate:  mu: +0.519198657  nElectrons: 432.000000
SCF: Cycle: 18   F: -1737.633236547533215   dF: -4.993e-10   |Residual|: 5.724e-06   |deigs|: 2.496e-07  t[s]:   8769.30
SCF: Converged (|Delta E|<1.000000e-08 for 2 iters).

Setting wave functions to eigenvectors of Hamiltonian

# Ionic positions in lattice coordinates:
ion Ir   0.251646772422273   0.244482693721774   0.255685078760385 1
ion Ir   0.000000000000000   0.000000000000000   0.000000000000000 0
ion Ir   0.249799087428617   0.249312209415599   0.755134430618522 1
ion Ir  -0.002043886647063  -0.002933293735222   0.499044586775507 1
ion Ir   0.252365909634737   0.742584626398726   0.257087010542925 1
ion Ir  -0.005811448766322   0.493442346556163   0.013523274691964 1
ion Ir   0.251312037307544   0.752511285602206   0.754048601611663 1
ion Ir  -0.002487798757081   0.497991052821772   0.498445250835483 1
ion Ir   0.747070830706632   0.252191597885059   0.257137840931839 1
ion Ir   0.499867281351508  -0.002299335767570   0.001847516029168 1
ion Ir   0.749709382446578   0.249545835230286   0.746868354834002 1
ion Ir   0.496890193057636  -0.002691914409426   0.503407170249178 1
ion Ir   0.754668385740320   0.746743159692548   0.250966186739594 1
ion Ir   0.496073291314511   0.498319829582150  -0.001030186009689 1
ion Ir   0.753766056365221   0.744554275139222   0.751855894146532 1
ion Ir   0.496337796428659   0.496650977621318   0.496892249770925 1
ion O  -0.004573999830068   0.349100218978891   0.347351183714761 1
ion O   0.249161600367860   0.403678097579226   0.106286049579381 1
ion O  -0.002380214545937   0.167121685967006   0.146159277559158 1
ion O   0.247828766666612   0.102617513411845   0.410280992746417 1
ion O  -0.006680711510232   0.351437498294508   0.845020912770757 1
ion O   0.250573279242320   0.405837529477365   0.596575695734725 1
ion O   0.005335946859948   0.155416961382698   0.651287440934899 1
ion O   0.245145455514382   0.090271418263215   0.904503732042959 1
ion O   0.006520807039813   0.839892875022399   0.353931487913865 1
ion O   0.246772448113521   0.881655226334474   0.093686793867791 1
ion O  -0.002135270298713   0.657186161674955   0.158463233605750 1
ion O   0.250884751313793   0.590326818379040   0.406667118357391 1
ion O  -0.001746237901813   0.857079088684089   0.830598876669154 1
ion O   0.243166005551111   0.893284465920043   0.589412178516990 1
ion O   0.010482490682623   0.651656541800351   0.650592643305830 1
ion O   0.257809684607410   0.607857741009335   0.914538775118403 1
ion O   0.492743960063712   0.340934847661534   0.347839848992208 1
ion O   0.740084155968537   0.390779928669611   0.090555061484874 1
ion O   0.508504747245252   0.149013933712235   0.162257233090526 1
ion O   0.743042778078879   0.094723952154383   0.399794988384162 1
ion O   0.506206379791087   0.343412730628158   0.840996872918691 1
ion O   0.745980743496838   0.400626468517003   0.589055540212788 1
ion O   0.505909861586424   0.160920218420019   0.654197818771593 1
ion O   0.747249549435769   0.096159577801841   0.906402639682653 1
ion O   0.506804900579573   0.839189277899044   0.351173093846764 1
ion O   0.752296021862531   0.907491758532512   0.092388107308242 1
ion O   0.501553772244651   0.636775753860350   0.166793050153839 1
ion O   0.736857500175549   0.599541468353556   0.406995840388871 1
ion O   0.507136802667274   0.840923181405176   0.850075822780603 1
ion O   0.745202683855682   0.901205232600927   0.589325761266679 1
ion O   0.501987622300373   0.642511903113573   0.664379785298168 1
ion O   0.748610376168323   0.600053895655077   0.903328822445015 1

# Forces in Lattice coordinates:
force Ir  -0.253773721626622   0.446048749358178  -0.450661555101151 1
force Ir  -0.117070963503713  -0.116923577615647   0.006813552675851 0
force Ir   0.023505015817563   0.097364734218768  -0.372582658896147 1
force Ir  -0.052521180325444   0.311721611295724   0.064855519970684 1
force Ir   0.101156855990019   0.103878673361462  -0.125007579414157 1
force Ir   0.160080522212756   0.597549467311513  -0.840821982326872 1
force Ir   0.136307691361132  -0.431199313342062  -0.302931336260957 1
force Ir   0.022687241923030   0.208364908414375   0.258424634311872 1
force Ir   0.083918750145726  -0.221158359305394  -0.568807842669875 1
force Ir  -0.033763243786969  -0.147094216458792   0.088628921906233 1
force Ir   0.283021392578949   0.076959885713639   0.231947065158149 1
force Ir  -0.012897431863308   0.257147054275798  -0.293475580091985 1
force Ir  -0.292039438333947   0.422306473371741   0.063106468697331 1
force Ir   0.171062515311493  -0.067228275001188   0.066845718111562 1
force Ir  -0.014880721656666   0.409221096955168  -0.600200752860759 1
force Ir  -0.031149931272038   0.082579757320896   0.482038139591648 1
force O   0.066174793661732  -0.229843428819575  -0.183563438922461 1
force O   0.020190565891980  -0.044018170632791  -0.172648767666520 1
force O   0.074307981187514  -0.304463971495556   0.197841870870149 1
force O   0.018554218531200  -0.581663766327765   0.304510492083329 1
force O   0.140949864226360  -0.163930306044331   0.037079404184504 1
force O  -0.081191467087808  -0.228095326396888   0.123641413733389 1
force O  -0.183517669508457   0.005773504786085   0.097920538043498 1
force O   0.225841738296925   0.121060592077230   0.009610824926624 1
force O  -0.151213952055928  -0.061650723590884  -0.295656809101676 1
force O   0.107931888851293   0.689402577391611  -0.287126519899279 1
force O   0.089534800000145  -0.408215197002275  -0.113535436627018 1
force O  -0.104180833159054   0.043529512023748   0.019899601741485 1
force O   0.027068918283040  -0.019591676694291   0.344816503148020 1
force O   0.206865678274552   0.208621596022831   0.076692936225782 1
force O  -0.251453430764336   0.185642049150360   0.301008538062359 1
force O  -0.313875284718326  -0.327726308219110   0.173784788137298 1
force O   0.155402851891406   0.125111165029710   0.148917340646173 1
force O   0.070700471906069   0.217004541190188   0.105974357688357 1
force O  -0.324324547716883  -0.045676506097601  -0.103504339515902 1
force O   0.186272578092862  -0.266608938009760   0.446421698547623 1
force O  -0.264354647913845   0.281943862208916   0.298084120773623 1
force O   0.104648613020144  -0.014399713330476   0.083827390861469 1
force O  -0.316290544204591  -0.461487768948528  -0.240221983243793 1
force O   0.058114383215962   0.169680621319009  -0.154999590767899 1
force O  -0.198927451766306   0.036708531117562  -0.087934690589674 1
force O   0.033303803729387  -0.385868974066124   0.360038029339586 1
force O   0.007263082708954   0.265855530734433  -0.057730011349275 1
force O   0.401702929639991  -0.218348717901499   0.048913708330541 1
force O  -0.131619716928141   0.163903310763962  -0.059735736334197 1
force O   0.125990211570936  -0.285815330373942   0.359483119861444 1
force O  -0.061800831866068   0.101092022201098  -0.098704425585182 1
force O   0.086140494453493  -0.587232385014513   0.616886390467815 1

# Energy components:
   Eewald =    -1408.9675570793360748
       EH =      345.1997300469395213
     Eloc =    -1079.2562149954947017
      Enl =       83.6229013222293815
      Exc =     -515.5989633902387368
 Exc_core =      230.4980234377005104
       KE =      607.0532307199349589
-------------------------------------
     Etot =    -1737.4488499382655391
       TS =        0.1843866092676017
-------------------------------------
        F =    -1737.6332365475332153

IonicMinimize: Iter:   3  F: -1737.633236547533215  |grad|_K:  1.624e-02  alpha:  3.746e-01  linmin: -9.818e-01  t[s]:   8790.33

#--- Lowdin population analysis ---
# oxidation-state Ir +0.538 +0.522 +0.517 +0.527 +0.540 +0.498 +0.538 +0.533 +0.548 +0.518 +0.547 +0.515 +0.525 +0.524 +0.540 +0.549
# oxidation-state O -0.233 -0.238 -0.259 -0.230 -0.245 -0.243 -0.247 -0.230 -0.230 -0.254 -0.222 -0.220 -0.235 -0.233 -0.243 -0.241 -0.219 -0.227 -0.242 -0.238 -0.230 -0.242 -0.234 -0.233 -0.244 -0.237 -0.246 -0.233 -0.233 -0.241 -0.258 -0.229


-------- Electronic minimization -----------
Will mix electronic density at each iteration.
	FillingsUpdate:  mu: +0.519198657  nElectrons: 432.000000
	FillingsUpdate:  mu: +0.522206460  nElectrons: 432.000000
SCF: Cycle:  0   F: -1732.567447626115381   dF: +4.012e+00   |Residual|: 9.518e-01   |deigs|: 4.459e-03  t[s]:   8995.83
	FillingsUpdate:  mu: +0.525476303  nElectrons: 432.000000
SCF: Cycle:  1   F: -1732.628747428009547   dF: -6.130e-02   |Residual|: 1.135e+00   |deigs|: 1.490e-02  t[s]:   9137.16
	FillingsUpdate:  mu: +0.519731967  nElectrons: 432.000000
SCF: Cycle:  2   F: -1737.479505725972558   dF: -4.851e+00   |Residual|: 2.625e-01   |deigs|: 2.155e-02  t[s]:   9283.76
	FillingsUpdate:  mu: +0.519673298  nElectrons: 432.000000
SCF: Cycle:  3   F: -1737.456009721962118   dF: +2.350e-02   |Residual|: 2.514e-01   |deigs|: 2.067e-03  t[s]:   9433.88
	FillingsUpdate:  mu: +0.519150724  nElectrons: 432.000000
SCF: Cycle:  4   F: -1737.662299874691826   dF: -2.063e-01   |Residual|: 6.167e-02   |deigs|: 3.500e-03  t[s]:   9587.69
	FillingsUpdate:  mu: +0.519118249  nElectrons: 432.000000
SCF: Cycle:  5   F: -1737.668446814997651   dF: -6.147e-03   |Residual|: 4.059e-02   |deigs|: 5.345e-04  t[s]:   9725.18
	FillingsUpdate:  mu: +0.519107670  nElectrons: 432.000000
SCF: Cycle:  6   F: -1737.672079021259151   dF: -3.632e-03   |Residual|: 2.093e-02   |deigs|: 3.017e-04  t[s]:   9817.75
	FillingsUpdate:  mu: +0.519097132  nElectrons: 432.000000
SCF: Cycle:  7   F: -1737.672980329333086   dF: -9.013e-04   |Residual|: 1.134e-02   |deigs|: 1.449e-04  t[s]:   9904.66
	FillingsUpdate:  mu: +0.519087478  nElectrons: 432.000000
SCF: Cycle:  8   F: -1737.673300829191476   dF: -3.205e-04   |Residual|: 4.346e-03   |deigs|: 1.443e-04  t[s]:   9993.77
	FillingsUpdate:  mu: +0.519087258  nElectrons: 432.000000
SCF: Cycle:  9   F: -1737.673339223671519   dF: -3.839e-05   |Residual|: 2.583e-03   |deigs|: 4.710e-05  t[s]:  10082.19
	FillingsUpdate:  mu: +0.519088669  nElectrons: 432.000000
SCF: Cycle: 10   F: -1737.673353108496940   dF: -1.388e-05   |Residual|: 1.582e-03   |deigs|: 3.506e-05  t[s]:  10170.27
	FillingsUpdate:  mu: +0.519088652  nElectrons: 432.000000
SCF: Cycle: 11   F: -1737.673359101092728   dF: -5.993e-06   |Residual|: 8.500e-04   |deigs|: 2.687e-05  t[s]:  10258.69
	FillingsUpdate:  mu: +0.519086995  nElectrons: 432.000000
SCF: Cycle: 12   F: -1737.673360793700340   dF: -1.693e-06   |Residual|: 2.085e-04   |deigs|: 1.052e-05  t[s]:  10349.89
	FillingsUpdate:  mu: +0.519086314  nElectrons: 432.000000
SCF: Cycle: 13   F: -1737.673360757583850   dF: +3.612e-08   |Residual|: 1.701e-04   |deigs|: 3.424e-06  t[s]:  10440.65
	FillingsUpdate:  mu: +0.519086004  nElectrons: 432.000000
SCF: Cycle: 14   F: -1737.673360810494614   dF: -5.291e-08   |Residual|: 9.333e-05   |deigs|: 3.271e-06  t[s]:  10531.60
	FillingsUpdate:  mu: +0.519085918  nElectrons: 432.000000
SCF: Cycle: 15   F: -1737.673360841870135   dF: -3.138e-08   |Residual|: 3.854e-05   |deigs|: 1.687e-06  t[s]:  10623.64
	FillingsUpdate:  mu: +0.519085878  nElectrons: 432.000000
SCF: Cycle: 16   F: -1737.673360843713226   dF: -1.843e-09   |Residual|: 1.904e-05   |deigs|: 4.639e-07  t[s]:  10716.16
	FillingsUpdate:  mu: +0.519085860  nElectrons: 432.000000
SCF: Cycle: 17   F: -1737.673360843961973   dF: -2.487e-10   |Residual|: 1.373e-05   |deigs|: 4.045e-07  t[s]:  10804.26
SCF: Converged (|Delta E|<1.000000e-08 for 2 iters).

Setting wave functions to eigenvectors of Hamiltonian

# Ionic positions in lattice coordinates:
ion Ir   0.249760667572410   0.246352098526513   0.254623685391786 1
ion Ir   0.000000000000000   0.000000000000000   0.000000000000000 0
ion Ir   0.250026542123862   0.249663897967800   0.753213430734533 1
ion Ir  -0.002201537013279  -0.002177003533709   0.499657476708053 1
ion Ir   0.252383771458438   0.743239384837856   0.255778021129295 1
ion Ir  -0.003906613308492   0.496685812299796   0.008780871995639 1
ion Ir   0.251974153016626   0.750608492596581   0.752787656292428 1
ion Ir  -0.002476255363431   0.498728934588782   0.499511379646188 1
ion Ir   0.747412891604977   0.250527775104385   0.254535604775514 1
ion Ir   0.499818733668168  -0.002912768605843   0.002191899109724 1
ion Ir   0.750605839309242   0.249891832945016   0.747916363003905 1
ion Ir   0.497235997522136  -0.002027393181312   0.502217083317347 1
ion Ir   0.752753293729853   0.748206945984994   0.251187802736730 1
ion Ir   0.497321569654444   0.497803247404387   0.000067083670783 1
ion Ir   0.753304154897327   0.745969596419073   0.750421995237354 1
ion Ir   0.496723602863438   0.497101744619373   0.499321275921638 1
ion O  -0.003827135107669   0.347996011239524   0.346506072985822 1
ion O   0.249131688074728   0.403899690867145   0.104540402884173 1
ion O  -0.001656971643240   0.164876533751239   0.147234514032031 1
ion O   0.247901051716089   0.100316371660666   0.410599817395393 1
ion O  -0.004601223987881   0.350351642783493   0.845124148953333 1
ion O   0.249435508138569   0.404603034161689   0.597234897788275 1
ion O   0.003212764318252   0.155494948236781   0.651960586211524 1
ion O   0.247752352926408   0.091196441870496   0.904462534439218 1
ion O   0.004677645619350   0.840071269796668   0.352385052291210 1
ion O   0.248215992914551   0.885829621314621   0.092304200278251 1
ion O  -0.001681635982247   0.655240486832935   0.158321856462898 1
ion O   0.249894443936663   0.590680768522138   0.406902165142519 1
ion O  -0.000811211843193   0.856412793005958   0.832478368263323 1
ion O   0.245659881732150   0.894899832735608   0.589712161707919 1
ion O   0.007461841189031   0.652583099872742   0.652258322002068 1
ion O   0.253944089420555   0.605671212292179   0.915471261647973 1
ion O   0.494439158851247   0.341455725026412   0.348548773684471 1
ion O   0.741930100810222   0.392664961594030   0.090782826415009 1
ion O   0.504335626269853   0.148669806688438   0.161522125945592 1
ion O   0.745437054136589   0.093886293385302   0.401932354234047 1
ion O   0.503647832751070   0.344782727797052   0.842391482328581 1
ion O   0.747280219500071   0.400482906238292   0.589836294557400 1
ion O   0.503378862564134   0.158678739739381   0.653313435502116 1
ion O   0.747925575527621   0.096835709581562   0.905890653676859 1
ion O   0.504314936846933   0.839684948310244   0.350747734132495 1
ion O   0.752469289607541   0.905362601183575   0.094443966570844 1
ion O   0.501792924102615   0.638591969916437   0.166259448585048 1
ion O   0.741396459576300   0.598310760218395   0.407149264046156 1
ion O   0.505635534281006   0.841533579889870   0.849291534649654 1
ion O   0.746178134975808   0.900017165064376   0.591011038690601 1
ion O   0.501284955241008   0.643112112205293   0.663674090152920 1
ion O   0.749983645167579   0.598079634914761   0.905449091362275 1

# Forces in Lattice coordinates:
force Ir  -0.118387645852759   0.236237042883469  -0.237534377480440 1
force Ir  -0.054724119349065  -0.099896897959931  -0.016584692403540 0
force Ir   0.008425800544951   0.019757538836652  -0.193914518757035 1
force Ir  -0.006176650069965   0.112616537301657   0.070143355693396 1
force Ir   0.020791661488824   0.092825883584823  -0.120006370610977 1
force Ir   0.101606044519669   0.288944533494392  -0.461858564464213 1
force Ir   0.042098916420430  -0.217149100729746  -0.140592312651393 1
force Ir   0.021952264923039   0.075864273684424   0.138972504542127 1
force Ir   0.036433580945836  -0.140052434909314  -0.313095320717582 1
force Ir  -0.005677692891404  -0.059926474452565   0.012291288959348 1
force Ir   0.093712059238602   0.033687235522563   0.136090924671245 1
force Ir   0.015069771446237   0.092808152307589  -0.151467357874799 1
force Ir  -0.135523210711720   0.145933703899842   0.066609708722952 1
force Ir   0.088427165317906  -0.021521281475042   0.091140281825379 1
force Ir  -0.030131591354377   0.221984660588138  -0.235928182664406 1
force Ir   0.012875588877071   0.036391361878159   0.243981974468521 1
force O   0.031317752003488  -0.128978071669752  -0.097197196334316 1
force O   0.006356051950362   0.004564516408910  -0.188925761986909 1
force O   0.042230965056715  -0.274392524410698   0.149343596858996 1
force O  -0.003234299361953  -0.307082143269302   0.080884825086621 1
force O   0.116730692756301  -0.121829297463484   0.010163986756111 1
force O  -0.055756274974956  -0.114177124760575   0.045106361157424 1
force O  -0.112799450404533  -0.011986193458058   0.075591965187449 1
force O   0.131537401335897   0.103635343243895   0.000539238752911 1
force O  -0.100417885997720   0.021260975980042  -0.199925868246225 1
force O   0.064214535303872   0.476695025280950  -0.128242220153880 1
force O   0.043223425450481  -0.237269049909823  -0.054943019997290 1
force O  -0.050271950101102   0.060763274817934   0.017417388417541 1
force O   0.027042559756152  -0.074975966207452   0.246594826221029 1
force O   0.137358024558696   0.143197470935926   0.091779696103845 1
force O  -0.165398889049612   0.085813569394132   0.180429898562875 1
force O  -0.196743115378565  -0.221236126752617   0.045996583549867 1
force O   0.105351843386771   0.070926723834251   0.075514124160358 1
force O   0.099027757428874   0.194866347309351   0.056770357392212 1
force O  -0.215540284846763  -0.022919850857009  -0.084408211905121 1
force O   0.118607926251913  -0.111205462980123   0.246318088057990 1
force O  -0.159056280658969   0.156728489338126   0.165039025569905 1
force O   0.065195636339188  -0.006769893862278   0.105988224061346 1
force O  -0.166668559147472  -0.268883833021164  -0.099012711194397 1
force O   0.034748704957385   0.067659077908624  -0.047253485961555 1
force O  -0.135170572631771   0.051576468491891  -0.074292038909724 1
force O   0.003563433675164  -0.209793079931381   0.197571391251609 1
force O   0.004711181842996   0.235752797759692  -0.071891694467534 1
force O   0.233382229396136  -0.148295049674793   0.033679752081995 1
force O  -0.083907951370643   0.093213618889223  -0.076758661460932 1
force O   0.069794883025183  -0.120880380745277   0.190188661254056 1
force O  -0.029301600430260   0.096293830344629  -0.068847277897642 1
force O   0.048226389674661  -0.288811088707378   0.298005478508479 1

# Energy components:
   Eewald =    -1409.4248449130893732
       EH =      344.7768658234974737
     Eloc =    -1078.3287094206216352
      Enl =       83.5990998242118337
      Exc =     -515.5830661036410447
 Exc_core =      230.4980339343622973
       KE =      606.9716956252482305
-------------------------------------
     Etot =    -1737.4909252300321896
       TS =        0.1824356139298953
-------------------------------------
        F =    -1737.6733608439619729

IonicMinimize: Iter:   4  F: -1737.673360843961973  |grad|_K:  9.169e-03  alpha:  4.345e-01  linmin: -9.817e-01  t[s]:  10824.32

#--- Lowdin population analysis ---
# oxidation-state Ir +0.536 +0.523 +0.523 +0.529 +0.536 +0.510 +0.532 +0.533 +0.541 +0.522 +0.540 +0.523 +0.529 +0.528 +0.534 +0.544
# oxidation-state O -0.236 -0.238 -0.250 -0.232 -0.242 -0.240 -0.243 -0.234 -0.233 -0.250 -0.227 -0.224 -0.237 -0.236 -0.238 -0.241 -0.227 -0.232 -0.241 -0.238 -0.232 -0.239 -0.237 -0.236 -0.240 -0.236 -0.243 -0.237 -0.234 -0.239 -0.248 -0.234


-------- Electronic minimization -----------
Will mix electronic density at each iteration.
	FillingsUpdate:  mu: +0.519085860  nElectrons: 432.000000
	FillingsUpdate:  mu: +0.524110345  nElectrons: 432.000000
SCF: Cycle:  0   F: -1730.307477418370809   dF: +6.028e+00   |Residual|: 1.085e+00   |deigs|: 5.405e-03  t[s]:  11032.01
	FillingsUpdate:  mu: +0.527066579  nElectrons: 432.000000
SCF: Cycle:  1   F: -1730.246823364764396   dF: +6.065e-02   |Residual|: 1.356e+00   |deigs|: 1.716e-02  t[s]:  11185.82
	FillingsUpdate:  mu: +0.520189495  nElectrons: 432.000000
SCF: Cycle:  2   F: -1737.441473275075168   dF: -7.195e+00   |Residual|: 3.131e-01   |deigs|: 2.594e-02  t[s]:  11336.77
	FillingsUpdate:  mu: +0.519915361  nElectrons: 432.000000
SCF: Cycle:  3   F: -1737.442600171155163   dF: -1.127e-03   |Residual|: 2.801e-01   |deigs|: 1.905e-03  t[s]:  11488.79
	FillingsUpdate:  mu: +0.519343844  nElectrons: 432.000000
SCF: Cycle:  4   F: -1737.677938755136211   dF: -2.353e-01   |Residual|: 7.683e-02   |deigs|: 4.010e-03  t[s]:  11642.33
	FillingsUpdate:  mu: +0.519280947  nElectrons: 432.000000
SCF: Cycle:  5   F: -1737.686956151018194   dF: -9.017e-03   |Residual|: 5.252e-02   |deigs|: 4.343e-04  t[s]:  11787.07
	FillingsUpdate:  mu: +0.519270745  nElectrons: 432.000000
SCF: Cycle:  6   F: -1737.694334451018449   dF: -7.378e-03   |Residual|: 2.533e-02   |deigs|: 3.218e-04  t[s]:  11876.56
	FillingsUpdate:  mu: +0.519266195  nElectrons: 432.000000
SCF: Cycle:  7   F: -1737.695560811069981   dF: -1.226e-03   |Residual|: 1.439e-02   |deigs|: 1.753e-04  t[s]:  11967.48
	FillingsUpdate:  mu: +0.519257856  nElectrons: 432.000000
SCF: Cycle:  8   F: -1737.696131684391958   dF: -5.709e-04   |Residual|: 4.960e-03   |deigs|: 1.348e-04  t[s]:  12057.31
	FillingsUpdate:  mu: +0.519256653  nElectrons: 432.000000
SCF: Cycle:  9   F: -1737.696184342105425   dF: -5.266e-05   |Residual|: 2.909e-03   |deigs|: 4.298e-05  t[s]:  12146.02
	FillingsUpdate:  mu: +0.519258103  nElectrons: 432.000000
SCF: Cycle: 10   F: -1737.696203122790166   dF: -1.878e-05   |Residual|: 1.682e-03   |deigs|: 2.883e-05  t[s]:  12237.63
	FillingsUpdate:  mu: +0.519258352  nElectrons: 432.000000
SCF: Cycle: 11   F: -1737.696208087695823   dF: -4.965e-06   |Residual|: 1.092e-03   |deigs|: 2.470e-05  t[s]:  12326.06
	FillingsUpdate:  mu: +0.519256613  nElectrons: 432.000000
SCF: Cycle: 12   F: -1737.696211331105587   dF: -3.243e-06   |Residual|: 2.373e-04   |deigs|: 1.158e-05  t[s]:  12415.07
	FillingsUpdate:  mu: +0.519255834  nElectrons: 432.000000
SCF: Cycle: 13   F: -1737.696211242210438   dF: +8.890e-08   |Residual|: 2.007e-04   |deigs|: 3.703e-06  t[s]:  12507.64
	FillingsUpdate:  mu: +0.519255568  nElectrons: 432.000000
SCF: Cycle: 14   F: -1737.696211336421356   dF: -9.421e-08   |Residual|: 1.167e-04   |deigs|: 3.587e-06  t[s]:  12597.48
	FillingsUpdate:  mu: +0.519255466  nElectrons: 432.000000
SCF: Cycle: 15   F: -1737.696211394359580   dF: -5.794e-08   |Residual|: 4.381e-05   |deigs|: 2.023e-06  t[s]:  12686.40
	FillingsUpdate:  mu: +0.519255428  nElectrons: 432.000000
SCF: Cycle: 16   F: -1737.696211397000297   dF: -2.641e-09   |Residual|: 1.876e-05   |deigs|: 4.654e-07  t[s]:  12775.35
	FillingsUpdate:  mu: +0.519255410  nElectrons: 432.000000
SCF: Cycle: 17   F: -1737.696211396803392   dF: +1.969e-10   |Residual|: 1.465e-05   |deigs|: 3.332e-07  t[s]:  12864.38
	FillingsUpdate:  mu: +0.519255385  nElectrons: 432.000000
SCF: Cycle: 18   F: -1737.696211397393199   dF: -5.898e-10   |Residual|: 7.901e-06   |deigs|: 2.710e-07  t[s]:  12950.13
	FillingsUpdate:  mu: +0.519255376  nElectrons: 432.000000
SCF: Cycle: 19   F: -1737.696211397493016   dF: -9.982e-11   |Residual|: 4.383e-06   |deigs|: 1.994e-07  t[s]:  13026.17
SCF: Converged (|Delta E|<1.000000e-08 for 2 iters).

Setting wave functions to eigenvectors of Hamiltonian

# Ionic positions in lattice coordinates:
ion Ir   0.248091777574646   0.248405332467951   0.253080050679842 1
ion Ir   0.000000000000000   0.000000000000000   0.000000000000000 0
ion Ir   0.250115981854867   0.249577306202345   0.751345808039855 1
ion Ir  -0.001813384221642  -0.001919515255211   0.500739077220068 1
ion Ir   0.251748673749691   0.744438271220715   0.253883228167291 1
ion Ir  -0.001542493948577   0.499449688106089   0.003921853083658 1
ion Ir   0.251970941383452   0.748761022878493   0.751722656417848 1
ion Ir  -0.002059979787448   0.499061583390046   0.500724552167705 1
ion Ir   0.747714821055604   0.248716356653977   0.251608929810348 1
ion Ir   0.500037508589001  -0.003303689213813   0.002036665151840 1
ion Ir   0.750560249584297   0.250160100372346   0.749236351666457 1
ion Ir   0.498070374173276  -0.001799586402962   0.500967533739671 1
ion Ir   0.750982906625192   0.748726358185636   0.251987001610078 1
ion Ir   0.498692484771708   0.497564840805175   0.001773112638901 1
ion Ir   0.752246846580052   0.747741066691863   0.749645637437319 1
ion Ir   0.497755348339101   0.497423597244175   0.501596277613383 1
ion O  -0.003226087849138   0.346735963645156   0.345613325065349 1
ion O   0.249051571595503   0.404397420651261   0.101578996707244 1
ion O  -0.000824675578729   0.161107442819407   0.148987547855027 1
ion O   0.247599688417151   0.097747384367637   0.410150892130191 1
ion O  -0.001419578237100   0.348801694946459   0.845107248496433 1
ion O   0.248003617791295   0.403493972287213   0.597566251737640 1
ion O   0.000668865907560   0.155319503023217   0.652941489718348 1
ion O   0.250649040764190   0.092629998853871   0.904383380219356 1
ion O   0.002293397939665   0.840901253472397   0.350157843717196 1
ion O   0.249768614499624   0.891530594880355   0.091249363630509 1
ion O  -0.001157861987529   0.652892597606353   0.158083794497586 1
ion O   0.249023756341816   0.591578975021693   0.407193533618784 1
ion O   0.000281408791678   0.854947236743624   0.835322869882203 1
ion O   0.248914291261578   0.896828184264302   0.590848310451962 1
ion O   0.003567884856877   0.653323588027489   0.654208243682569 1
ion O   0.249317699205331   0.602916943585305   0.915675410356854 1
ion O   0.496844983573771   0.342105621676888   0.349238832647045 1
ion O   0.745309530626200   0.395519029163309   0.091138148356039 1
ion O   0.499064902903091   0.148382563746913   0.160398281278115 1
ion O   0.748299448699268   0.093306444882836   0.404297406294387 1
ion O   0.500396777401798   0.346304718275993   0.843955108278905 1
ion O   0.748810081581925   0.400375918120240   0.591452736912740 1
ion O   0.500559553995653   0.155987534757978   0.652723987805089 1
ion O   0.748698376492784   0.097238003959464   0.905817178252793 1
ion O   0.501041283796701   0.840569576414758   0.349876584000634 1
ion O   0.752267871851233   0.903197839517543   0.096536281330399 1
ion O   0.502004953084822   0.641726798992400   0.165162269455252 1
ion O   0.746470696992833   0.596613766619392   0.407454225902659 1
ion O   0.503734990834290   0.842330082653124   0.847974312653103 1
ion O   0.747388632340234   0.899197153692000   0.592757976865110 1
ion O   0.500717429305149   0.644350675448089   0.662780705256226 1
ion O   0.751275304764747   0.596046540637058   0.907526901547181 1

# Forces in Lattice coordinates:
force Ir  -0.006243494051463   0.034609704744296  -0.054107604861566 1
force Ir   0.015297852511111  -0.082904872913337  -0.033659591918420 0
force Ir  -0.014240606962215  -0.025502242999432  -0.035467882624739 1
force Ir   0.025710834235008  -0.024151762527460   0.038566402327257 1
force Ir  -0.038169612051533   0.076590244263644  -0.072906856432827 1
force Ir   0.006905227772397  -0.041062396828393  -0.057035134396666 1
force Ir  -0.027591990791334  -0.024699202311679   0.004883940872216 1
[...]
-------------------------------------
     Etot =    -1737.5288697241544469
       TS =        0.1790530609778685
-------------------------------------
        F =    -1737.7079227851322685

IonicMinimize: Iter:  20  F: -1737.707922785132268  |grad|_K:  1.830e-04  alpha:  1.000e+00  linmin: -3.640e-02  t[s]:  33441.54

#--- Lowdin population analysis ---
# oxidation-state Ir +0.531 +0.531 +0.531 +0.531 +0.531 +0.531 +0.531 +0.531 +0.531 +0.531 +0.531 +0.531 +0.531 +0.531 +0.531 +0.531
# oxidation-state O -0.238 -0.238 -0.238 -0.238 -0.238 -0.238 -0.238 -0.237 -0.238 -0.238 -0.238 -0.238 -0.238 -0.238 -0.238 -0.238 -0.238 -0.238 -0.238 -0.238 -0.238 -0.238 -0.238 -0.237 -0.238 -0.239 -0.238 -0.238 -0.238 -0.238 -0.238 -0.238


-------- Electronic minimization -----------
Will mix electronic density at each iteration.
	FillingsUpdate:  mu: +0.519691569  nElectrons: 432.000000
	FillingsUpdate:  mu: +0.519691337  nElectrons: 432.000000
SCF: Cycle:  0   F: -1737.707556160758713   dF: +2.861e-04   |Residual|: 7.213e-03   |deigs|: 1.085e-05  t[s]:  33614.02
	FillingsUpdate:  mu: +0.519691740  nElectrons: 432.000000
SCF: Cycle:  1   F: -1737.707190630996138   dF: +3.655e-04   |Residual|: 1.237e-02   |deigs|: 1.052e-04  t[s]:  33706.93
	FillingsUpdate:  mu: +0.519691188  nElectrons: 432.000000
SCF: Cycle:  2   F: -1737.707922873183179   dF: -7.322e-04   |Residual|: 1.382e-03   |deigs|: 1.536e-04  t[s]:  33794.06
	FillingsUpdate:  mu: +0.519691009  nElectrons: 432.000000
SCF: Cycle:  3   F: -1737.707926114754628   dF: -3.242e-06   |Residual|: 9.744e-04   |deigs|: 8.349e-06  t[s]:  33880.40
	FillingsUpdate:  mu: +0.519691016  nElectrons: 432.000000
SCF: Cycle:  4   F: -1737.707927926540606   dF: -1.812e-06   |Residual|: 4.109e-04   |deigs|: 8.512e-06  t[s]:  33973.07
	FillingsUpdate:  mu: +0.519691036  nElectrons: 432.000000
SCF: Cycle:  5   F: -1737.707928405734037   dF: -4.792e-07   |Residual|: 1.853e-04   |deigs|: 3.242e-06  t[s]:  34063.11
	FillingsUpdate:  mu: +0.519691077  nElectrons: 432.000000
SCF: Cycle:  6   F: -1737.707928439812576   dF: -3.408e-08   |Residual|: 6.523e-05   |deigs|: 9.275e-07  t[s]:  34153.02
	FillingsUpdate:  mu: +0.519691067  nElectrons: 432.000000
SCF: Cycle:  7   F: -1737.707928445571497   dF: -5.759e-09   |Residual|: 2.957e-05   |deigs|: 3.290e-07  t[s]:  34244.85
	FillingsUpdate:  mu: +0.519691064  nElectrons: 432.000000
SCF: Cycle:  8   F: -1737.707928446526466   dF: -9.550e-10   |Residual|: 1.759e-05   |deigs|: 1.875e-07  t[s]:  34335.39
SCF: Converged (|Delta E|<1.000000e-08 for 2 iters).

Setting wave functions to eigenvectors of Hamiltonian

# Ionic positions in lattice coordinates:
ion Ir   0.249648137264187   0.249427933228608   0.250567311408939 1
ion Ir   0.000000000000000   0.000000000000000   0.000000000000000 0
ion Ir   0.249796900302928   0.249540738943140   0.750286741522990 1
ion Ir  -0.000434205202375  -0.000578934013508   0.500386587528692 1
ion Ir   0.249800118154050   0.749590921232890   0.250346405085535 1
ion Ir  -0.000307784254760   0.499433948745918   0.000557388315898 1
ion Ir   0.249806914932136   0.749360947183686   0.750396453596520 1
ion Ir  -0.000333689811113   0.499558730495177   0.500229426888873 1
ion Ir   0.749656028447850   0.249430067546463   0.250502689806719 1
ion Ir   0.499872859710340  -0.000475929467456   0.000324990909833 1
ion Ir   0.749654439611072   0.249640786974484   0.750277630270001 1
ion Ir   0.499781925503064  -0.000580662040929   0.500426684858000 1
ion Ir   0.749709862415060   0.749655086101817   0.250261522665214 1
ion Ir   0.499725217399877   0.499398017235753   0.000445852795677 1
ion Ir   0.749790493976194   0.749317222707794   0.750374757539837 1
ion Ir   0.499706121575700   0.499484529762754   0.500337293567277 1
ion O  -0.000337651994704   0.345067343918850   0.346142454200087 1
ion O   0.249745985909726   0.403986562916506   0.096503254133707 1
ion O  -0.000212051490385   0.153956118529620   0.154579789148359 1
ion O   0.249710721375670   0.094798540891841   0.404517814493186 1
ion O  -0.000219513015881   0.345018252911760   0.846309216174588 1
ion O   0.249591181880756   0.404010022679658   0.596212113839705 1
ion O  -0.000297951804226   0.153986639633877   0.654506240123104 1
ion O   0.250012369501110   0.094978503224432   0.904210418402758 1
ion O  -0.000254111988339   0.845196345757638   0.346057859849159 1
ion O   0.249760158405354   0.904213082272628   0.096195906848671 1
ion O  -0.000256870744583   0.654035173598393   0.154460212323473 1
ion O   0.249777623107657   0.595057243507512   0.404422882004863 1
ion O  -0.000159522391299   0.845071802258036   0.846193118349292 1
ion O   0.249742108809965   0.903879036278237   0.596431755828064 1
ion O  -0.000175434252230   0.653972118069957   0.654413822118393 1
ion O   0.249676646178338   0.594929585816754   0.904668953285476 1
ion O   0.499692440676791   0.344726641959840   0.346532672657799 1
ion O   0.749676673059080   0.403880683644094   0.096271288924688 1
ion O   0.499670538779714   0.153790077711513   0.154674094909364 1
ion O   0.749698631487602   0.094888548218210   0.404549945903267 1
ion O   0.499672428243362   0.345021847993823   0.846160689882874 1
ion O   0.749789631347840   0.404130619894701   0.596216477011473 1
ion O   0.499755617005903   0.153980063300458   0.654515198586720 1
ion O   0.749744737918385   0.095270184120295   0.904425131821761 1
ion O   0.499754449213067   0.844953236823991   0.346261774509908 1
ion O   0.750018731529869   0.904368074903238   0.096139933296240 1
ion O   0.499768954594032   0.654051702423416   0.154351288890444 1
ion O   0.749629769910138   0.595023567323290   0.404199406269754 1
ion O   0.499887423835347   0.844749513561775   0.846437631750197 1
ion O   0.749723157048667   0.903781325503805   0.596295468352076 1
ion O   0.499793130693070   0.653661332886426   0.654770987000084 1
ion O   0.749812459127241   0.594676538517085   0.904402666250395 1

# Forces in Lattice coordinates:
force Ir   0.004525744841869  -0.004159498684586  -0.007099600252720 1
force Ir  -0.008241858478902  -0.032033830104713   0.022464531252140 0
force Ir  -0.005097164012239   0.000951680227648  -0.000424775276613 1
force Ir   0.011842222111067  -0.003160730022094   0.007901634087647 1
force Ir  -0.004231961763011  -0.000518349820663  -0.008313472711167 1
force Ir   0.004025171998330  -0.002512671699290  -0.006754826602116 1
force Ir  -0.000939919480405   0.001221294490966   0.008836421976704 1
force Ir   0.002837907965377   0.001776192613424   0.000663819094885 1
force Ir   0.001297678969165  -0.002667920746923  -0.007683190301005 1
force Ir   0.001278139555088   0.003535343392628  -0.003101857579686 1
force Ir   0.007091145004319  -0.001969148849746   0.001611089727090 1
force Ir  -0.006051750238024  -0.004547552990207   0.004371742002741 1
force Ir   0.005525756126230  -0.000082194444914  -0.007723060680734 1
force Ir  -0.001386244037316  -0.000152408888622  -0.002764031875992 1
force Ir   0.003126863129359   0.002858840390381   0.007992566766924 1
force Ir   0.000289703619111   0.003312057401971  -0.000906639322980 1
force O  -0.000825975217253   0.001638015129600   0.004421681385318 1
force O  -0.000469391705468   0.000082459285194  -0.002482372830252 1
force O  -0.000924086761385   0.005023129777106  -0.000489550022065 1
force O  -0.002016730694229   0.004440766805917   0.001698563569834 1
force O  -0.000790629348384  -0.000369703408414  -0.002453696974207 1
force O   0.001441830550299   0.001219118147011  -0.003039437994923 1
force O  -0.001403991505307  -0.000605748707787  -0.000770410336485 1
force O   0.000897984404682   0.005355418761708   0.001177009613550 1
force O  -0.001223451049452  -0.002324770693227   0.002458026003980 1
force O   0.000549677715896  -0.001853719910323  -0.002458102942871 1
force O  -0.000730225135943   0.003105767731556   0.004101036325202 1
force O  -0.000677534467749  -0.000170782443026   0.001057095577124 1
force O  -0.001039142324953   0.000590780701520  -0.003543240569964 1
force O  -0.000459615524650   0.005263008003476  -0.010065453955794 1
force O  -0.001166067060665  -0.001301883455191   0.000304661982730 1
force O   0.000291938330312   0.002242366540145  -0.002366763966727 1
force O  -0.000669494176425   0.005049835065798  -0.002942197745685 1
force O  -0.000754292892153  -0.003088631176689   0.003611754336864 1
force O  -0.000110153774119   0.004327496002447   0.001512451652087 1
force O  -0.000272869136879   0.003714264783096  -0.000502331170183 1
force O   0.000069435125378   0.004260362859841   0.002627196449437 1
force O  -0.001921897142709  -0.002296844674215  -0.002485867470861 1
force O   0.000311727912102  -0.001099714443836  -0.003483907567995 1
force O  -0.000339918330073   0.000610381922418  -0.001600542848167 1
force O   0.000069259768809   0.004800800956151   0.000798638191071 1
force O  -0.000476207972991  -0.006564419541343   0.002866170883063 1
force O  -0.000140569192487   0.002279903088686   0.005138035584160 1
force O   0.000002502580740  -0.002539044103526   0.007891918348889 1
force O  -0.001189607732455   0.002810355415869  -0.003534380120839 1
force O  -0.001661098561398   0.004231107797394  -0.004293243933754 1
force O  -0.000974894228079   0.000750947575152  -0.005914617998985 1
force O  -0.001236250970719   0.006415328203920   0.000880648483788 1

# Energy components:
   Eewald =    -1409.3433324621912561
       EH =      344.8035920660790907
     Eloc =    -1078.4663575361932999
      Enl =       83.6038614161940785
      Exc =     -515.6074987926685935
 Exc_core =      230.4980036059437225
       KE =      606.9828576104976037
-------------------------------------
     Etot =    -1737.5288740923385831
       TS =        0.1790543541878542
-------------------------------------
        F =    -1737.7079284465264664

IonicMinimize: Iter:  21  F: -1737.707928446526466  |grad|_K:  2.332e-04  alpha:  1.000e+00  linmin:  1.298e-01  t[s]:  34357.13

#--- Lowdin population analysis ---
# oxidation-state Ir +0.531 +0.531 +0.531 +0.531 +0.531 +0.531 +0.531 +0.531 +0.531 +0.531 +0.531 +0.531 +0.531 +0.531 +0.531 +0.531
# oxidation-state O -0.238 -0.238 -0.238 -0.238 -0.238 -0.238 -0.238 -0.237 -0.238 -0.238 -0.238 -0.238 -0.238 -0.238 -0.238 -0.238 -0.238 -0.238 -0.238 -0.238 -0.238 -0.238 -0.238 -0.238 -0.238 -0.238 -0.238 -0.238 -0.238 -0.238 -0.238 -0.238


-------- Electronic minimization -----------
Will mix electronic density at each iteration.
	FillingsUpdate:  mu: +0.519691064  nElectrons: 432.000000
	FillingsUpdate:  mu: +0.519691409  nElectrons: 432.000000
SCF: Cycle:  0   F: -1737.707845135901380   dF: +8.337e-05   |Residual|: 3.416e-03   |deigs|: 6.554e-07  t[s]:  34509.47
	FillingsUpdate:  mu: +0.519691420  nElectrons: 432.000000
SCF: Cycle:  1   F: -1737.707754657325040   dF: +9.048e-05   |Residual|: 6.186e-03   |deigs|: 4.328e-05  t[s]:  34597.40
	FillingsUpdate:  mu: +0.519691248  nElectrons: 432.000000
SCF: Cycle:  2   F: -1737.707935865251329   dF: -1.812e-04   |Residual|: 5.898e-04   |deigs|: 6.783e-05  t[s]:  34688.63
	FillingsUpdate:  mu: +0.519691288  nElectrons: 432.000000
SCF: Cycle:  3   F: -1737.707936552358660   dF: -6.871e-07   |Residual|: 3.808e-04   |deigs|: 2.768e-06  t[s]:  34776.50
	FillingsUpdate:  mu: +0.519691304  nElectrons: 432.000000
SCF: Cycle:  4   F: -1737.707936779439251   dF: -2.271e-07   |Residual|: 1.937e-04   |deigs|: 2.711e-06  t[s]:  34865.19
	FillingsUpdate:  mu: +0.519691294  nElectrons: 432.000000
SCF: Cycle:  5   F: -1737.707936896320689   dF: -1.169e-07   |Residual|: 7.980e-05   |deigs|: 1.129e-06  t[s]:  34959.69
	FillingsUpdate:  mu: +0.519691295  nElectrons: 432.000000
SCF: Cycle:  6   F: -1737.707936901695348   dF: -5.375e-09   |Residual|: 3.165e-05   |deigs|: 3.958e-07  t[s]:  35049.98
	FillingsUpdate:  mu: +0.519691298  nElectrons: 432.000000
SCF: Cycle:  7   F: -1737.707936902909296   dF: -1.214e-09   |Residual|: 1.372e-05   |deigs|: 1.848e-07  t[s]:  35141.76
SCF: Converged (|Delta E|<1.000000e-08 for 2 iters).

Setting wave functions to eigenvectors of Hamiltonian

# Ionic positions in lattice coordinates:
ion Ir   0.249690702319243   0.249385424974556   0.250555631776098 1
ion Ir   0.000000000000000   0.000000000000000   0.000000000000000 0
ion Ir   0.249740521931465   0.249525221434618   0.750296708655757 1
ion Ir  -0.000327068252058  -0.000628981232587   0.500464684781369 1
ion Ir   0.249740382860292   0.749571393099727   0.250310734864886 1
ion Ir  -0.000284475024379   0.499385640302129   0.000537036877363 1
ion Ir   0.249783964838145   0.749337900900096   0.750470368887616 1
ion Ir  -0.000314172124978   0.499546243611137   0.500260399495323 1
ion Ir   0.749673585578668   0.249386734099480   0.250494909916786 1
ion Ir   0.499894866343511  -0.000467806547001   0.000321874629681 1
ion Ir   0.749716995509995   0.249612227429132   0.750293996953961 1
ion Ir   0.499706381094067  -0.000640789955059   0.500463689421728 1
ion Ir   0.749761058026184   0.749628196350734   0.250244750745828 1
ion Ir   0.499703311085602   0.499374796222631   0.000468531883527 1
ion Ir   0.749800360016581   0.749322547804858   0.750442288775494 1
ion Ir   0.499696850900673   0.499487033381346   0.500346798461268 1
ion O  -0.000339729374011   0.345050495882882   0.346188979048985 1
ion O   0.249735967020599   0.403916831059814   0.096465747590711 1
ion O  -0.000214032520485   0.153949522601049   0.154603767710922 1
ion O   0.249675322043922   0.094828278705516   0.404596193062814 1
ion O  -0.000224020653229   0.345005414989708   0.846287087832405 1
ion O   0.249605140713280   0.403958055314178   0.596179795467075 1
ion O  -0.000314245349305   0.153926092156275   0.654563971522252 1
ion O   0.250045569508041   0.095045482481223   0.904279013779105 1
ion O  -0.000271082028427   0.845162809292862   0.346089059349181 1
ion O   0.249770667797197   0.904167528591436   0.096150177040657 1
ion O  -0.000265411220385   0.653989203877149   0.154515308779458 1
ion O   0.249755639711423   0.595063813799789   0.404463308063123 1
ion O  -0.000175196180555   0.845080042465581   0.846181140973040 1
ion O   0.249743126572412   0.903826006858113   0.596381760360463 1
ion O  -0.000214801556095   0.653907234230103   0.654492475164025 1
ion O   0.249676357310888   0.594909986987900   0.904689280761654 1
ion O   0.499700641563385   0.344774002974685   0.346494660644705 1
ion O   0.749664334977036   0.403819488592687   0.096297203911400 1
ion O   0.499680389296694   0.153769945588692   0.154719856930038 1
ion O   0.749700722392596   0.094909128425318   0.404609951127413 1
ion O   0.499667207952001   0.345044373812652   0.846181536961242 1
ion O   0.749756815418864   0.404053405913834   0.596176381783768 1
ion O   0.499743736255798   0.153910948849052   0.654538993872541 1
ion O   0.749756973558376   0.095278678305308   0.904434339232597 1
ion O   0.499736682099073   0.844985819745045   0.346238516546369 1
ion O   0.750026380706792   0.904273526062742   0.096121291594901 1
ion O   0.499759253056912   0.654020831189464   0.154423151166220 1
ion O   0.749635380888025   0.595024640999739   0.404296784931336 1
ion O   0.499862731009933   0.844781568206198   0.846414146973162 1
ion O   0.749700161528388   0.903752006377440   0.596280510612112 1
ion O   0.499774612586800   0.653646832643288   0.654772361027177 1
ion O   0.749774089768486   0.594723174393751   0.904484980087133 1

# Forces in Lattice coordinates:
force Ir   0.001119668619818  -0.000445819959475  -0.003690673736905 1
force Ir  -0.007590781674394  -0.033025224014830   0.023397358365173 0
force Ir   0.000349039927888   0.001169250724361   0.000216196887179 1
force Ir   0.002068761131402  -0.000091163205003   0.001725668916885 1
force Ir  -0.000349823513052   0.000984808918895  -0.003531242853649 1
force Ir   0.000610262337172  -0.000441802138680  -0.003133274423884 1
force Ir  -0.000418023891622   0.001335252474707   0.003035027907613 1
force Ir   0.000654938948424   0.000624244397614   0.001322559453348 1
force Ir   0.000756184315768  -0.000051881875759  -0.002852319939382 1
force Ir   0.000470715877693   0.001814449892221  -0.001640684444878 1
force Ir   0.000332405362837  -0.001346174363626   0.001101695245012 1
force Ir  -0.000174639490956  -0.000031304353900   0.000811252496825 1
force Ir   0.000661093052772  -0.000158515521128  -0.001897894466263 1
force Ir  -0.000072066537998   0.001009949327761  -0.001195859498481 1
force Ir   0.000176652644137   0.001426905634908   0.003221418704237 1
force Ir   0.000502836690812   0.001620308219433  -0.000256815022496 1
force O   0.000254114106096   0.000058454763483   0.001275678953840 1
force O   0.000192597654503  -0.000207872352113  -0.002374043326441 1
force O  -0.000248897852762   0.002637149310756  -0.002349509401212 1
force O  -0.000184036561438   0.003195893149031   0.001250862128162 1
force O  -0.000607554744440   0.000484707286574  -0.001719506422327 1
force O   0.000792495252680   0.001566764563221  -0.002254305147611 1
force O   0.000266944345966  -0.001172534300084  -0.000705866185131 1
force O  -0.000468577021803   0.004341259952847   0.000785066940928 1
force O   0.000161014870240  -0.001747385134890   0.001372108257488 1
force O  -0.000021665102810  -0.001192544923874  -0.002694305405202 1
force O  -0.000301408206613   0.000254811737978   0.000046252308260 1
force O  -0.000550886833454   0.001213227647103  -0.000228834293770 1
force O  -0.000352078793028   0.002095376908629  -0.001334098090514 1
force O  -0.000217795957269   0.001021528498867  -0.003961974344398 1
force O  -0.000005173744507  -0.000265294972874   0.001517680187306 1
force O   0.000362788827215   0.002260341692521  -0.001533666434746 1
force O  -0.000224365132558   0.003114518526596  -0.003973449119532 1
force O  -0.000026688412338  -0.000872710549468   0.000457028184677 1
force O   0.000787237286642   0.001893404692165  -0.001236806496274 1
force O   0.000280156294017   0.000766016687547   0.001260074842072 1
force O   0.000519243971159   0.001599277890777  -0.000055491026486 1
force O  -0.000535802048685  -0.001222950395640  -0.001499139849182 1
force O   0.000024097945352   0.000644572047214  -0.000784039132652 1
force O   0.000144743346531  -0.000142269181281  -0.000237333400784 1
force O  -0.000097290309578   0.002266896128769  -0.001592789727456 1
force O  -0.000104738241441  -0.003246355417617  -0.000113251247400 1
force O  -0.000040818153079   0.000389847734491   0.001871785083729 1
force O   0.000476846650208   0.000324697566104   0.004230428575756 1
force O  -0.000579775996588   0.003368559037209  -0.002030322308211 1
force O  -0.000346325474370   0.001925642295805  -0.001310105065871 1
force O  -0.000452794695344   0.002277776399702  -0.002499115378722 1
force O   0.000029029510647   0.004960440501572   0.001280245522654 1

# Energy components:
   Eewald =    -1409.3429688563605851
       EH =      344.8039279389861917
     Eloc =    -1078.4670775355195929
      Enl =       83.6038672111803720
      Exc =     -515.6075126273049136
 Exc_core =      230.4980035215393741
       KE =      606.9828763767784494
-------------------------------------
     Etot =    -1737.5288839707006900
       TS =        0.1790529322086941
-------------------------------------
        F =    -1737.7079369029092959

IonicMinimize: Iter:  22  F: -1737.707936902909296  |grad|_K:  9.570e-05  alpha:  1.000e+00  linmin: -2.199e-01  t[s]:  35163.11
IonicMinimize: Converged (|grad|_K<1.000000e-04).

#--- Lowdin population analysis ---
# oxidation-state Ir +0.531 +0.531 +0.531 +0.531 +0.531 +0.531 +0.531 +0.531 +0.531 +0.531 +0.531 +0.531 +0.531 +0.531 +0.531 +0.531
# oxidation-state O -0.238 -0.238 -0.238 -0.238 -0.238 -0.238 -0.238 -0.237 -0.238 -0.238 -0.238 -0.238 -0.238 -0.238 -0.238 -0.238 -0.238 -0.238 -0.238 -0.238 -0.238 -0.238 -0.238 -0.238 -0.238 -0.238 -0.238 -0.238 -0.238 -0.238 -0.238 -0.238


Dumping 'IrO2_ion.Ecomponents' ... done
End date and time: Mon Jun 17 05:36:44 2024  (Duration: 0-9:46:17.83)
Done!
