--------------------------------------------------------------------------
Initialization of PSM library failed.

  Error: PSM is in the finalized state
--------------------------------------------------------------------------

*************** JDFTx 1.7.0 (git hash 3664913) ***************

Start date and time: Mon Jun 17 04:22:22 2024
Executable jdftx with command-line: -i IrO2_vac.in
Running on hosts (process indices):  node3205.physics.cornell.edu (0-15)
Divided in process groups (process indices):  0 (0)  1 (1)  2 (2)  3 (3)  4 (4)  5 (5)  6 (6)  7 (7)  8 (8)  9 (9)  10 (10)  11 (11)  12 (12)  13 (13)  14 (14)  15 (15)
Resource initialization completed at t[s]:      0.00
Run totals: 16 processes, 32 threads, 0 GPUs


Input parsed successfully to the following command list (including defaults):

basis kpoint-dependent
coords-type Lattice
core-overlap-check vector
coulomb-interaction Periodic
davidson-band-ratio 1.1
dump End Ecomponents
dump-name $INPUT.$VAR
elec-cutoff 20 100
elec-eigen-algo Davidson
elec-ex-corr gga-PBEsol
elec-smearing Fermi 0.01
electronic-minimize  \
	dirUpdateScheme      FletcherReeves \
	linminMethod         DirUpdateRecommended \
	nIterations          100 \
	history              15 \
	knormThreshold       0 \
	maxThreshold         no \
	energyDiffThreshold  1e-08 \
	nEnergyDiff          2 \
	alphaTstart          1 \
	alphaTmin            1e-10 \
	updateTestStepSize   yes \
	alphaTreduceFactor   0.1 \
	alphaTincreaseFactor 3 \
	nAlphaAdjustMax      3 \
	wolfeEnergy          0.0001 \
	wolfeGradient        0.9 \
	fdTest               no
electronic-scf  \
	nIterations	50 \
	energyDiffThreshold	1e-08 \
	residualThreshold	1e-07 \
	mixFraction	0.5 \
	qMetric	0.8 \
	history	10 \
	nEigSteps	2 \
	eigDiffThreshold	1e-08 \
	mixedVariable	Density \
	qKerker	0.8 \
	qKappa	-1 \
	verbose	no \
	mixFractionMag	1.5
exchange-regularization WignerSeitzTruncated
fluid None
fluid-ex-corr lda-TF lda-PZ
fluid-gummel-loop 10 1.000000e-05
fluid-minimize  \
	dirUpdateScheme      PolakRibiere \
	linminMethod         DirUpdateRecommended \
	nIterations          100 \
	history              15 \
	knormThreshold       0 \
	maxThreshold         no \
	energyDiffThreshold  0 \
	nEnergyDiff          2 \
	alphaTstart          1 \
	alphaTmin            1e-10 \
	updateTestStepSize   yes \
	alphaTreduceFactor   0.1 \
	alphaTincreaseFactor 3 \
	nAlphaAdjustMax      3 \
	wolfeEnergy          0.0001 \
	wolfeGradient        0.9 \
	fdTest               no
fluid-solvent H2O 55.338 ScalarEOS \
	epsBulk 78.4 \
	pMol 0.92466 \
	epsInf 1.77 \
	Pvap 1.06736e-10 \
	sigmaBulk 4.62e-05 \
	Rvdw 2.61727 \
	Res 1.42 \
	tauNuc 343133 \
	poleEl 15 7 1
forces-output-coords Positions
ion Ir   0.233340000000000   0.250190000000000   0.245820000000000 1
ion Ir   0.007450000000000   0.019090000000000   0.000030000000000 1
ion Ir   0.252710000000000   0.255790000000000   0.739040000000000 1
ion Ir  -0.004740000000000   0.001950000000000   0.496560000000000 1
ion Ir   0.255660000000000   0.751820000000000   0.265670000000000 1
ion Ir   0.003490000000000   0.518660000000000  -0.001720000000000 1
ion Ir   0.247300000000000   0.755520000000000   0.752770000000000 1
ion Ir   0.007860000000000   0.504090000000000   0.509310000000000 1
ion Ir   0.746570000000000   0.246550000000000   0.261490000000000 1
ion Ir   0.487550000000000   0.020210000000000  -0.015380000000000 1
ion Ir   0.750480000000000   0.251010000000000   0.743000000000000 1
ion Ir   0.488670000000000  -0.014770000000000   0.496950000000000 1
ion Ir   0.738530000000000   0.760390000000000   0.248340000000000 1
ion Ir   0.494790000000000   0.494760000000000   0.005470000000000 1
ion Ir   0.736290000000000   0.731420000000000   0.753020000000000 1
ion Ir   0.496670000000000   0.493570000000000   0.485370000000000 1
ion O   0.009260000000000   0.349360000000000   0.344110000000000 1
ion O   0.229670000000000   0.414460000000000   0.102640000000000 1
ion O   0.013960000000000   0.161020000000000   0.153970000000000 1
ion O   0.240000000000000   0.085280000000000   0.422870000000000 1
ion O   0.013770000000000   0.340430000000000   0.852200000000000 1
ion O   0.255610000000000   0.393770000000000   0.590430000000000 1
ion O  -0.012860000000000   0.141420000000000   0.650180000000000 1
ion O   0.248670000000000   0.093030000000000   0.880020000000000 1
ion O   0.001240000000000   0.861430000000000   0.355340000000000 1
ion O   0.250400000000000   0.899440000000000   0.122330000000000 1
ion O  -0.004540000000000   0.653870000000000   0.133180000000000 1
ion O   0.233820000000000   0.588100000000000   0.398540000000000 1
ion O   0.007310000000000   0.827510000000000   0.832230000000000 1
ion O   0.257870000000000   0.905150000000000   0.586480000000000 1
ion O   0.005030000000000   0.670880000000000   0.655050000000000 1
ion O   0.254990000000000   0.577290000000000   0.889600000000000 1
ion O   0.506600000000000   0.350810000000000   0.363550000000000 1
ion O   0.747180000000000   0.403570000000000   0.092710000000000 1
ion O   0.485630000000000   0.153260000000000   0.153700000000000 1
ion O   0.764520000000000   0.106300000000000   0.408160000000000 1
ion O   0.496320000000000   0.360900000000000   0.837540000000000 1
ion O   0.741920000000000   0.407770000000000   0.598030000000000 1
ion O   0.487320000000000   0.157800000000000   0.622290000000000 1
ion O   0.745190000000000   0.089480000000000   0.902430000000000 1
ion O   0.498830000000000   0.845900000000000   0.361230000000000 1
ion O   0.754470000000000   0.891060000000000   0.098120000000000 1
ion O   0.491640000000000   0.657020000000000   0.169780000000000 1
ion O   0.493970000000000   0.829800000000000   0.845050000000000 1
ion O   0.767070000000000   0.908070000000000   0.589810000000000 1
ion O   0.484760000000000   0.648760000000000   0.651590000000000 1
ion O   0.757390000000000   0.601360000000000   0.907820000000000 1
ion-species GBRV/$ID_pbesol.uspp
ion-width 0
ionic-minimize  \
	dirUpdateScheme      L-BFGS \
	linminMethod         DirUpdateRecommended \
	nIterations          30 \
	history              15 \
	knormThreshold       0.0001 \
	maxThreshold         no \
	energyDiffThreshold  1e-06 \
	nEnergyDiff          2 \
	alphaTstart          1 \
	alphaTmin            1e-10 \
	updateTestStepSize   yes \
	alphaTreduceFactor   0.1 \
	alphaTincreaseFactor 3 \
	nAlphaAdjustMax      3 \
	wolfeEnergy          0.0001 \
	wolfeGradient        0.9 \
	fdTest               no
kpoint   0.000000000000   0.000000000000   0.000000000000  1.00000000000000
kpoint-folding 4 4 4 
latt-move-scale 1 1 1
latt-scale 1 1 1 
lattice  \
	  11.930774155486494   -0.000000000000000    0.000000000000000  \
	  -0.000000000000000   16.949602172872201    0.000018234516261  \
	   0.000000000000000    0.000018234516261   16.949602172872201 
lattice-minimize  \
	dirUpdateScheme      L-BFGS \
	linminMethod         DirUpdateRecommended \
	nIterations          0 \
	history              15 \
	knormThreshold       0 \
	maxThreshold         no \
	energyDiffThreshold  1e-06 \
	nEnergyDiff          2 \
	alphaTstart          1 \
	alphaTmin            1e-10 \
	updateTestStepSize   yes \
	alphaTreduceFactor   0.1 \
	alphaTincreaseFactor 3 \
	nAlphaAdjustMax      3 \
	wolfeEnergy          0.0001 \
	wolfeGradient        0.9 \
	fdTest               no
lcao-params -1 1e-06 0.01
pcm-variant GLSSA13
perturb-minimize  \
	nIterations            0 \
	algorithm              MINRES \
	residualTol            0.0001 \
	residualDiffThreshold  0.0001 \
	CGBypass               no \
	recomputeResidual      no
spintype no-spin
subspace-rotation-factor 1 yes
symmetries automatic
symmetry-threshold 0.0001



---------- Setting up symmetries ----------

Found 16 point-group symmetries of the bravais lattice
Found 1 space-group symmetries with basis
Applied RMS atom displacement 0 bohrs to make symmetries exact.

---------- Initializing the Grid ----------
R = 
[      11.9308            0            0  ]
[            0      16.9496  1.82345e-05  ]
[            0  1.82345e-05      16.9496  ]
unit cell volume = 3427.58
G =
[   0.526637          0         -0  ]
[          0   0.370698 -3.988e-07  ]
[         -0 -3.988e-07   0.370698  ]
Minimum fftbox size, Smin = [  56  80  80  ]
Chosen fftbox size, S = [  56  80  80  ]

---------- Initializing tighter grid for wavefunction operations ----------
R = 
[      11.9308            0            0  ]
[            0      16.9496  1.82345e-05  ]
[            0  1.82345e-05      16.9496  ]
unit cell volume = 3427.58
G =
[   0.526637          0         -0  ]
[          0   0.370698 -3.988e-07  ]
[         -0 -3.988e-07   0.370698  ]
Minimum fftbox size, Smin = [  52  72  72  ]
Chosen fftbox size, S = [  54  72  72  ]

---------- Exchange Correlation functional ----------
Initalized PBEsol GGA exchange.
Initalized PBEsol GGA correlation.

---------- Setting up pseudopotentials ----------
Width of ionic core gaussian charges (only for fluid interactions / plotting) set to 0

Reading pseudopotential file '/home/rc652/build/pseudopotentials/GBRV/ir_pbesol.uspp':
  Title: Ir.  Created by USPP 7.3.6 on 3-2-2014
  Reference state energy: -90.341717.  15 valence electrons in orbitals:
    |510>  occupation: 6  eigenvalue: -2.020249
    |520>  occupation: 8.5  eigenvalue: -0.307346
    |600>  occupation: 0  eigenvalue: -0.313250
    |610>  occupation: 0  eigenvalue: -0.121182
  lMax: 2  lLocal: 3  QijEcut: 5
  7 projectors sampled on a log grid with 745 points:
    l: 0  eig: -0.313250  rCut: 2.55
    l: 0  eig: 0.250000  rCut: 2.55
    l: 1  eig: -2.020249  rCut: 1.62
    l: 1  eig: -0.121182  rCut: 1.62
    l: 1  eig: 1.000000  rCut: 1.62
    l: 2  eig: -0.500000  rCut: 1.65
    l: 2  eig: -0.307346  rCut: 1.65
  Partial core density with radius 1.15
  Transforming core density to a uniform radial grid of dG=0.02 with 1287 points.
  Transforming local potential to a uniform radial grid of dG=0.02 with 1287 points.
  Transforming nonlocal projectors to a uniform radial grid of dG=0.02 with 432 points.
  Transforming density augmentations to a uniform radial grid of dG=0.02 with 1287 points.
  Transforming atomic orbitals to a uniform radial grid of dG=0.02 with 432 points.
  Core radius for overlap checks: 2.55 bohrs.

Reading pseudopotential file '/home/rc652/build/pseudopotentials/GBRV/o_pbesol.uspp':
  Title: O.  Created by USPP 7.3.6 on 3-2-2014
  Reference state energy: -15.849885.  6 valence electrons in orbitals:
    |200>  occupation: 2  eigenvalue: -0.873214
    |210>  occupation: 4  eigenvalue: -0.330058
  lMax: 2  lLocal: 2  QijEcut: 6
  5 projectors sampled on a log grid with 511 points:
    l: 0  eig: -0.873214  rCut: 1.25
    l: 0  eig: 0.000000  rCut: 1.25
    l: 1  eig: -0.330058  rCut: 1.25
    l: 1  eig: 0.000000  rCut: 1.25
    l: 2  eig: 1.000000  rCut: 1.25
  Partial core density with radius 0.7
  Transforming core density to a uniform radial grid of dG=0.02 with 1287 points.
  Transforming local potential to a uniform radial grid of dG=0.02 with 1287 points.
  Transforming nonlocal projectors to a uniform radial grid of dG=0.02 with 432 points.
  Transforming density augmentations to a uniform radial grid of dG=0.02 with 1287 points.
  Transforming atomic orbitals to a uniform radial grid of dG=0.02 with 432 points.
  Core radius for overlap checks: 1.25 bohrs.

Initialized 2 species with 47 total atoms.

Folded 1 k-points by 4x4x4 to 64 k-points.

---------- Setting up k-points, bands, fillings ----------
Adding inversion symmetry to k-mesh for non-inversion-symmetric unit cell.
Reduced to 36 k-points under symmetry. 
Computing the number of bands and number of electrons
Calculating initial fillings.
nElectrons: 426.000000   nBands: 316   nStates: 36

----- Setting up reduced wavefunction bases (one per k-point) -----
average nbasis = 14641.141 , ideal nbasis = 14642.884

---------- Setting up ewald sum ----------
Optimum gaussian width for ewald sums = 3.166331 bohr.
Real space sum over 441 unit cells with max indices [  4  3  3  ]
Reciprocal space sum over 6615 terms with max indices [  7  10  10  ]

---------- Allocating electronic variables ----------
Initializing wave functions:  linear combination of atomic orbitals
Ir pseudo-atom occupations:   s ( 2 )  p ( 6 0 )  d ( 7 )
O pseudo-atom occupations:   s ( 2 )  p ( 4 )
	FillingsUpdate:  mu: +0.556194735  nElectrons: 426.000000
LCAOMinimize: Iter:   0  F: -1718.7670942371357796  |grad|_K:  1.409e-03  alpha:  1.000e+00
	FillingsUpdate:  mu: +0.539805053  nElectrons: 426.000000
LCAOMinimize: Iter:   1  F: -1719.3782974983348595  |grad|_K:  1.041e-03  alpha:  1.502e-01  linmin: -5.274e-02  cgtest:  1.425e-01  t[s]:    111.49
	FillingsUpdate:  mu: +0.526877627  nElectrons: 426.000000
LCAOMinimize: Iter:   2  F: -1719.5895767010442796  |grad|_K:  4.025e-04  alpha:  9.715e-02  linmin: -1.514e-04  cgtest: -2.355e-01  t[s]:    148.93
	FillingsUpdate:  mu: +0.523011855  nElectrons: 426.000000
LCAOMinimize: Iter:   3  F: -1719.6233152197869458  |grad|_K:  1.624e-04  alpha:  1.150e-01  linmin: -2.290e-03  cgtest:  1.169e-01  t[s]:    186.75
	FillingsUpdate:  mu: +0.521912744  nElectrons: 426.000000
LCAOMinimize: Iter:   4  F: -1719.6298599416886645  |grad|_K:  1.462e-04  alpha:  1.370e-01  linmin:  9.953e-04  cgtest: -7.318e-04  t[s]:    224.15
	FillingsUpdate:  mu: +0.520219183  nElectrons: 426.000000
LCAOMinimize: Iter:   5  F: -1719.6357640362036818  |grad|_K:  1.079e-04  alpha:  1.530e-01  linmin: -1.350e-03  cgtest: -8.479e-03  t[s]:    261.20
	FillingsUpdate:  mu: +0.518822565  nElectrons: 426.000000
LCAOMinimize: Iter:   6  F: -1719.6396805426709307  |grad|_K:  6.816e-05  alpha:  1.843e-01  linmin: -1.455e-03  cgtest: -1.081e-02  t[s]:    298.54
	FillingsUpdate:  mu: +0.518233017  nElectrons: 426.000000
LCAOMinimize: Iter:   7  F: -1719.6405913743690235  |grad|_K:  3.307e-05  alpha:  1.078e-01  linmin:  2.118e-04  cgtest: -1.897e-02  t[s]:    335.25
	FillingsUpdate:  mu: +0.518057558  nElectrons: 426.000000
LCAOMinimize: Iter:   8  F: -1719.6407440591460727  |grad|_K:  1.165e-05  alpha:  7.729e-02  linmin: -3.540e-05  cgtest:  5.092e-03  t[s]:    372.58
	FillingsUpdate:  mu: +0.518084923  nElectrons: 426.000000
LCAOMinimize: Iter:   9  F: -1719.6407867703323973  |grad|_K:  6.625e-06  alpha:  1.741e-01  linmin:  1.890e-04  cgtest: -2.060e-03  t[s]:    409.71
	FillingsUpdate:  mu: +0.518077472  nElectrons: 426.000000
LCAOMinimize: Iter:  10  F: -1719.6408006210635904  |grad|_K:  4.889e-06  alpha:  1.745e-01  linmin:  1.675e-05  cgtest:  9.128e-04  t[s]:    446.99
	FillingsUpdate:  mu: +0.518073012  nElectrons: 426.000000
LCAOMinimize: Iter:  11  F: -1719.6408065671644181  |grad|_K:  3.893e-06  alpha:  1.375e-01  linmin:  5.404e-06  cgtest:  2.370e-04  t[s]:    482.61
	FillingsUpdate:  mu: +0.518091812  nElectrons: 426.000000
LCAOMinimize: Iter:  12  F: -1719.6408104331374034  |grad|_K:  2.255e-06  alpha:  1.410e-01  linmin:  3.252e-05  cgtest: -1.389e-04  t[s]:    519.12
	FillingsUpdate:  mu: +0.518097705  nElectrons: 426.000000
LCAOMinimize: Iter:  13  F: -1719.6408116998431979  |grad|_K:  1.364e-06  alpha:  1.377e-01  linmin:  6.031e-06  cgtest:  3.946e-04  t[s]:    556.04
	FillingsUpdate:  mu: +0.518099727  nElectrons: 426.000000
LCAOMinimize: Iter:  14  F: -1719.6408120508992852  |grad|_K:  8.730e-07  alpha:  1.043e-01  linmin: -2.959e-05  cgtest:  2.336e-04  t[s]:    593.65
	FillingsUpdate:  mu: +0.518100919  nElectrons: 426.000000
LCAOMinimize: Iter:  15  F: -1719.6408122749023732  |grad|_K:  5.719e-07  alpha:  1.623e-01  linmin: -1.659e-04  cgtest:  7.289e-04  t[s]:    629.87
LCAOMinimize: Converged (|Delta F|<1.000000e-06 for 2 iters).


---- Citations for features of the code used in this run ----

   Software package:
      R. Sundararaman, K. Letchworth-Weaver, K.A. Schwarz, D. Gunceler, Y. Ozhabes and T.A. Arias, 'JDFTx: software for joint density-functional theory', SoftwareX 6, 278 (2017)

   gga-PBEsol exchange-correlation functional:
      J.P. Perdew et al., Phys. Rev. Lett. 100, 136406 (2008)

   Pseudopotentials:
      KF Garrity, JW Bennett, KM Rabe and D Vanderbilt, Comput. Mater. Sci. 81, 446 (2014)

This list may not be complete. Please suggest additional citations or
report any other bugs at https://github.com/shankar1729/jdftx/issues

Initialization completed successfully at t[s]:    647.71


-------- Electronic minimization -----------
Will mix electronic density at each iteration.
	FillingsUpdate:  mu: +0.518100919  nElectrons: 426.000000
	FillingsUpdate:  mu: +0.508938031  nElectrons: 426.000000
SCF: Cycle:  0   F: -1720.889258542192920   dF: -1.248e+00   |Residual|: 4.902e-01   |deigs|: 3.894e-02  t[s]:    819.53
	FillingsUpdate:  mu: +0.515418836  nElectrons: 426.000000
SCF: Cycle:  1   F: -1721.038325279717810   dF: -1.491e-01   |Residual|: 2.477e-01   |deigs|: 1.439e-02  t[s]:    955.04
	FillingsUpdate:  mu: +0.515630674  nElectrons: 426.000000
SCF: Cycle:  2   F: -1721.080981514333871   dF: -4.266e-02   |Residual|: 1.368e-01   |deigs|: 5.192e-03  t[s]:   1096.80
	FillingsUpdate:  mu: +0.516782149  nElectrons: 426.000000
SCF: Cycle:  3   F: -1721.060363556357061   dF: +2.062e-02   |Residual|: 1.243e-01   |deigs|: 3.150e-03  t[s]:   1242.74
	FillingsUpdate:  mu: +0.517325269  nElectrons: 426.000000
SCF: Cycle:  4   F: -1721.110792860041329   dF: -5.043e-02   |Residual|: 2.322e-02   |deigs|: 1.772e-03  t[s]:   1382.39
	FillingsUpdate:  mu: +0.517387741  nElectrons: 426.000000
SCF: Cycle:  5   F: -1721.110527824967676   dF: +2.650e-04   |Residual|: 1.902e-02   |deigs|: 3.843e-04  t[s]:   1465.67
	FillingsUpdate:  mu: +0.517417545  nElectrons: 426.000000
SCF: Cycle:  6   F: -1721.111435634467853   dF: -9.078e-04   |Residual|: 9.326e-03   |deigs|: 2.646e-04  t[s]:   1552.66
	FillingsUpdate:  mu: +0.517466593  nElectrons: 426.000000
SCF: Cycle:  7   F: -1721.111784698563497   dF: -3.491e-04   |Residual|: 2.880e-03   |deigs|: 1.518e-04  t[s]:   1640.05
	FillingsUpdate:  mu: +0.517543219  nElectrons: 426.000000
SCF: Cycle:  8   F: -1721.111780378026424   dF: +4.321e-06   |Residual|: 2.415e-03   |deigs|: 1.101e-04  t[s]:   1725.87
	FillingsUpdate:  mu: +0.517584720  nElectrons: 426.000000
SCF: Cycle:  9   F: -1721.111799247963063   dF: -1.887e-05   |Residual|: 8.807e-04   |deigs|: 9.679e-05  t[s]:   1813.43
	FillingsUpdate:  mu: +0.517595685  nElectrons: 426.000000
SCF: Cycle: 10   F: -1721.111800184529102   dF: -9.366e-07   |Residual|: 5.103e-04   |deigs|: 1.106e-04  t[s]:   1898.47
	FillingsUpdate:  mu: +0.517597667  nElectrons: 426.000000
SCF: Cycle: 11   F: -1721.111801004995414   dF: -8.205e-07   |Residual|: 2.910e-04   |deigs|: 1.564e-04  t[s]:   1983.03
	FillingsUpdate:  mu: +0.517599019  nElectrons: 426.000000
SCF: Cycle: 12   F: -1721.111801319955475   dF: -3.150e-07   |Residual|: 1.414e-04   |deigs|: 2.162e-04  t[s]:   2069.51
	FillingsUpdate:  mu: +0.517598777  nElectrons: 426.000000
SCF: Cycle: 13   F: -1721.111801410699854   dF: -9.074e-08   |Residual|: 8.472e-05   |deigs|: 9.197e-04  t[s]:   2188.26
	FillingsUpdate:  mu: +0.517599040  nElectrons: 426.000000
SCF: Cycle: 14   F: -1721.111801448591905   dF: -3.789e-08   |Residual|: 5.107e-05   |deigs|: 1.721e-03  t[s]:   2306.11
	FillingsUpdate:  mu: +0.517599498  nElectrons: 426.000000
SCF: Cycle: 15   F: -1721.111801460925335   dF: -1.233e-08   |Residual|: 2.745e-05   |deigs|: 2.074e-03  t[s]:   2425.17
	FillingsUpdate:  mu: +0.517599677  nElectrons: 426.000000
SCF: Cycle: 16   F: -1721.111801464360497   dF: -3.435e-09   |Residual|: 1.655e-05   |deigs|: 2.100e-03  t[s]:   2541.91
	FillingsUpdate:  mu: +0.517599706  nElectrons: 426.000000
SCF: Cycle: 17   F: -1721.111801465867529   dF: -1.507e-09   |Residual|: 1.029e-05   |deigs|: 1.897e-03  t[s]:   2658.66
SCF: Converged (|Delta E|<1.000000e-08 for 2 iters).

Setting wave functions to eigenvectors of Hamiltonian

# Ionic positions in lattice coordinates:
ion Ir   0.233340000000000   0.250190000000000   0.245820000000000 1
ion Ir   0.007450000000000   0.019090000000000   0.000030000000000 1
ion Ir   0.252710000000000   0.255790000000000   0.739040000000000 1
ion Ir  -0.004740000000000   0.001950000000000   0.496560000000000 1
ion Ir   0.255660000000000   0.751820000000000   0.265670000000000 1
ion Ir   0.003490000000000   0.518660000000000  -0.001720000000000 1
ion Ir   0.247300000000000   0.755520000000000   0.752770000000000 1
ion Ir   0.007860000000000   0.504090000000000   0.509310000000000 1
ion Ir   0.746570000000000   0.246550000000000   0.261490000000000 1
ion Ir   0.487550000000000   0.020210000000000  -0.015380000000000 1
ion Ir   0.750480000000000   0.251010000000000   0.743000000000000 1
ion Ir   0.488670000000000  -0.014770000000000   0.496950000000000 1
ion Ir   0.738530000000000   0.760390000000000   0.248340000000000 1
ion Ir   0.494790000000000   0.494760000000000   0.005470000000000 1
ion Ir   0.736290000000000   0.731420000000000   0.753020000000000 1
ion Ir   0.496670000000000   0.493570000000000   0.485370000000000 1
ion O   0.009260000000000   0.349360000000000   0.344110000000000 1
ion O   0.229670000000000   0.414460000000000   0.102640000000000 1
ion O   0.013960000000000   0.161020000000000   0.153970000000000 1
ion O   0.240000000000000   0.085280000000000   0.422870000000000 1
ion O   0.013770000000000   0.340430000000000   0.852200000000000 1
ion O   0.255610000000000   0.393770000000000   0.590430000000000 1
ion O  -0.012860000000000   0.141420000000000   0.650180000000000 1
ion O   0.248670000000000   0.093030000000000   0.880020000000000 1
ion O   0.001240000000000   0.861430000000000   0.355340000000000 1
ion O   0.250400000000000   0.899440000000000   0.122330000000000 1
ion O  -0.004540000000000   0.653870000000000   0.133180000000000 1
ion O   0.233820000000000   0.588100000000000   0.398540000000000 1
ion O   0.007310000000000   0.827510000000000   0.832230000000000 1
ion O   0.257870000000000   0.905150000000000   0.586480000000000 1
ion O   0.005030000000000   0.670880000000000   0.655050000000000 1
ion O   0.254990000000000   0.577290000000000   0.889600000000000 1
ion O   0.506600000000000   0.350810000000000   0.363550000000000 1
ion O   0.747180000000000   0.403570000000000   0.092710000000000 1
ion O   0.485630000000000   0.153260000000000   0.153700000000000 1
ion O   0.764520000000000   0.106300000000000   0.408160000000000 1
ion O   0.496320000000000   0.360900000000000   0.837540000000000 1
ion O   0.741920000000000   0.407770000000000   0.598030000000000 1
ion O   0.487320000000000   0.157800000000000   0.622290000000000 1
ion O   0.745190000000000   0.089480000000000   0.902430000000000 1
ion O   0.498830000000000   0.845900000000000   0.361230000000000 1
ion O   0.754470000000000   0.891060000000000   0.098120000000000 1
ion O   0.491640000000000   0.657020000000000   0.169780000000000 1
ion O   0.493970000000000   0.829800000000000   0.845050000000000 1
ion O   0.767070000000000   0.908070000000000   0.589810000000000 1
ion O   0.484760000000000   0.648760000000000   0.651590000000000 1
ion O   0.757390000000000   0.601360000000000   0.907820000000000 1

# Forces in Lattice coordinates:
force Ir   1.471281438546494   0.341367535179776   1.004365515354262 1
force Ir  -0.187135172235445  -1.806524680407500   0.084845711508223 1
force Ir  -0.203748009600641  -0.653330032097925   0.338750133681227 1
force Ir   0.165514458566041   0.024669780805451   0.984035651356714 1
force Ir  -0.800465300118695  -0.100626461946192  -0.424176309514471 1
force Ir  -0.252837457467619  -2.765795235617560  -1.050077349209241 1
force Ir   0.544567010439284  -1.165570472066340  -1.115304968947939 1
force Ir  -0.951732497035265  -0.093670610492877  -0.181201832736355 1
force Ir   0.221146476219823   1.098740199662336  -1.211002589307818 1
force Ir   0.363996800656381  -1.877484827993620   1.231590299979340 1
force Ir  -0.230842725851036  -0.279410400780173   0.300531649895423 1
force Ir   1.254583465021467   2.232382160123110   0.827519930070479 1
force Ir   0.480026294631242  -1.018374331888662   1.059647231956121 1
force Ir   0.185260204507526   0.577210340615031  -0.044429843466364 1
force Ir   0.674440823308566   1.466548216418122  -0.940871402847929 1
force Ir   0.536483536329790   2.245959370046803   2.302616196038919 1
force O  -0.636464330107331   0.184613266159613   0.430513732956988 1
force O   0.392029219578095  -0.094057920312024  -0.024067626298439 1
force O  -1.016444620127067  -0.299939241990310  -0.212095690103071 1
force O   0.289344996174094   1.205227173943642  -1.445261704553333 1
force O  -0.302600684744136   0.158029097557932  -0.115139147601199 1
force O  -0.185207194956393   0.538066358320780  -0.436677534887945 1
force O   0.276700377745443   0.843994336218651   0.652346237406087 1
force O  -0.162801222016513   0.246022116678386  -0.033371251229267 1
force O  -0.105618531561196  -1.375631592621510  -1.269196142857779 1
force O   0.022948284660607   1.129488581988602  -1.235871840743841 1
force O  -0.011551376643544   1.996725393372841   2.179326829862253 1
force O   0.515129082078620  -0.041214572338516   0.149340596625082 1
force O  -0.882552164589423   1.461614374049207   1.506889565379816 1
force O  -0.786727308672688  -0.848429166183619   0.995549876491747 1
force O  -0.290638528225211  -1.028374273163220  -0.747545955965859 1
force O  -0.136475469684952   0.654069754742514  -0.064776624611794 1
force O  -0.174753723771263  -2.265914443218017  -2.322641983684030 1
force O   0.057821509270338  -0.072904587441663   0.352395135299004 1
force O   0.112981487098693   0.226589308242482   0.124476518290131 1
force O  -0.569796182807965  -0.845244923949200   0.498347254650307 1
force O   0.174492698241163  -0.522719154176716  -0.219100557116252 1
force O   0.331515187471286   0.343199071384663  -0.321851386107486 1
force O   0.319836521575110   0.448101730395526   0.858469185890661 1
force O   0.272797350611427   0.727833350525013  -0.728932798276758 1
force O   0.138596448070780  -1.375764415992758  -1.203270143016631 1
force O  -0.019605342841737   1.444627815470412  -1.280558232395749 1
force O   0.192235055824174  -0.527839984299670  -0.422590370060595 1
force O   0.160543763800687   0.798160844968158   0.549480275091598 1
force O  -0.943107866748746  -0.714149036935516   0.455399992820108 1
force O   0.159717239843550  -0.015292136897162  -0.203676343630258 1
force O  -0.462979295386792  -0.601130991693483   0.368995777938209 1

# Energy components:
   Eewald =    -1376.2269677362935454
       EH =      356.8425878724343647
     Eloc =    -1102.3803086411212462
      Enl =       81.7003667960046442
      Exc =     -512.2926059857009022
 Exc_core =      230.4352109025869595
       KE =      601.0117552289632386
-------------------------------------
     Etot =    -1720.9099615631264442
       TS =        0.2018399027410329
-------------------------------------
        F =    -1721.1118014658675293

IonicMinimize: Iter:   0  F: -1721.111801465867529  |grad|_K:  5.557e-02  t[s]:   2679.10

#--- Lowdin population analysis ---
# oxidation-state Ir +0.511 +0.448 +0.539 +0.654 +0.527 +0.612 +0.583 +0.377 +0.482 +0.491 +0.470 +0.586 +0.406 +0.486 +0.535 +0.418
# oxidation-state O -0.239 -0.235 -0.162 -0.255 -0.283 -0.172 -0.247 -0.193 -0.244 -0.278 -0.202 -0.223 -0.245 -0.231 -0.238 -0.244 -0.163 -0.283 -0.245 -0.234 -0.232 -0.227 -0.279 -0.205 -0.152 -0.228 -0.227 -0.244 -0.295 -0.278 -0.195


-------- Electronic minimization -----------
Will mix electronic density at each iteration.
	FillingsUpdate:  mu: +0.517599706  nElectrons: 426.000000
	FillingsUpdate:  mu: +0.519855357  nElectrons: 426.000000
SCF: Cycle:  0   F: -1716.376144129617842   dF: +2.747e+00   |Residual|: 1.189e+00   |deigs|: 9.041e-03  t[s]:   2873.86
	FillingsUpdate:  mu: +0.521633893  nElectrons: 426.000000
SCF: Cycle:  1   F: -1717.445897164829148   dF: -1.070e+00   |Residual|: 1.133e+00   |deigs|: 1.632e-02  t[s]:   3013.19
	FillingsUpdate:  mu: +0.515572109  nElectrons: 426.000000
SCF: Cycle:  2   F: -1720.676084849086010   dF: -3.230e+00   |Residual|: 3.859e-01   |deigs|: 1.927e-02  t[s]:   3155.07
	FillingsUpdate:  mu: +0.515571480  nElectrons: 426.000000
SCF: Cycle:  3   F: -1720.996689472195385   dF: -3.206e-01   |Residual|: 3.083e-01   |deigs|: 4.039e-03  t[s]:   3301.49
	FillingsUpdate:  mu: +0.514993596  nElectrons: 426.000000
SCF: Cycle:  4   F: -1721.261253128011504   dF: -2.646e-01   |Residual|: 9.931e-02   |deigs|: 3.955e-03  t[s]:   3438.44
	FillingsUpdate:  mu: +0.514986884  nElectrons: 426.000000
SCF: Cycle:  5   F: -1721.291363803835111   dF: -3.011e-02   |Residual|: 4.515e-02   |deigs|: 1.874e-03  t[s]:   3577.23
	FillingsUpdate:  mu: +0.515024016  nElectrons: 426.000000
SCF: Cycle:  6   F: -1721.293215685409905   dF: -1.852e-03   |Residual|: 2.992e-02   |deigs|: 1.262e-03  t[s]:   3684.15
	FillingsUpdate:  mu: +0.515004580  nElectrons: 426.000000
SCF: Cycle:  7   F: -1721.295464181877605   dF: -2.248e-03   |Residual|: 1.155e-02   |deigs|: 7.885e-04  t[s]:   3766.91
	FillingsUpdate:  mu: +0.515000083  nElectrons: 426.000000
SCF: Cycle:  8   F: -1721.295803826274323   dF: -3.396e-04   |Residual|: 5.708e-03   |deigs|: 5.251e-04  t[s]:   3853.91
	FillingsUpdate:  mu: +0.515001144  nElectrons: 426.000000
SCF: Cycle:  9   F: -1721.295855463036105   dF: -5.164e-05   |Residual|: 3.304e-03   |deigs|: 4.813e-04  t[s]:   3938.31
	FillingsUpdate:  mu: +0.515002335  nElectrons: 426.000000
SCF: Cycle: 10   F: -1721.295877750725140   dF: -2.229e-05   |Residual|: 2.088e-03   |deigs|: 4.894e-04  t[s]:   4027.19
	FillingsUpdate:  mu: +0.515005973  nElectrons: 426.000000
SCF: Cycle: 11   F: -1721.295889432085914   dF: -1.168e-05   |Residual|: 9.449e-04   |deigs|: 4.653e-04  t[s]:   4111.77
	FillingsUpdate:  mu: +0.515004437  nElectrons: 426.000000
SCF: Cycle: 12   F: -1721.295889671304394   dF: -2.392e-07   |Residual|: 8.423e-04   |deigs|: 4.201e-04  t[s]:   4196.41
	FillingsUpdate:  mu: +0.515004641  nElectrons: 426.000000
SCF: Cycle: 13   F: -1721.295892107690634   dF: -2.436e-06   |Residual|: 2.729e-04   |deigs|: 3.861e-04  t[s]:   4278.25
	FillingsUpdate:  mu: +0.515004839  nElectrons: 426.000000
SCF: Cycle: 14   F: -1721.295892170125626   dF: -6.243e-08   |Residual|: 1.979e-04   |deigs|: 3.921e-04  t[s]:   4364.88
	FillingsUpdate:  mu: +0.515004529  nElectrons: 426.000000
SCF: Cycle: 15   F: -1721.295892279064446   dF: -1.089e-07   |Residual|: 8.546e-05   |deigs|: 4.133e-04  t[s]:   4449.29
	FillingsUpdate:  mu: +0.515004506  nElectrons: 426.000000
SCF: Cycle: 16   F: -1721.295892294867826   dF: -1.580e-08   |Residual|: 3.704e-05   |deigs|: 3.872e-04  t[s]:   4536.54
	FillingsUpdate:  mu: +0.515004512  nElectrons: 426.000000
SCF: Cycle: 17   F: -1721.295892296206148   dF: -1.338e-09   |Residual|: 2.034e-05   |deigs|: 3.487e-04  t[s]:   4618.69
	FillingsUpdate:  mu: +0.515004539  nElectrons: 426.000000
SCF: Cycle: 18   F: -1721.295892295835756   dF: +3.704e-10   |Residual|: 2.144e-05   |deigs|: 4.020e-04  t[s]:   4709.31
	FillingsUpdate:  mu: +0.515004537  nElectrons: 426.000000
SCF: Cycle: 19   F: -1721.295892297816181   dF: -1.980e-09   |Residual|: 6.556e-06   |deigs|: 5.807e-04  t[s]:   4802.45
	FillingsUpdate:  mu: +0.515004541  nElectrons: 426.000000
SCF: Cycle: 20   F: -1721.295892297888031   dF: -7.185e-11   |Residual|: 4.279e-06   |deigs|: 3.388e-04  t[s]:   4872.29
SCF: Converged (|Delta E|<1.000000e-08 for 2 iters).

Setting wave functions to eigenvectors of Hamiltonian

# Ionic positions in lattice coordinates:
ion Ir   0.238639976181961   0.250799131592430   0.247612549790397 1
ion Ir   0.006775893864047   0.015865522039927   0.000181375522735 1
ion Ir   0.251976049758948   0.254623772433222   0.739644546215242 1
ion Ir  -0.004143763141259   0.001993881400523   0.498316265744217 1
ion Ir   0.252776506519390   0.751640254862617   0.264912853420667 1
ion Ir   0.002579215783341   0.513723395722228  -0.003594260563878 1
ion Ir   0.249261690589115   0.753439518149561   0.750779313363143 1
ion Ir   0.004431599600040   0.503922668911506   0.508986520468318 1
ion Ir   0.747366639007884   0.248510918245459   0.259328501101750 1
ion Ir   0.488861225989090   0.016858866145784  -0.013181885068541 1
ion Ir   0.749648446982777   0.250511153922718   0.743536331449771 1
ion Ir   0.493189369232207  -0.010785736353112   0.498426903994681 1
ion Ir   0.740259196807644   0.758572229241276   0.250231223236996 1
ion Ir   0.495457366580257   0.495790073904619   0.005390632044312 1
ion Ir   0.738719532531832   0.734037390384481   0.751340636755188 1
ion Ir   0.498602571645521   0.497578490934435   0.489479693569456 1
ion O   0.006967284065090   0.349689354758711   0.344878325021503 1
ion O   0.231082206633592   0.414291977027577   0.102596977629306 1
ion O   0.010298488361402   0.160484515489328   0.153591381111907 1
ion O   0.241042309227006   0.087430979826372   0.420290389019115 1
ion O   0.012679954665102   0.340711908748602   0.851994429875552 1
ion O   0.254942838979585   0.394730210227968   0.589650538460428 1
ion O  -0.011863240239202   0.142926234142695   0.651344254829523 1
ion O   0.248083551585746   0.093468960630660   0.879960370975052 1
ion O   0.000859539693751   0.858974596268041   0.353074645257917 1
ion O   0.250482673467537   0.901455798841918   0.120124113706227 1
ion O  -0.004581604000037   0.657433652217670   0.137069644505528 1
ion O   0.235675646904945   0.588026292523651   0.398806480867653 1
ion O   0.004130806583451   0.830118574936115   0.834919463294136 1
ion O   0.255035994622227   0.903635551975413   0.588256819981310 1
ion O   0.003983045711874   0.669044388029849   0.653715698549479 1
ion O   0.254498384337955   0.578457254635242   0.889484316292611 1
ion O   0.505970495318145   0.346765600661017   0.359404431536956 1
ion O   0.747388296615036   0.403439730592597   0.093338897934910 1
ion O   0.486036998344178   0.153664275849862   0.153922101794858 1
ion O   0.762467441452178   0.104791237201962   0.409049399984733 1
ion O   0.496948578999154   0.359966892218400   0.837148879501237 1
ion O   0.743114218097512   0.408382405658213   0.597455483862472 1
ion O   0.488472148263567   0.158599634080268   0.623822149871896 1
ion O   0.746172699961086   0.090778912342322   0.901128913046145 1
ion O   0.499329270626319   0.843444358948310   0.359082311672837 1
ion O   0.754399383352151   0.893638267595466   0.095834355078736 1
ion O   0.492332491953249   0.656077753210987   0.169025685686668 1
ion O   0.494548331020417   0.831224429747684   0.846030657199215 1
ion O   0.763672667940141   0.906795220666438   0.590622746107501 1
ion O   0.485335353649035   0.648732560906578   0.651226407084188 1
ion O   0.755722225875012   0.600286938502412   0.908478529215946 1

# Forces in Lattice coordinates:
force Ir   0.865796302852063   0.181883459226277   0.777881556358221 1
force Ir  -0.224670604484644  -1.626528588852289   0.019150321833554 1
force Ir  -0.160947239760163  -0.417545505216995   0.186315530685224 1
force Ir   0.212260332281142  -0.173573421908029   0.611099981268058 1
force Ir  -0.623326585351732  -0.132496991199360  -0.579816018854118 1
force Ir  -0.237999141796592  -1.677239124948476  -0.201985043902228 1
force Ir   0.131913986761113  -0.790030573273779  -0.680765513495751 1
force Ir  -0.780343765935575  -0.086963227723022  -0.323038891270273 1
force Ir   0.214065916747453   0.653569036098531  -0.930474319494592 1
force Ir   0.347211856748941  -1.666031517231204   1.045561201707828 1
force Ir  -0.200720540571772  -0.153050454804914   0.243990738936596 1
force Ir   0.768522288522578   1.272725433719346   0.322647663783159 1
force Ir   0.438886181241292  -0.745845114728781   0.592109083095877 1
force Ir   0.126547182806278   0.505847091330808  -0.081392942136264 1
force Ir   0.549782597522606   1.219437264465267  -0.578107786369209 1
force Ir   0.449759966997760   0.938954639414640   1.104887148819576 1
force O  -0.461630033290887   0.113409121417344   0.331841543046764 1
force O   0.404142557308059  -0.127371087213085  -0.028423319223466 1
force O  -0.648305024778636  -0.078785083249234  -0.031298533431811 1
force O   0.257964644697994   0.948528849414183  -1.182559520625485 1
force O  -0.290299465303469   0.097878049530601  -0.139001725751649 1
force O  -0.165761195625037   0.430749190237284  -0.323555837329867 1
force O   0.255472391625328   0.725311676364090   0.542684993024587 1
force O  -0.080298104303099   0.074743214352800   0.204381334378460 1
force O  -0.131716964570939  -0.981520482114731  -0.846087449372637 1
force O   0.025447843734297   1.008176995373078  -1.119323802880906 1
force O   0.020613702661617   1.097171368155250   1.324259917091708 1
force O   0.405195801956355  -0.006788370865384   0.206896474488405 1
force O  -0.491304140998124   1.116787341328878   1.117109506503358 1
force O  -0.442380151952064  -0.509746342055900   0.629657421838260 1
force O  -0.219267279604617  -0.856084816952264  -0.577457643947471 1
force O  -0.102504295866926   0.559632052166874   0.004482541991308 1
force O  -0.189983959933710  -0.991257430997442  -1.207599059519612 1
force O   0.049069992544250  -0.044889225613119   0.292588321494171 1
force O   0.170740107273539   0.191711024783090   0.074267314295080 1
force O  -0.511026033545275  -0.568329330740097   0.250599945381433 1
force O   0.141033801469267  -0.472144737103820  -0.163509640002035 1
force O   0.282199033086960   0.254474050162921  -0.216136817575169 1
force O   0.301071468424036   0.499755245888212   0.897610740838227 1
force O   0.175923944037600   0.592631226758081  -0.561293779389977 1
force O   0.083221713538673  -0.752666157918135  -0.596429527975271 1
force O  -0.065537183602549   1.099790520056284  -0.868108673556432 1
force O   0.144424474475119  -0.430055608044889  -0.355297228379627 1
force O   0.133595265302726   0.652465499431996   0.413389396606772 1
force O  -0.754937052959416  -0.593591160072273   0.400931662305920 1
force O   0.233452432680297   0.052130121639271  -0.137228300319313 1
force O  -0.403832902440092  -0.405703861341549   0.134332413626777 1

# Energy components:
   Eewald =    -1380.1619925858840361
       EH =      353.2710273534075895
     Eloc =    -1094.3893443493368522
      Enl =       81.5025309390316295
      Exc =     -512.0812122456686666
 Exc_core =      230.4351596179623130
       KE =      600.3239519430180735
-------------------------------------
     Etot =    -1721.0998793274702621
       TS =        0.1960129704178403
-------------------------------------
        F =    -1721.2958922978880310

IonicMinimize: Iter:   1  F: -1721.295892297888031  |grad|_K:  3.793e-02  alpha:  5.128e-01  linmin: -9.693e-01  t[s]:   4892.21

#--- Lowdin population analysis ---
# oxidation-state Ir +0.513 +0.467 +0.542 +0.634 +0.541 +0.586 +0.573 +0.386 +0.499 +0.492 +0.477 +0.566 +0.408 +0.495 +0.529 +0.398
# oxidation-state O -0.237 -0.231 -0.182 -0.254 -0.270 -0.178 -0.241 -0.199 -0.241 -0.272 -0.231 -0.224 -0.253 -0.238 -0.231 -0.244 -0.198 -0.268 -0.238 -0.236 -0.236 -0.220 -0.260 -0.207 -0.172 -0.231 -0.227 -0.243 -0.280 -0.254 -0.201


-------- Electronic minimization -----------
Will mix electronic density at each iteration.
	FillingsUpdate:  mu: +0.515004541  nElectrons: 426.000000
	FillingsUpdate:  mu: +0.519035670  nElectrons: 426.000000
SCF: Cycle:  0   F: -1714.681321023039573   dF: +4.751e+00   |Residual|: 1.250e+00   |deigs|: 8.004e-03  t[s]:   5091.17
	FillingsUpdate:  mu: +0.523784830  nElectrons: 426.000000
SCF: Cycle:  1   F: -1714.445056110699625   dF: +2.363e-01   |Residual|: 1.418e+00   |deigs|: 2.028e-02  t[s]:   5241.99
	FillingsUpdate:  mu: +0.514215101  nElectrons: 426.000000
SCF: Cycle:  2   F: -1720.754098675067780   dF: -6.309e+00   |Residual|: 4.125e-01   |deigs|: 2.595e-02  t[s]:   5388.78
	FillingsUpdate:  mu: +0.514168111  nElectrons: 426.000000
SCF: Cycle:  3   F: -1720.792280247042982   dF: -3.818e-02   |Residual|: 3.849e-01   |deigs|: 4.241e-03  t[s]:   5536.08
	FillingsUpdate:  mu: +0.513435176  nElectrons: 426.000000
SCF: Cycle:  4   F: -1721.385910634534866   dF: -5.936e-01   |Residual|: 1.022e-01   |deigs|: 4.671e-03  t[s]:   5683.85
	FillingsUpdate:  mu: +0.513325712  nElectrons: 426.000000
SCF: Cycle:  5   F: -1721.412709444249685   dF: -2.680e-02   |Residual|: 5.611e-02   |deigs|: 1.196e-03  t[s]:   5823.79
	FillingsUpdate:  mu: +0.513395791  nElectrons: 426.000000
SCF: Cycle:  6   F: -1721.416332776060017   dF: -3.623e-03   |Residual|: 3.893e-02   |deigs|: 9.362e-04  t[s]:   5947.04
	FillingsUpdate:  mu: +0.513361541  nElectrons: 426.000000
SCF: Cycle:  7   F: -1721.421546368446570   dF: -5.214e-03   |Residual|: 1.443e-02   |deigs|: 5.045e-04  t[s]:   6034.41
	FillingsUpdate:  mu: +0.513358370  nElectrons: 426.000000
SCF: Cycle:  8   F: -1721.421896019704946   dF: -3.497e-04   |Residual|: 7.722e-03   |deigs|: 2.825e-04  t[s]:   6119.18
	FillingsUpdate:  mu: +0.513359174  nElectrons: 426.000000
SCF: Cycle:  9   F: -1721.422096062622131   dF: -2.000e-04   |Residual|: 4.125e-03   |deigs|: 1.261e-04  t[s]:   6207.14
	FillingsUpdate:  mu: +0.513358605  nElectrons: 426.000000
SCF: Cycle: 10   F: -1721.422125322722422   dF: -2.926e-05   |Residual|: 2.332e-03   |deigs|: 6.337e-05  t[s]:   6294.98
	FillingsUpdate:  mu: +0.513361839  nElectrons: 426.000000
SCF: Cycle: 11   F: -1721.422136947610852   dF: -1.162e-05   |Residual|: 1.278e-03   |deigs|: 3.801e-05  t[s]:   6378.57
	FillingsUpdate:  mu: +0.513360935  nElectrons: 426.000000
SCF: Cycle: 12   F: -1721.422139268132923   dF: -2.321e-06   |Residual|: 7.638e-04   |deigs|: 2.698e-05  t[s]:   6464.51
	FillingsUpdate:  mu: +0.513360421  nElectrons: 426.000000
SCF: Cycle: 13   F: -1721.422141216548198   dF: -1.948e-06   |Residual|: 2.369e-04   |deigs|: 1.415e-05  t[s]:   6552.11
	FillingsUpdate:  mu: +0.513359712  nElectrons: 426.000000
SCF: Cycle: 14   F: -1721.422141237940878   dF: -2.139e-08   |Residual|: 1.542e-04   |deigs|: 4.006e-06  t[s]:   6643.17
	FillingsUpdate:  mu: +0.513359510  nElectrons: 426.000000
SCF: Cycle: 15   F: -1721.422141287791646   dF: -4.985e-08   |Residual|: 8.463e-05   |deigs|: 3.009e-06  t[s]:   6733.31
	FillingsUpdate:  mu: +0.513359498  nElectrons: 426.000000
SCF: Cycle: 16   F: -1721.422141306375124   dF: -1.858e-08   |Residual|: 3.957e-05   |deigs|: 1.725e-06  t[s]:   6824.53
	FillingsUpdate:  mu: +0.513359463  nElectrons: 426.000000
SCF: Cycle: 17   F: -1721.422141309024482   dF: -2.649e-09   |Residual|: 1.875e-05   |deigs|: 8.070e-07  t[s]:   6909.20
	FillingsUpdate:  mu: +0.513359446  nElectrons: 426.000000
SCF: Cycle: 18   F: -1721.422141308492428   dF: +5.321e-10   |Residual|: 2.031e-05   |deigs|: 7.776e-07  t[s]:   6994.04
	FillingsUpdate:  mu: +0.513359434  nElectrons: 426.000000
SCF: Cycle: 19   F: -1721.422141310169991   dF: -1.678e-09   |Residual|: 5.827e-06   |deigs|: 6.680e-07  t[s]:   7084.10
	FillingsUpdate:  mu: +0.513359442  nElectrons: 426.000000
SCF: Cycle: 20   F: -1721.422141310292773   dF: -1.228e-10   |Residual|: 4.102e-06   |deigs|: 4.369e-07  t[s]:   7150.45
SCF: Converged (|Delta E|<1.000000e-08 for 2 iters).

Setting wave functions to eigenvectors of Hamiltonian

# Ionic positions in lattice coordinates:
ion Ir   0.242424919661156   0.251150703270222   0.249716309074200 1
ion Ir   0.005275337383425   0.011079830085271   0.000153975644919 1
ion Ir   0.251086468399245   0.253645314187485   0.740019023391999 1
ion Ir  -0.002696637378526   0.001196600073027   0.499711859929854 1
ion Ir   0.249362400415675   0.751189202122122   0.262917075936841 1
ion Ir   0.001134956531423   0.509979049702851  -0.003099742146986 1
ion Ir   0.248985488611335   0.751494996774383   0.749249942470850 1
ion Ir   0.000023501409952   0.503663101145106   0.507801940915305 1
ion Ir   0.748681778988769   0.249942511845144   0.256824885673527 1
ion Ir   0.490980441905305   0.011992648670081  -0.010198104710985 1
ion Ir   0.748477218448670   0.250205250786915   0.744215362110680 1
ion Ir   0.496685806898446  -0.008120381446974   0.498757708514075 1
ion Ir   0.742885007548567   0.756628337235441   0.251443435369814 1
ion Ir   0.496089599385897   0.497258329791918   0.005090597242902 1
ion Ir   0.741814308444127   0.737477686558988   0.750033651980587 1
ion Ir   0.501174854613908   0.498755079889765   0.491312728508747 1
ion O   0.004554902701489   0.349945860146755   0.345773111245293 1
ion O   0.233633175052937   0.413854848264848   0.102503525414311 1
ion O   0.007236972557363   0.160532953797566   0.153733176279458 1
ion O   0.242566405360998   0.090021998540502   0.416984757745655 1
ion O   0.010902955095728   0.340935026517299   0.851533759099548 1
ion O   0.253961101694736   0.395919138080835   0.588800527748628 1
ion O  -0.010327661427173   0.145009862201264   0.652875691099994 1
ion O   0.247802311306006   0.093474104172485   0.880905108203548 1
ion O  -0.000031199768813   0.856463188401464   0.351019643721726 1
ion O   0.250647648152208   0.904409537866361   0.116821063868152 1
ion O  -0.004367816300268   0.659636088294275   0.140031968584914 1
ion O   0.237908396298903   0.588050870789908   0.399521392394244 1
ion O   0.002109374649564   0.833113009751320   0.837855537937738 1
ion O   0.253194696603668   0.902508023083701   0.589719012046910 1
ion O   0.002805984859537   0.666627882880943   0.652156687794552 1
ion O   0.253949581912501   0.580061188436741   0.889589544872723 1
ion O   0.504745498626482   0.345385140939413   0.357145308762997 1
ion O   0.747670567762382   0.403338189749528   0.094163704860331 1
ion O   0.487254634426586   0.154210497294683   0.154085325921273 1
ion O   0.759438310361232   0.103401348533790   0.409496734428196 1
ion O   0.497738312048330   0.358575614689733   0.836717286024925 1
ion O   0.744741637755664   0.409051460241337   0.596927447655220 1
ion O   0.490298501058397   0.160211270098639   0.626645896274029 1
ion O   0.747011148520214   0.092431011524199   0.899616582607118 1
ion O   0.499700338776389   0.841941639095122   0.358040575501793 1
ion O   0.753868363896336   0.896580208878331   0.093697279846667 1
ion O   0.493105167186699   0.654878707186878   0.168017227954458 1
ion O   0.495309024680350   0.833047472675854   0.847127945207846 1
ion O   0.759467589767374   0.905121153982582   0.591789189718496 1
ion O   0.486986392633409   0.648982604131410   0.650890289517467 1
ion O   0.753362232483400   0.599291839060488   0.908584047755458 1

# Forces in Lattice coordinates:
force Ir   0.482328741929221   0.107088819837645   0.556078984317864 1
force Ir  -0.202176470609536  -1.191269306934125  -0.040784283178448 1
force Ir  -0.122055291135629  -0.225174177022589   0.135682472154381 1
force Ir   0.127360054845762  -0.139880132248280   0.370208566964001 1
force Ir  -0.357945040954526  -0.113828376987477  -0.577566964372153 1
force Ir  -0.164767062090486  -1.100176105098330  -0.015190713592696 1
force Ir   0.073456426766097  -0.492310195353893  -0.358662891822607 1
force Ir  -0.560236440216228  -0.065989640016439  -0.420404408187897 1
force Ir   0.117994624339183   0.344128590919819  -0.628018619293989 1
force Ir   0.296515414099994  -1.271195883973465   0.774031705394140 1
force Ir  -0.131582767466875  -0.034545644745826   0.193529604581175 1
force Ir   0.424374716294806   0.835976324207812   0.165548318704652 1
force Ir   0.293290059982670  -0.550902784553414   0.329787624325038 1
force Ir   0.077791323170607   0.384485826843964  -0.127833233321240 1
force Ir   0.330365339646289   0.927711471439127  -0.302278853267501 1
force Ir   0.326411727603280   0.606848507616960   0.720429914708010 1
force O  -0.331092026869603   0.062079093981368   0.237862422297270 1
force O   0.367020264546909  -0.148149248767218  -0.015405820929567 1
force O  -0.402010975770279  -0.077149832626189  -0.052228589465778 1
force O   0.210435727860287   0.668649437683555  -0.874300462717562 1
force O  -0.270000168620141   0.057845156401397  -0.145526387183716 1
force O  -0.153640624880238   0.329239764945208  -0.203826143009599 1
force O   0.224253608896651   0.530503940548493   0.354700372028285 1
force O  -0.009968494709302  -0.079151125217120   0.395169177541017 1
force O  -0.126041520332877  -0.695798877439894  -0.552990784383595 1
force O   0.013156078231100   0.791082767413567  -0.930159887772641 1
force O   0.030779623990490   0.684474937439238   0.924142138187478 1
force O   0.288451087069172   0.033833141049800   0.189148667172371 1
force O  -0.272150195088137   0.829171339994224   0.812735730709641 1
force O  -0.238826556636498  -0.277966754694089   0.392135697289689 1
force O  -0.184589420050773  -0.651641144431368  -0.402312037180735 1
force O  -0.113747943408993   0.429822003326038   0.101443467601415 1
force O  -0.123493473725959  -0.624060345359810  -0.869611037340934 1
force O   0.038257769429143   0.007123502459694   0.217750860435361 1
force O   0.203296742882559   0.144156015517006   0.031105095417905 1
force O  -0.373986440082464  -0.397357125748055   0.110858174446699 1
force O   0.091395600125994  -0.392006996489363  -0.089115081851366 1
force O   0.205234856605714   0.146191251856364  -0.122761003845211 1
force O   0.262275794871932   0.396533990328269   0.791109154783913 1
force O   0.076671691767115   0.376208818374513  -0.334719859545874 1
force O   0.040004777844078  -0.494923660231881  -0.387439421701313 1
force O  -0.099430041312133   0.788281447736819  -0.541278941126691 1
force O   0.108972068340303  -0.320810058312203  -0.293187659996542 1
force O   0.079162001791816   0.472365901355042   0.256686288361323 1
force O  -0.510389398749932  -0.437378082441582   0.311593246277921 1
force O   0.259092375478873   0.097543619224968  -0.085607761576463 1
force O  -0.295657026570316  -0.269168528913764   0.004780456210966 1

# Energy components:
   Eewald =    -1383.1690621259447198
       EH =      350.4878882057784608
     Eloc =    -1088.2781610528033980
      Enl =       81.3776238241655392
      Exc =     -511.9432446351468684
 Exc_core =      230.4351419090328932
       KE =      599.8589648893605499
-------------------------------------
     Etot =    -1721.2308489855570315
       TS =        0.1912923247356317
-------------------------------------
        F =    -1721.4221413102927727

IonicMinimize: Iter:   2  F: -1721.422141310292773  |grad|_K:  2.673e-02  alpha:  3.525e-01  linmin: -9.892e-01  t[s]:   7170.55

#--- Lowdin population analysis ---
# oxidation-state Ir +0.516 +0.480 +0.547 +0.607 +0.539 +0.569 +0.564 +0.391 +0.507 +0.496 +0.488 +0.557 +0.404 +0.503 +0.524 +0.398
# oxidation-state O -0.236 -0.231 -0.200 -0.251 -0.262 -0.187 -0.238 -0.211 -0.234 -0.264 -0.236 -0.231 -0.252 -0.239 -0.224 -0.244 -0.207 -0.255 -0.238 -0.240 -0.240 -0.213 -0.251 -0.213 -0.187 -0.228 -0.228 -0.244 -0.266 -0.245 -0.211


-------- Electronic minimization -----------
Will mix electronic density at each iteration.
	FillingsUpdate:  mu: +0.513359442  nElectrons: 426.000000
	FillingsUpdate:  mu: +0.518634389  nElectrons: 426.000000
SCF: Cycle:  0   F: -1713.101109253789446   dF: +6.793e+00   |Residual|: 1.230e+00   |deigs|: 6.707e-03  t[s]:   7365.73
	FillingsUpdate:  mu: +0.524369009  nElectrons: 426.000000
SCF: Cycle:  1   F: -1710.818572864652879   dF: +2.283e+00   |Residual|: 1.602e+00   |deigs|: 2.108e-02  t[s]:   7504.91
	FillingsUpdate:  mu: +0.513755148  nElectrons: 426.000000
SCF: Cycle:  2   F: -1720.641266600744530   dF: -9.823e+00   |Residual|: 4.454e-01   |deigs|: 2.848e-02  t[s]:   7647.65
	FillingsUpdate:  mu: +0.513074978  nElectrons: 426.000000
SCF: Cycle:  3   F: -1721.014043567099179   dF: -3.728e-01   |Residual|: 3.378e-01   |deigs|: 4.586e-03  t[s]:   7790.12
	FillingsUpdate:  mu: +0.512623947  nElectrons: 426.000000
SCF: Cycle:  4   F: -1721.462461919857788   dF: -4.484e-01   |Residual|: 1.051e-01   |deigs|: 3.459e-03  t[s]:   7936.31
	FillingsUpdate:  mu: +0.512416223  nElectrons: 426.000000
SCF: Cycle:  5   F: -1721.486730781379265   dF: -2.427e-02   |Residual|: 7.328e-02   |deigs|: 1.212e-03  t[s]:   8083.79
	FillingsUpdate:  mu: +0.512482220  nElectrons: 426.000000
SCF: Cycle:  6   F: -1721.497802175404331   dF: -1.107e-02   |Residual|: 4.054e-02   |deigs|: 1.023e-03  t[s]:   8214.70
	FillingsUpdate:  mu: +0.512457166  nElectrons: 426.000000
SCF: Cycle:  7   F: -1721.502565917103766   dF: -4.764e-03   |Residual|: 1.437e-02   |deigs|: 5.787e-04  t[s]:   8303.03
	FillingsUpdate:  mu: +0.512464074  nElectrons: 426.000000
SCF: Cycle:  8   F: -1721.502727416012476   dF: -1.615e-04   |Residual|: 8.338e-03   |deigs|: 2.499e-04  t[s]:   8390.99
	FillingsUpdate:  mu: +0.512460032  nElectrons: 426.000000
SCF: Cycle:  9   F: -1721.502987583469348   dF: -2.602e-04   |Residual|: 4.316e-03   |deigs|: 1.406e-04  t[s]:   8477.78
	FillingsUpdate:  mu: +0.512458555  nElectrons: 426.000000
SCF: Cycle: 10   F: -1721.503022146828016   dF: -3.456e-05   |Residual|: 2.241e-03   |deigs|: 6.460e-05  t[s]:   8566.87
	FillingsUpdate:  mu: +0.512459372  nElectrons: 426.000000
SCF: Cycle: 11   F: -1721.503029075592849   dF: -6.929e-06   |Residual|: 1.396e-03   |deigs|: 3.642e-05  t[s]:   8652.63
	FillingsUpdate:  mu: +0.512459050  nElectrons: 426.000000
SCF: Cycle: 12   F: -1721.503032012139784   dF: -2.937e-06   |Residual|: 9.683e-04   |deigs|: 3.211e-05  t[s]:   8738.54
	FillingsUpdate:  mu: +0.512458332  nElectrons: 426.000000
SCF: Cycle: 13   F: -1721.503034969524606   dF: -2.957e-06   |Residual|: 2.438e-04   |deigs|: 1.572e-05  t[s]:   8828.22
	FillingsUpdate:  mu: +0.512457517  nElectrons: 426.000000
SCF: Cycle: 14   F: -1721.503034934685502   dF: +3.484e-08   |Residual|: 2.104e-04   |deigs|: 4.962e-06  t[s]:   8913.03
	FillingsUpdate:  mu: +0.512457295  nElectrons: 426.000000
SCF: Cycle: 15   F: -1721.503035048734318   dF: -1.140e-07   |Residual|: 9.893e-05   |deigs|: 4.100e-06  t[s]:   9001.26
	FillingsUpdate:  mu: +0.512457263  nElectrons: 426.000000
SCF: Cycle: 16   F: -1721.503035061277160   dF: -1.254e-08   |Residual|: 5.146e-05   |deigs|: 1.804e-06  t[s]:   9088.93
	FillingsUpdate:  mu: +0.512457206  nElectrons: 426.000000
SCF: Cycle: 17   F: -1721.503035070511487   dF: -9.234e-09   |Residual|: 2.577e-05   |deigs|: 1.104e-06  t[s]:   9173.65
	FillingsUpdate:  mu: +0.512457147  nElectrons: 426.000000
SCF: Cycle: 18   F: -1721.503035072294324   dF: -1.783e-09   |Residual|: 1.448e-05   |deigs|: 6.883e-07  t[s]:   9256.59
SCF: Converged (|Delta E|<1.000000e-08 for 2 iters).

Setting wave functions to eigenvectors of Hamiltonian

# Ionic positions in lattice coordinates:
ion Ir   0.244074615069796   0.251346937494223   0.251608235784149 1
ion Ir   0.003385011756114   0.006713539129182  -0.000262946206154 1
ion Ir   0.250179374901511   0.253273045669255   0.740428674736290 1
ion Ir  -0.001900115574299   0.000493310770150   0.500554918917175 1
ion Ir   0.247672938481149   0.750673138771219   0.260028689388333 1
ion Ir  -0.000020469762710   0.507048573175027  -0.002084678872227 1
ion Ir   0.248825118498664   0.750229521542164   0.748739942855719 1
ion Ir  -0.003919296542816   0.503409850012489   0.505388790331128 1
ion Ir   0.749251339058372   0.250411901714575   0.254855495359927 1
ion Ir   0.493551952547748   0.007140062396653  -0.007372466023948 1
ion Ir   0.747641113391495   0.250468099325702   0.744966311549739 1
ion Ir   0.498156582971721  -0.005972637960372   0.498773993373661 1
ion Ir   0.744828176001445   0.754710409045867   0.251967578080991 1
ion Ir   0.496482379318088   0.498715544777711   0.004310411574248 1
ion Ir   0.743572742109263   0.740949569855132   0.749614370097476 1
ion Ir   0.503515850880559   0.499882612627687   0.492903876902943 1
ion O   0.002321052372426   0.350049523889185   0.346583396441606 1
ion O   0.237011317722409   0.413055248682345   0.102463777674577 1
ion O   0.005247716602496   0.160304551503544   0.153532350559926 1
ion O   0.244297235345593   0.092268913628941   0.413829175350191 1
ion O   0.008400782540344   0.341058574077018   0.850794131391100 1
ion O   0.252555997524129   0.397144787696872   0.588238456416700 1
ion O  -0.008351637192149   0.146926894875550   0.653966879446564 1
ion O   0.248228354582280   0.092527833451783   0.883531114848814 1
ion O  -0.001263403461589   0.854189153624844   0.349476171061801 1
ion O   0.250704719851392   0.907520317113092   0.112950710151063 1
ion O  -0.003966757578794   0.661159694275235   0.142780133570251 1
ion O   0.239888225942406   0.588356366416787   0.400420100753859 1
ion O   0.001256483922619   0.836058119062832   0.840642290157235 1
ion O   0.252514320121285   0.902061867493133   0.590682617530504 1
ion O   0.001299463648748   0.664186874747157   0.650833721463497 1
ion O   0.252813498414635   0.581698246918998   0.890409944644464 1
ion O   0.503914593009790   0.344257314056760   0.354640706487068 1
ion O   0.747967268796755   0.403543985724017   0.094957824846023 1
ion O   0.489507169917252   0.154745605089509   0.154075698266041 1
ion O   0.756675653623114   0.102158584460962   0.409462629624184 1
ion O   0.498291048433550   0.356946956624401   0.836540060986858 1
ion O   0.746223254252662   0.409382925111011   0.596675211256701 1
ion O   0.492603939321844   0.161858369306194   0.630184342420042 1
ion O   0.747043161262505   0.093526937118483   0.898771092143936 1
ion O   0.499761283389322   0.840702425925279   0.357166493505972 1
ion O   0.752634882056910   0.899256846079044   0.092303348802290 1
ion O   0.493895791168012   0.653710551518693   0.166823413080918 1
ion O   0.495722005707304   0.834709422539451   0.847820363631457 1
ion O   0.756178888245039   0.903541946273576   0.592998077207093 1
ion O   0.489763194728033   0.649631541387907   0.650669660570842 1
ion O   0.751193182623578   0.598516142980733   0.908074907858971 1

# Forces in Lattice coordinates:
force Ir   0.332578932684637   0.056126138061906   0.314610006594935 1
force Ir  -0.122574290399167  -0.739324655990464  -0.087574292853935 1
force Ir  -0.079761245491698  -0.163526193560830   0.173174815262381 1
force Ir   0.078880745491151  -0.082020970206287   0.208755365119279 1
force Ir  -0.201074682619705  -0.053370530414117  -0.441169081502208 1
force Ir  -0.105158428363209  -0.713282301406375   0.022995666619646 1
force Ir   0.033771345985473  -0.322286495784126  -0.231346038682136 1
force Ir  -0.380473469218810  -0.024085365213706  -0.383726893887806 1
force Ir   0.054577193912263   0.180379293776186  -0.434367274158524 1
force Ir   0.197184181126281  -0.815987793164788   0.535331231020671 1
force Ir  -0.058635292143737   0.000590445935854   0.154699284314177 1
force Ir   0.268311672973377   0.573278245368723   0.105755869191644 1
force Ir   0.174298548347386  -0.418153573310633   0.234626034945384 1
force Ir   0.056750990364768   0.234046914428359  -0.126527996672676 1
force Ir   0.225136330728205   0.628723508941918  -0.163526746320538 1
force Ir   0.227345567298595   0.339656165704148   0.419352544419645 1
force O  -0.255764216665639   0.009194112858823   0.139131058284523 1
force O   0.282849550883052  -0.141444972613029  -0.016814657776743 1
force O  -0.270979332010558  -0.102090870868316  -0.071685325351681 1
force O   0.131703859945219   0.434568519190311  -0.603449997919700 1
force O  -0.230937972039251   0.044596077370743  -0.124834484323901 1
force O  -0.130387558470590   0.253490520271606  -0.121656630531401 1
force O   0.173701568453776   0.377480658014885   0.214808378725309 1
force O   0.018012011552980  -0.091015140807976   0.400789134095542 1
force O  -0.088048161079275  -0.502398445026973  -0.374116541356316 1
force O   0.003111345101229   0.511846216094149  -0.695139770856356 1
force O   0.032409667379647   0.393951234618420   0.622971021412792 1
force O   0.207063062263191   0.095824287683182   0.108912798784035 1
force O  -0.162958444930468   0.586242407472432   0.570333180514819 1
force O  -0.156349966163547  -0.159283557203011   0.273464291989314 1
force O  -0.150618312587908  -0.446058576078794  -0.240538652231522 1
force O  -0.108600271437213   0.328179164690582   0.153828844475613 1
force O  -0.083136514233878  -0.326357555545664  -0.563839112054304 1
force O   0.019776583908701   0.042547645932439   0.152778064205605 1
force O   0.177340042431091   0.092895390493688   0.009631126049605 1
force O  -0.257731265786704  -0.295409257417261   0.039864683050825 1
force O   0.043328025982754  -0.292395190547003  -0.018255136937799 1
force O   0.135163887395094   0.086029752525335  -0.079910600617417 1
force O   0.199766701140650   0.249987539229912   0.624728796217260 1
force O   0.032829577177633   0.192519638734457  -0.170167614081868 1
force O   0.014843199309661  -0.326628279644052  -0.280015667149967 1
force O  -0.108597100641164   0.521678754466921  -0.299882862039503 1
force O   0.090333641954255  -0.238533976550276  -0.262363918321133 1
force O   0.053039553103364   0.340338090707747   0.167741236523422 1
force O  -0.340820996869478  -0.268375038972276   0.207230396304744 1
force O   0.225568546757932   0.136288314389838  -0.028320897609130 1
force O  -0.193465626694586  -0.189777368119740  -0.032840982034116 1

# Energy components:
   Eewald =    -1385.0816043201814409
       EH =      348.6945966867454558
     Eloc =    -1084.3877191399942603
      Enl =       81.3073681494582985
      Exc =     -511.8660455215482443
 Exc_core =      230.4351662308823165
       KE =      599.5833791066647791
-------------------------------------
     Etot =    -1721.3148588079729961
       TS =        0.1881762643212749
-------------------------------------
        F =    -1721.5030350722943240

IonicMinimize: Iter:   3  F: -1721.503035072294324  |grad|_K:  1.815e-02  alpha:  3.167e-01  linmin: -9.772e-01  t[s]:   9276.50

#--- Lowdin population analysis ---
# oxidation-state Ir +0.521 +0.493 +0.548 +0.584 +0.534 +0.555 +0.554 +0.396 +0.515 +0.505 +0.500 +0.550 +0.401 +0.509 +0.523 +0.396
# oxidation-state O -0.232 -0.233 -0.214 -0.247 -0.256 -0.195 -0.237 -0.225 -0.230 -0.256 -0.235 -0.237 -0.248 -0.239 -0.224 -0.243 -0.214 -0.246 -0.241 -0.242 -0.242 -0.207 -0.247 -0.221 -0.198 -0.224 -0.227 -0.241 -0.256 -0.238 -0.219


-------- Electronic minimization -----------
Will mix electronic density at each iteration.
	FillingsUpdate:  mu: +0.512457147  nElectrons: 426.000000
	FillingsUpdate:  mu: +0.520967577  nElectrons: 426.000000
SCF: Cycle:  0   F: -1706.153504817188377   dF: +1.339e+01   |Residual|: 1.521e+00   |deigs|: 8.416e-03  t[s]:   9472.84
	FillingsUpdate:  mu: +0.529050259  nElectrons: 426.000000
SCF: Cycle:  1   F: -1699.594804664435742   dF: +6.559e+00   |Residual|: 2.161e+00   |deigs|: 2.728e-02  t[s]:   9614.77
	FillingsUpdate:  mu: +0.514724320  nElectrons: 426.000000
SCF: Cycle:  2   F: -1720.095774256927371   dF: -2.050e+01   |Residual|: 6.231e-01   |deigs|: 3.752e-02  t[s]:   9749.52
	FillingsUpdate:  mu: +0.512717812  nElectrons: 426.000000
SCF: Cycle:  3   F: -1721.228790125697742   dF: -1.133e+00   |Residual|: 3.330e-01   |deigs|: 8.336e-03  t[s]:   9892.90
	FillingsUpdate:  mu: +0.512236796  nElectrons: 426.000000
SCF: Cycle:  4   F: -1721.437702643034754   dF: -2.089e-01   |Residual|: 1.774e-01   |deigs|: 2.504e-03  t[s]:  10038.16
	FillingsUpdate:  mu: +0.511909252  nElectrons: 426.000000
SCF: Cycle:  5   F: -1721.527078668410923   dF: -8.938e-02   |Residual|: 1.045e-01   |deigs|: 1.662e-03  t[s]:  10184.52
	FillingsUpdate:  mu: +0.511923975  nElectrons: 426.000000
SCF: Cycle:  6   F: -1721.548903034290788   dF: -2.182e-02   |Residual|: 6.222e-02   |deigs|: 1.163e-03  t[s]:  10328.88
	FillingsUpdate:  mu: +0.511888724  nElectrons: 426.000000
SCF: Cycle:  7   F: -1721.559840138208756   dF: -1.094e-02   |Residual|: 2.086e-02   |deigs|: 8.566e-04  t[s]:  10455.29
	FillingsUpdate:  mu: +0.511912006  nElectrons: 426.000000
SCF: Cycle:  8   F: -1721.560053639413127   dF: -2.135e-04   |Residual|: 1.181e-02   |deigs|: 2.707e-04  t[s]:  10545.83
	FillingsUpdate:  mu: +0.511902185  nElectrons: 426.000000
SCF: Cycle:  9   F: -1721.560519826103246   dF: -4.662e-04   |Residual|: 6.368e-03   |deigs|: 1.965e-04  t[s]:  10633.20
	FillingsUpdate:  mu: +0.511898492  nElectrons: 426.000000
SCF: Cycle: 10   F: -1721.560606141079234   dF: -8.631e-05   |Residual|: 3.285e-03   |deigs|: 1.023e-04  t[s]:  10719.50
	FillingsUpdate:  mu: +0.511898027  nElectrons: 426.000000
SCF: Cycle: 11   F: -1721.560615141262588   dF: -9.000e-06   |Residual|: 2.256e-03   |deigs|: 8.898e-05  t[s]:  10807.57
	FillingsUpdate:  mu: +0.511897585  nElectrons: 426.000000
SCF: Cycle: 12   F: -1721.560621755336115   dF: -6.614e-06   |Residual|: 1.690e-03   |deigs|: 1.250e-04  t[s]:  10894.91
	FillingsUpdate:  mu: +0.511897058  nElectrons: 426.000000
SCF: Cycle: 13   F: -1721.560631273054014   dF: -9.518e-06   |Residual|: 3.466e-04   |deigs|: 1.513e-04  t[s]:  10981.71
	FillingsUpdate:  mu: +0.511895876  nElectrons: 426.000000
SCF: Cycle: 14   F: -1721.560631282718077   dF: -9.664e-09   |Residual|: 2.839e-04   |deigs|: 1.641e-04  t[s]:  11068.94
	FillingsUpdate:  mu: +0.511895878  nElectrons: 426.000000
SCF: Cycle: 15   F: -1721.560631499366536   dF: -2.166e-07   |Residual|: 1.477e-04   |deigs|: 2.735e-04  t[s]:  11159.57
	FillingsUpdate:  mu: +0.511895635  nElectrons: 426.000000
SCF: Cycle: 16   F: -1721.560631524085011   dF: -2.472e-08   |Residual|: 9.398e-05   |deigs|: 2.674e-04  t[s]:  11243.61
	FillingsUpdate:  mu: +0.511895479  nElectrons: 426.000000
SCF: Cycle: 17   F: -1721.560631560370211   dF: -3.629e-08   |Residual|: 3.956e-05   |deigs|: 3.164e-04  t[s]:  11327.95
	FillingsUpdate:  mu: +0.511895413  nElectrons: 426.000000
SCF: Cycle: 18   F: -1721.560631564757614   dF: -4.387e-09   |Residual|: 1.558e-05   |deigs|: 3.008e-04  t[s]:  11413.56
	FillingsUpdate:  mu: +0.511895348  nElectrons: 426.000000
SCF: Cycle: 19   F: -1721.560631564891310   dF: -1.337e-10   |Residual|: 1.175e-05   |deigs|: 2.851e-04  t[s]:  11500.00
SCF: Converged (|Delta E|<1.000000e-08 for 2 iters).

Setting wave functions to eigenvectors of Hamiltonian

# Ionic positions in lattice coordinates:
ion Ir   0.246505624166291   0.251395355537391   0.252863914486922 1
ion Ir   0.001822391343771   0.002913695356825  -0.001461898677120 1
ion Ir   0.249271757100535   0.252617325513120   0.741998076721317 1
ion Ir  -0.001243178803503  -0.000024217532060   0.501037776708682 1
ion Ir   0.246777072972265   0.750459949255302   0.256409186755193 1
ion Ir  -0.001098120447475   0.503979306688332  -0.000864074008422 1
ion Ir   0.248475506802148   0.748877132899607   0.748151239690108 1
ion Ir  -0.008260226099222   0.503416199865657   0.501633042455194 1
ion Ir   0.749222111745449   0.250405939992360   0.252526491725485 1
ion Ir   0.496155317109734   0.002540493564991  -0.004164020118673 1
ion Ir   0.747539819061399   0.250991018175857   0.746091021927580 1
ion Ir   0.499638088389052  -0.003268778967870   0.498884941013184 1
ion Ir   0.746297151605535   0.751989582191056   0.252865885234030 1
ion Ir   0.497060982817146   0.499927857368725   0.002992369122400 1
ion Ir   0.745639215226599   0.744705471117159   0.749550470462530 1
ion Ir   0.506233485821921   0.500531843254486   0.494059209687093 1
ion O  -0.001019521398504   0.349751497257222   0.347182889608527 1
ion O   0.241451710476765   0.411692554567563   0.102333918431786 1
ion O   0.002872735106865   0.159343887220256   0.152798947930378 1
ion O   0.245842000393371   0.094505519510271   0.410245295740976 1
ion O   0.004491160428942   0.341287974586715   0.849684957706043 1
ion O   0.250371582651375   0.398882876458032   0.587808807356414 1
ion O  -0.005685635084709   0.149248600576008   0.654844539172562 1
ion O   0.249250146565453   0.091142041103092   0.887910138196535 1
ion O  -0.002601231859775   0.851225567521970   0.347681429285211 1
ion O   0.250613464047550   0.910519697866291   0.107981440893660 1
ion O  -0.003262283062027   0.662165686087349   0.145931641223595 1
ion O   0.242386655646204   0.589628742580450   0.401083568271300 1
ion O   0.000606622161413   0.839617895903798   0.843990690107380 1
ion O   0.251645045111612   0.901827290869882   0.591956122867701 1
ion O  -0.001011609316348   0.661488106959840   0.649792929832297 1
ion O   0.250773949888875   0.583956080744486   0.892350832145749 1
ion O   0.503031790719391   0.343940009650657   0.351994148434754 1
ion O   0.748119499938531   0.404239035891343   0.095890255026087 1
ion O   0.492859051929953   0.155260531715741   0.153939387995371 1
ion O   0.753576188849675   0.100394464361040   0.409063834833388 1
ion O   0.498409916285629   0.354862763066528   0.836882914426357 1
ion O   0.747728175074964   0.409610372199597   0.596400118177631 1
ion O   0.495622956273101   0.163334413204510   0.635062596655376 1
ion O   0.746674728032517   0.093931336578930   0.898537594715384 1
ion O   0.499549505216392   0.839293562893125   0.355803893164849 1
ion O   0.750287956293966   0.902052265224006   0.091544216465211 1
ion O   0.495208899789326   0.652156752992466   0.164695354741178 1
ion O   0.496183518599139   0.836799188304970   0.848540992776770 1
ion O   0.752649086166579   0.902200473714758   0.594240808251922 1
ion O   0.493936468306942   0.651213186703127   0.650805541561449 1
ion O   0.749030467955190   0.597519449405039   0.907166560818654 1

# Forces in Lattice coordinates:
force Ir   0.117055783716296   0.037514275059861   0.088576356747926 1
force Ir  -0.066580261830782  -0.290525873526733  -0.045880184901825 1
force Ir  -0.031832681211109  -0.063362423059741   0.131655293163164 1
force Ir   0.029448686266570  -0.059004086965235   0.076627303630209 1
force Ir  -0.068093519706625  -0.003161930017311  -0.260972963407512 1
force Ir  -0.045984705303789  -0.358039604996572   0.024311282561805 1
force Ir   0.019472219824842  -0.137391576305752  -0.090291884832096 1
force Ir  -0.196763780768802   0.037152087128241  -0.256548028180704 1
force Ir   0.026384818687552   0.072004117106375  -0.220462746157884 1
force Ir   0.074243573872391  -0.322887274413018   0.246017287849528 1
force Ir  -0.017262758794791  -0.001033599565601   0.102240385432136 1
force Ir   0.088867464207760   0.258534933085715   0.066217606345794 1
force Ir   0.076737927123784  -0.305109673569507   0.155349417394846 1
force Ir   0.015905820586895   0.084731819231450  -0.096200436063455 1
force Ir   0.104008209920480   0.330071170884292  -0.025296019761976 1
force Ir   0.107396295112542   0.223070453553131   0.240657053961672 1
force O  -0.143708113481843  -0.060027273829611   0.004474100455082 1
force O   0.174722243522477  -0.112128522696488  -0.042279433480651 1
force O  -0.129419469178642  -0.087283410416624  -0.049338179978587 1
force O   0.085963944785367   0.197511017130918  -0.323764801168585 1
force O  -0.148891981172583   0.042527482115291  -0.072148502571859 1
force O  -0.090498877563046   0.144723527073058  -0.012603140287380 1
force O   0.105181539895195   0.214273404723192   0.092231902009885 1
force O   0.023886184297730  -0.028916068771328   0.300139839509767 1
force O  -0.037856824670648  -0.285009436941079  -0.178801581119857 1
force O  -0.011023448107451   0.181886674166389  -0.389105072265832 1
force O   0.018886895136452   0.117739456924748   0.322350180764389 1
force O   0.122104064713325   0.119341721433116   0.027457889419060 1
force O  -0.073009139018321   0.276189700413018   0.258139103448640 1
force O  -0.077839225774030  -0.041269980197210   0.150592575730818 1
force O  -0.098896384438374  -0.255345901536937  -0.119242620234857 1
force O  -0.075629406147379   0.224674719603023   0.168508760478618 1
force O  -0.029487258548364  -0.145088810372988  -0.339669970868270 1
force O   0.002949593517026   0.049696015348021   0.089318198800229 1
force O   0.123016978821109   0.032070283612653  -0.009393245642833 1
force O  -0.131362451651873  -0.166931935036481  -0.040855864269997 1
force O   0.009277234053632  -0.180985829391413   0.052392778752408 1
force O   0.068346902934092   0.031393096195187  -0.048234267389924 1
force O   0.115206992436567   0.093430230199781   0.418037657585399 1
force O   0.023517404004418   0.056245706546380  -0.057389192457132 1
force O  -0.000260686824878  -0.131022971400236  -0.154996473110873 1
force O  -0.061002296597451   0.235352563184585  -0.061239063264230 1
force O   0.060379530745372  -0.127603499452673  -0.198346978326459 1
force O   0.027857372783780   0.187797370514871   0.067181675389630 1
force O  -0.167678579051101  -0.077907910524081   0.083643539959818 1
force O   0.156764029032979   0.101517737302414  -0.027340332620128 1
force O  -0.079616732994665  -0.110682901825114  -0.051141712978893 1

# Energy components:
   Eewald =    -1386.5356536512970251
       EH =      347.2937951594546462
     Eloc =    -1081.4098745281189622
      Enl =       81.2638887816585793
      Exc =     -511.8164286709159683
 Exc_core =      230.4351895812828559
       KE =      599.3943422148540776
-------------------------------------
     Etot =    -1721.3747411130816545
       TS =        0.1858904518097341
-------------------------------------
        F =    -1721.5606315648913096

IonicMinimize: Iter:   4  F: -1721.560631564891310  |grad|_K:  9.422e-03  alpha:  4.611e-01  linmin: -9.680e-01  t[s]:  11519.65

#--- Lowdin population analysis ---
# oxidation-state Ir +0.524 +0.510 +0.545 +0.560 +0.530 +0.541 +0.544 +0.399 +0.522 +0.520 +0.512 +0.541 +0.399 +0.517 +0.526 +0.395
# oxidation-state O -0.229 -0.235 -0.229 -0.242 -0.249 -0.207 -0.236 -0.236 -0.227 -0.247 -0.233 -0.243 -0.243 -0.239 -0.225 -0.241 -0.217 -0.239 -0.242 -0.241 -0.242 -0.201 -0.243 -0.231 -0.210 -0.222 -0.226 -0.240 -0.246 -0.233 -0.227


-------- Electronic minimization -----------
Will mix electronic density at each iteration.
	FillingsUpdate:  mu: +0.511895348  nElectrons: 426.000000
	FillingsUpdate:  mu: +0.521917129  nElectrons: 426.000000
SCF: Cycle:  0   F: -1705.919232698930728   dF: +1.403e+01   |Residual|: 1.449e+00   |deigs|: 7.533e-03  t[s]:  11721.75
	FillingsUpdate:  mu: +0.527313323  nElectrons: 426.000000
SCF: Cycle:  1   F: -1699.987307236088327   dF: +5.932e+00   |Residual|: 2.144e+00   |deigs|: 2.691e-02  t[s]:  11864.47
	FillingsUpdate:  mu: +0.514508285  nElectrons: 426.000000
SCF: Cycle:  2   F: -1720.279244911075466   dF: -2.029e+01   |Residual|: 6.041e-01   |deigs|: 3.699e-02  t[s]:  12005.37
	FillingsUpdate:  mu: +0.512577163  nElectrons: 426.000000
SCF: Cycle:  3   F: -1721.326380464470276   dF: -1.047e+00   |Residual|: 3.184e-01   |deigs|: 7.298e-03  t[s]:  12142.23
	FillingsUpdate:  mu: +0.512033097  nElectrons: 426.000000
SCF: Cycle:  4   F: -1721.466642500032549   dF: -1.403e-01   |Residual|: 1.820e-01   |deigs|: 2.514e-03  t[s]:  12285.74
	FillingsUpdate:  mu: +0.511714342  nElectrons: 426.000000
SCF: Cycle:  5   F: -1721.549779214946739   dF: -8.314e-02   |Residual|: 1.003e-01   |deigs|: 1.764e-03  t[s]:  12430.46
	FillingsUpdate:  mu: +0.511715031  nElectrons: 426.000000
SCF: Cycle:  6   F: -1721.574333414813054   dF: -2.455e-02   |Residual|: 6.185e-02   |deigs|: 1.024e-03  t[s]:  12567.10
	FillingsUpdate:  mu: +0.511685651  nElectrons: 426.000000
SCF: Cycle:  7   F: -1721.584204531144678   dF: -9.871e-03   |Residual|: 2.245e-02   |deigs|: 8.772e-04  t[s]:  12684.21
	FillingsUpdate:  mu: +0.511703584  nElectrons: 426.000000
SCF: Cycle:  8   F: -1721.584694993804078   dF: -4.905e-04   |Residual|: 1.251e-02   |deigs|: 4.030e-04  t[s]:  12767.81
	FillingsUpdate:  mu: +0.511699212  nElectrons: 426.000000
SCF: Cycle:  9   F: -1721.585070638104071   dF: -3.756e-04   |Residual|: 7.219e-03   |deigs|: 2.927e-04  t[s]:  12857.21
	FillingsUpdate:  mu: +0.511689782  nElectrons: 426.000000
SCF: Cycle: 10   F: -1721.585225213825652   dF: -1.546e-04   |Residual|: 3.508e-03   |deigs|: 2.426e-04  t[s]:  12945.56
	FillingsUpdate:  mu: +0.511692319  nElectrons: 426.000000
SCF: Cycle: 11   F: -1721.585242220442524   dF: -1.701e-05   |Residual|: 2.058e-03   |deigs|: 2.087e-04  t[s]:  13035.62
	FillingsUpdate:  mu: +0.511689460  nElectrons: 426.000000
SCF: Cycle: 12   F: -1721.585246018584712   dF: -3.798e-06   |Residual|: 1.648e-03   |deigs|: 1.944e-04  t[s]:  13123.01
	FillingsUpdate:  mu: +0.511689408  nElectrons: 426.000000
SCF: Cycle: 13   F: -1721.585254331995429   dF: -8.313e-06   |Residual|: 4.292e-04   |deigs|: 1.537e-04  t[s]:  13209.65
	FillingsUpdate:  mu: +0.511688071  nElectrons: 426.000000
SCF: Cycle: 14   F: -1721.585254103868465   dF: +2.281e-07   |Residual|: 3.810e-04   |deigs|: 8.845e-05  t[s]:  13295.81
	FillingsUpdate:  mu: +0.511688146  nElectrons: 426.000000
SCF: Cycle: 15   F: -1721.585254810520837   dF: -7.067e-07   |Residual|: 1.368e-04   |deigs|: 7.338e-05  t[s]:  13380.20
	FillingsUpdate:  mu: +0.511688029  nElectrons: 426.000000
SCF: Cycle: 16   F: -1721.585254821312446   dF: -1.079e-08   |Residual|: 9.129e-05   |deigs|: 4.793e-05  t[s]:  13466.47
	FillingsUpdate:  mu: +0.511687807  nElectrons: 426.000000
SCF: Cycle: 17   F: -1721.585254845938607   dF: -2.463e-08   |Residual|: 4.533e-05   |deigs|: 3.102e-05  t[s]:  13551.64
	FillingsUpdate:  mu: +0.511687743  nElectrons: 426.000000
SCF: Cycle: 18   F: -1721.585254850702540   dF: -4.764e-09   |Residual|: 2.146e-05   |deigs|: 2.764e-05  t[s]:  13640.65
	FillingsUpdate:  mu: +0.511687665  nElectrons: 426.000000
SCF: Cycle: 19   F: -1721.585254851318723   dF: -6.162e-10   |Residual|: 1.220e-05   |deigs|: 1.482e-05  t[s]:  13726.33
SCF: Converged (|Delta E|<1.000000e-08 for 2 iters).

Setting wave functions to eigenvectors of Hamiltonian

# Ionic positions in lattice coordinates:
ion Ir   0.247333159039026   0.251619846289816   0.252987645480517 1
ion Ir   0.000378168451703   0.000806855056643  -0.002388389316253 1
ion Ir   0.248751109765602   0.252282616431948   0.743906035927785 1
ion Ir  -0.000924505116283  -0.000729499244662   0.501150717147508 1
ion Ir   0.246740798789016   0.750617532249137   0.252938443496852 1
ion Ir  -0.001835077881628   0.501210387283581   0.000199035854072 1
ion Ir   0.248352890124733   0.748001874204491   0.747902400827346 1
ion Ir  -0.012136037855278   0.504132868593376   0.497765924474807 1
ion Ir   0.749296168338190   0.250306054949393   0.250477868830894 1
ion Ir   0.497564910038227  -0.000086115432019  -0.001793592594719 1
ion Ir   0.747724916356059   0.251320836315404   0.747375186613522 1
ion Ir   0.499815454058388  -0.001320122455964   0.499252811597055 1
ion Ir   0.747330963925038   0.748313746025360   0.254271372388596 1
ion Ir   0.497195308277303   0.500489933303834   0.001492926804740 1
ion Ir   0.747247152416881   0.748084722314630   0.750189865537725 1
ion Ir   0.508335315132726   0.502044037033440   0.495669852046534 1
ion O  -0.004253723811371   0.348592974511476   0.346752146242837 1
ion O   0.246009501116619   0.410017666181531   0.101725056215588 1
ion O   0.000922516505693   0.158062209342908   0.152043154079318 1
ion O   0.247746338977770   0.096144303839822   0.406910550291407 1
ion O   0.000395633670613   0.341789038857285   0.848672065258125 1
ion O   0.247884453970598   0.400573161437826   0.588120062655432 1
ion O  -0.002990242040134   0.151569677177738   0.655426448026062 1
ion O   0.250425211962648   0.090373212503978   0.892740098977936 1
ion O  -0.003484992139730   0.848231923067175   0.346231351570133 1
ion O   0.250184865202413   0.911934539737023   0.103333449792528 1
ion O  -0.002636000378182   0.662025356214309   0.148810263114466 1
ion O   0.245047811883706   0.591651408778071   0.401234281178868 1
ion O   0.000112520520166   0.842337832490485   0.846403657287005 1
ion O   0.250764019381308   0.902085841346425   0.593292073404517 1
ion O  -0.003570812078026   0.658751885451697   0.648876308426686 1
ion O   0.248550524012303   0.586707037752292   0.895178199408422 1
ion O   0.502629308649207   0.343726317553337   0.348841670241857 1
ion O   0.748054623230947   0.405173372356923   0.096864128095460 1
ion O   0.496504385278196   0.155483923687407   0.153647626059638 1
ion O   0.750898676187399   0.098629911657481   0.407926852026847 1
ion O   0.498205645763258   0.352653073433461   0.838017491919269 1
ion O   0.749038342198501   0.409677770752509   0.596013051724414 1
[...]

#--- Lowdin population analysis ---
# oxidation-state Ir +0.529 +0.536 +0.540 +0.533 +0.534 +0.533 +0.528 +0.398 +0.535 +0.536 +0.522 +0.533 +0.370 +0.533 +0.535 +0.398
# oxidation-state O -0.228 -0.236 -0.237 -0.239 -0.238 -0.227 -0.238 -0.245 -0.223 -0.237 -0.223 -0.243 -0.237 -0.236 -0.229 -0.239 -0.228 -0.235 -0.237 -0.238 -0.238 -0.201 -0.238 -0.240 -0.223 -0.244 -0.223 -0.237 -0.235 -0.228 -0.238


-------- Electronic minimization -----------
Will mix electronic density at each iteration.
	FillingsUpdate:  mu: +0.511470176  nElectrons: 426.000000
	FillingsUpdate:  mu: +0.511462393  nElectrons: 426.000000
SCF: Cycle:  0   F: -1721.598721491918923   dF: +2.988e-05   |Residual|: 4.651e-03   |deigs|: 4.718e-06  t[s]:  31427.19
	FillingsUpdate:  mu: +0.511462676  nElectrons: 426.000000
SCF: Cycle:  1   F: -1721.598611203030714   dF: +1.103e-04   |Residual|: 7.000e-03   |deigs|: 1.132e-04  t[s]:  31510.88
	FillingsUpdate:  mu: +0.511461649  nElectrons: 426.000000
SCF: Cycle:  2   F: -1721.598817473374311   dF: -2.063e-04   |Residual|: 1.428e-03   |deigs|: 9.094e-05  t[s]:  31594.10
	FillingsUpdate:  mu: +0.511461524  nElectrons: 426.000000
SCF: Cycle:  3   F: -1721.598822009566902   dF: -4.536e-06   |Residual|: 1.101e-03   |deigs|: 2.840e-05  t[s]:  31681.77
	FillingsUpdate:  mu: +0.511462339  nElectrons: 426.000000
SCF: Cycle:  4   F: -1721.598824747988147   dF: -2.738e-06   |Residual|: 5.461e-04   |deigs|: 2.005e-05  t[s]:  31770.04
	FillingsUpdate:  mu: +0.511462311  nElectrons: 426.000000
SCF: Cycle:  5   F: -1721.598825779537719   dF: -1.032e-06   |Residual|: 1.486e-04   |deigs|: 8.529e-06  t[s]:  31859.60
	FillingsUpdate:  mu: +0.511462627  nElectrons: 426.000000
SCF: Cycle:  6   F: -1721.598825736081380   dF: +4.346e-08   |Residual|: 1.382e-04   |deigs|: 3.360e-06  t[s]:  31949.12
	FillingsUpdate:  mu: +0.511462617  nElectrons: 426.000000
SCF: Cycle:  7   F: -1721.598825812322502   dF: -7.624e-08   |Residual|: 3.038e-05   |deigs|: 2.242e-06  t[s]:  32034.60
	FillingsUpdate:  mu: +0.511462602  nElectrons: 426.000000
SCF: Cycle:  8   F: -1721.598825814647626   dF: -2.325e-09   |Residual|: 1.616e-05   |deigs|: 3.797e-07  t[s]:  32120.99
	FillingsUpdate:  mu: +0.511462601  nElectrons: 426.000000
SCF: Cycle:  9   F: -1721.598825815172177   dF: -5.246e-10   |Residual|: 1.123e-05   |deigs|: 2.618e-07  t[s]:  32209.32
SCF: Converged (|Delta E|<1.000000e-08 for 2 iters).

Setting wave functions to eigenvectors of Hamiltonian

# Ionic positions in lattice coordinates:
ion Ir   0.248164549278283   0.251380095583745   0.249503950360823 1
ion Ir  -0.001714077683508  -0.000826975837893   0.000188992381582 1
ion Ir   0.248404015103567   0.253197048024146   0.746153131339388 1
ion Ir  -0.001773468024522  -0.000075579927362   0.498837395681357 1
ion Ir   0.248298417607214   0.748869247076463   0.250471542752397 1
ion Ir  -0.001742078738150   0.500492385809064  -0.000613601367434 1
ion Ir   0.248292314120273   0.749926152055034   0.747908749912537 1
ion Ir  -0.012832260821680   0.505355698450728   0.494037628156200 1
ion Ir   0.748275032670604   0.249914856708831   0.248170268004722 1
ion Ir   0.498270600465979  -0.000839547640514   0.000185560647367 1
ion Ir   0.748316034309967   0.251356963925909   0.748036617054948 1
ion Ir   0.498231736888054  -0.000053976827478   0.498878562195865 1
ion Ir   0.748176613509587   0.735885602049196   0.263417769519597 1
ion Ir   0.498233410400623   0.500538288472044  -0.000533296562775 1
ion Ir   0.748470354910096   0.751198346599228   0.749443063342292 1
ion Ir   0.509537857819613   0.505373824097193   0.493977387153582 1
ion O  -0.004867949831810   0.349328251385811   0.342256313226758 1
ion O   0.248256646142580   0.403898785676229   0.093738555607121 1
ion O  -0.000861659528189   0.153814470009740   0.154000077702680 1
ion O   0.248336843916233   0.095005943652056   0.402149535628543 1
ion O  -0.001601090212358   0.347834450784459   0.843183728055439 1
ion O   0.248341422283024   0.407525408480925   0.592635378162855 1
ion O  -0.001610808181288   0.156599810035573   0.650999724184883 1
ion O   0.248274866937832   0.096821617761686   0.902009971870738 1
ion O  -0.002672528027991   0.840174287800314   0.350174024580552 1
ion O   0.248233008149588   0.903915763784810   0.095815812353135 1
ion O  -0.002665336845878   0.649456734811383   0.158876052905646 1
ion O   0.248307470600706   0.596351581759245   0.402785262211632 1
ion O  -0.000938103642696   0.844984940680307   0.845823145681775 1
ion O   0.248310611280723   0.905976215696061   0.595718141674218 1
ion O  -0.004946913803375   0.657500457307906   0.649662485231945 1
ion O   0.248308100765754   0.596875039708572   0.904042985378940 1
ion O   0.501697874146665   0.349433588037443   0.342323365320876 1
ion O   0.748292395857478   0.403664732141305   0.093942819602137 1
ion O   0.497602279429649   0.153853454991891   0.154070142242994 1
ion O   0.748276945722482   0.095176782009476   0.402574525567668 1
ion O   0.498143481264420   0.347848739347895   0.843163096239848 1
ion O   0.748359610090886   0.407989025614021   0.591943196100960 1
ion O   0.498165135168746   0.156613471144630   0.650994648226772 1
ion O   0.748247239673497   0.095875053533347   0.903216423046433 1
ion O   0.499078826672329   0.840103288503524   0.350255849320694 1
ion O   0.748216887748834   0.901817335338035   0.097884006024892 1
ion O   0.499052899544387   0.649421498797655   0.158933218476900 1
ion O   0.497547637022962   0.845060938609008   0.845908187947825 1
ion O   0.748324913744172   0.905866790318813   0.596034044362551 1
ion O   0.501595755677740   0.657586792018122   0.649646903846295 1
ion O   0.748214486416899   0.596482321641423   0.903894658643847 1

# Forces in Lattice coordinates:
force Ir   0.014041413316304   0.001810929848934  -0.001487286289109 1
force Ir   0.001557974630324  -0.000378717399093  -0.003941377927686 1
force Ir  -0.008320102810585  -0.003744690731895  -0.001845544949288 1
force Ir  -0.004381460513520  -0.003270665247763  -0.000676710227131 1
force Ir  -0.006776736935502   0.005820915409986  -0.002408589185130 1
force Ir  -0.007767154278775  -0.002414172801338   0.008938284072222 1
force Ir   0.005056740099178   0.000193088480062   0.006280028701431 1
force Ir   0.002500702420414   0.002421406252229  -0.003326431095820 1
force Ir   0.004238695893897  -0.004003098562138   0.004395535892799 1
force Ir  -0.002725035647166   0.004943439638800   0.001273689029947 1
force Ir  -0.000826502728724  -0.002727842730922  -0.004288893130140 1
force Ir   0.011888413008020  -0.006450546603002  -0.002925156938374 1
force Ir   0.003066327989923   0.005167633043297  -0.001116416942119 1
force Ir   0.008907445135830  -0.008067134962848   0.002357320781236 1
force Ir  -0.012447825244176   0.000988301374738   0.005881664471535 1
force Ir  -0.001805034283839   0.008725213353545   0.004201201352636 1
force O  -0.005659449080922   0.004093495031540   0.001176997365258 1
force O  -0.001537965780746  -0.000261751106741  -0.000054610954114 1
force O  -0.005270172853722   0.000550014735851   0.003168873691871 1
force O  -0.003967788646059   0.000915324368776  -0.001296618631927 1
force O   0.002545803799688   0.001603980694715  -0.001679873464378 1
force O   0.000338278779505  -0.003100430616329  -0.000044669055524 1
force O   0.002637027508167   0.003103383283654   0.004147486121636 1
force O   0.000696522817062  -0.000458063307826   0.004083412430236 1
force O   0.001865435318502   0.000275784881071   0.000664922433513 1
force O   0.001321414222206  -0.004365480116539   0.001536668208483 1
force O   0.001904101469676  -0.002495140062299  -0.000108378276714 1
force O   0.000044691075148  -0.006921549225932   0.005527813647282 1
force O   0.000697371127978   0.001965099910138   0.001693183080771 1
force O  -0.003272610018169  -0.002346270419608   0.001537127511793 1
force O   0.000028130570372  -0.002243254932424  -0.002992340909858 1
force O  -0.002185371444055   0.006235587722601  -0.003553457384579 1
force O  -0.004837548073684  -0.003885701097360  -0.006721615574347 1
force O  -0.001326104269324   0.007087290240306  -0.006349736896619 1
force O  -0.004704689234647  -0.001824567167715  -0.000006912293417 1
force O  -0.001631530886835   0.000432612999288   0.000956823960964 1
force O   0.000816129306021   0.004444237911143   0.002050673926849 1
force O  -0.001270897709943  -0.005421865129267   0.001314569774793 1
force O   0.000437133983373   0.002996683668392   0.004143198119847 1
force O   0.000775845904626   0.000594309955583  -0.000705682353611 1
force O  -0.000712297720008   0.003471531684151   0.001003146122661 1
force O   0.000708392716963   0.001110943414735  -0.002057535817530 1
force O   0.000114151623115  -0.001694268126174  -0.000306817789086 1
force O   0.001025557835864  -0.005825290488741  -0.006880757844848 1
force O  -0.001434689860964  -0.000170460896978  -0.003982606843195 1
force O   0.002107926514817  -0.004045590773003  -0.003500073463285 1
force O   0.001714472930069   0.000867158786779  -0.001111763338802 1

# Energy components:
   Eewald =    -1388.8580955837248894
       EH =      344.9336122252502719
     Eloc =    -1076.5845304274378122
      Enl =       81.2342781167309624
      Exc =     -511.7570995979831423
 Exc_core =      230.4351499419069000
       KE =      599.1819539680222988
-------------------------------------
     Etot =    -1721.4147313572357234
       TS =        0.1840944579363589
-------------------------------------
        F =    -1721.5988258151721766

IonicMinimize: Iter:  18  F: -1721.598825815172177  |grad|_K:  2.861e-04  alpha:  1.000e+00  linmin:  1.905e-01  t[s]:  32229.75

#--- Lowdin population analysis ---
# oxidation-state Ir +0.528 +0.536 +0.539 +0.533 +0.534 +0.533 +0.528 +0.398 +0.535 +0.536 +0.522 +0.533 +0.370 +0.533 +0.535 +0.398
# oxidation-state O -0.228 -0.236 -0.236 -0.239 -0.238 -0.227 -0.238 -0.245 -0.223 -0.237 -0.223 -0.243 -0.237 -0.235 -0.228 -0.239 -0.228 -0.235 -0.237 -0.238 -0.238 -0.201 -0.238 -0.240 -0.223 -0.244 -0.223 -0.237 -0.235 -0.229 -0.238


-------- Electronic minimization -----------
Will mix electronic density at each iteration.
	FillingsUpdate:  mu: +0.511462601  nElectrons: 426.000000
	FillingsUpdate:  mu: +0.511462439  nElectrons: 426.000000
SCF: Cycle:  0   F: -1721.598798153160260   dF: +2.905e-05   |Residual|: 2.538e-03   |deigs|: 6.816e-07  t[s]:  32377.38
	FillingsUpdate:  mu: +0.511462867  nElectrons: 426.000000
SCF: Cycle:  1   F: -1721.598750162723036   dF: +4.799e-05   |Residual|: 4.323e-03   |deigs|: 7.003e-05  t[s]:  32463.69
	FillingsUpdate:  mu: +0.511462284  nElectrons: 426.000000
SCF: Cycle:  2   F: -1721.598833454503165   dF: -8.329e-05   |Residual|: 7.228e-04   |deigs|: 5.620e-05  t[s]:  32550.85
	FillingsUpdate:  mu: +0.511462497  nElectrons: 426.000000
SCF: Cycle:  3   F: -1721.598834989351644   dF: -1.535e-06   |Residual|: 4.038e-04   |deigs|: 1.246e-05  t[s]:  32634.25
	FillingsUpdate:  mu: +0.511462314  nElectrons: 426.000000
SCF: Cycle:  4   F: -1721.598835237992944   dF: -2.486e-07   |Residual|: 2.799e-04   |deigs|: 8.193e-06  t[s]:  32722.51
	FillingsUpdate:  mu: +0.511462387  nElectrons: 426.000000
SCF: Cycle:  5   F: -1721.598835511646712   dF: -2.737e-07   |Residual|: 6.884e-05   |deigs|: 3.930e-06  t[s]:  32807.44
	FillingsUpdate:  mu: +0.511462360  nElectrons: 426.000000
SCF: Cycle:  6   F: -1721.598835503239798   dF: +8.407e-09   |Residual|: 6.460e-05   |deigs|: 1.056e-06  t[s]:  32898.15
	FillingsUpdate:  mu: +0.511462382  nElectrons: 426.000000
SCF: Cycle:  7   F: -1721.598835517307862   dF: -1.407e-08   |Residual|: 1.790e-05   |deigs|: 7.818e-07  t[s]:  32984.64
	FillingsUpdate:  mu: +0.511462372  nElectrons: 426.000000
SCF: Cycle:  8   F: -1721.598835517877660   dF: -5.698e-10   |Residual|: 8.568e-06   |deigs|: 1.481e-07  t[s]:  33069.52
	FillingsUpdate:  mu: +0.511462369  nElectrons: 426.000000
SCF: Cycle:  9   F: -1721.598835517882208   dF: -4.547e-12   |Residual|: 5.741e-06   |deigs|: 1.103e-07  t[s]:  33153.25
SCF: Converged (|Delta E|<1.000000e-08 for 2 iters).

Setting wave functions to eigenvectors of Hamiltonian

# Ionic positions in lattice coordinates:
ion Ir   0.248301949112127   0.251388653106188   0.249490673044476 1
ion Ir  -0.001692174542113  -0.000837591599091   0.000163638286521 1
ion Ir   0.248320127746221   0.253179002368306   0.746138313821301 1
ion Ir  -0.001824330107193  -0.000088338080340   0.498825140841235 1
ion Ir   0.248217093755059   0.748892602685364   0.250468369591745 1
ion Ir  -0.001817483900223   0.500492549760944  -0.000574832678626 1
ion Ir   0.248352949054384   0.749942583910284   0.747933355242333 1
ion Ir  -0.012782076547695   0.505365438370042   0.494038162675974 1
ion Ir   0.748320972935339   0.249894327266173   0.248188031651480 1
ion Ir   0.498244168182325  -0.000816444101202   0.000192885115737 1
ion Ir   0.748305024912055   0.251346102412176   0.748011264006441 1
ion Ir   0.498344169130950  -0.000087696654407   0.498851424335624 1
ion Ir   0.748190884466828   0.735899388245891   0.263426283190804 1
ion Ir   0.498317748275231   0.500502593655005  -0.000524507368461 1
ion Ir   0.748354062997979   0.751210586762443   0.749468599987694 1
ion Ir   0.509531505458428   0.505431545113989   0.493997647447108 1
ion O  -0.004917205008727   0.349365531139038   0.342259367491836 1
ion O   0.248241114012186   0.403878956939144   0.093720248378081 1
ion O  -0.000905815809009   0.153802978887982   0.154038360811158 1
ion O   0.248296854512754   0.095015506438024   0.402152494613170 1
ion O  -0.001574869227181   0.347865516230327   0.843133884686423 1
ion O   0.248376171725697   0.407512371087303   0.592635881107428 1
ion O  -0.001579413696457   0.156622506770875   0.651006373450733 1
ion O   0.248289306069773   0.096815954329543   0.902036352187247 1
ion O  -0.002665556074316   0.840166646394383   0.350194123453178 1
ion O   0.248246684836011   0.903873903843036   0.095821565124485 1
ion O  -0.002652002357289   0.649409201586918   0.158904752546397 1
ion O   0.248306812556610   0.596321137124802   0.402829850734646 1
ion O  -0.000927433862754   0.845013963095404   0.845821065635253 1
ion O   0.248290006140156   0.905968197112704   0.595711376167508 1
ion O  -0.004935659949138   0.657492426425677   0.649662726919969 1
ion O   0.248291652132652   0.596924836154526   0.904026536969508 1
ion O   0.501657120591749   0.349426494699847   0.342277273442609 1
ion O   0.748287099036023   0.403672064689308   0.093872299652688 1
ion O   0.497563442274350   0.153832246636042   0.154093319154558 1
ion O   0.748259935515872   0.095193472043713   0.402588775502933 1
ion O   0.498156038250773   0.347885197154391   0.843149102324294 1
ion O   0.748357871906012   0.407952149278308   0.591944353658820 1
ion O   0.498183315589140   0.156626272853420   0.651010536713861 1
ion O   0.748250207792595   0.095896032901116   0.903244382878187 1
ion O   0.499066247138298   0.840120914298808   0.350266339152407 1
ion O   0.748215288601049   0.901785217217117   0.097863668317052 1
ion O   0.499044034611176   0.649385581182858   0.158957792437184 1
ion O   0.497564051782772   0.845054653482954   0.845859716347573 1
ion O   0.748320295668746   0.905870951183108   0.596010861192445 1
ion O   0.501615963388046   0.657565888868263   0.649628213663433 1
ion O   0.748223850922729   0.596517926729298   0.903903956093551 1

# Forces in Lattice coordinates:
force Ir   0.002087974964141   0.000869838825330  -0.000173058510921 1
force Ir  -0.000389132342795   0.000536554607497   0.000741238168173 1
force Ir  -0.000916199051328  -0.001215290555680   0.000979864777846 1
force Ir   0.000719216346226  -0.000577805455492   0.001083505803646 1
force Ir  -0.000627115039365   0.000549948759767   0.000182175882767 1
force Ir  -0.000578542859166  -0.000954955659984   0.001752394831170 1
force Ir  -0.001118867754056  -0.001002133183192   0.002072390792151 1
force Ir  -0.000421964432819   0.000198203768753  -0.000556333100253 1
force Ir   0.000784883387273  -0.000629647860101   0.001206673093505 1
force Ir  -0.000239431935560   0.000984932163852   0.001038020360639 1
force Ir  -0.000555792778727  -0.000770112054563  -0.000473259075013 1
force Ir   0.001544971340438  -0.001118273105839   0.000140554881823 1
force Ir   0.000606663088159   0.003841603291889  -0.002150489101446 1
force Ir   0.000862692311677  -0.002223167026436  -0.000757928388358 1
force Ir  -0.002284468068228  -0.000064345326421   0.001607874597149 1
force Ir  -0.000515698600470   0.000615943403046   0.000797004779253 1
force O  -0.001700924842802   0.002136669263225  -0.000649451630365 1
force O   0.000081895900504   0.000007212900310  -0.000458790465543 1
force O  -0.001397854812339  -0.000492874540601   0.001663811073165 1
force O  -0.000881889030113  -0.000186468046835  -0.000757705844739 1
force O  -0.000050047957327   0.001822262549976   0.000120311961727 1
force O  -0.000617860408623  -0.003137775218877  -0.000117004815302 1
force O   0.000060307804347  -0.000237224061435   0.001752635195822 1
force O  -0.000524912193870   0.001201393586158   0.002328880061977 1
force O   0.000281402605326   0.000633379414462  -0.000177087605557 1
force O   0.000058127941562  -0.001682103916609  -0.000929876615470 1
force O   0.000044432033684  -0.000641743368553   0.000910674567861 1
force O  -0.000239143918570  -0.001990151009490   0.001381429059384 1
force O   0.000039273099943   0.000594743816827   0.000424647305209 1
force O  -0.000979755703519  -0.001642993208255   0.000809890367361 1
force O  -0.000544607409607   0.000142085256449  -0.000249129969103 1
force O  -0.000649476058180   0.001351207767687   0.001799917797016 1
force O  -0.001526621350400  -0.000270698726135  -0.003089961205069 1
force O  -0.000645089943401   0.001288948267421  -0.000176367800220 1
force O  -0.001385428883617  -0.002165009330988  -0.000707209224415 1
force O  -0.000064777656112  -0.000041560831582   0.000446000944972 1
force O  -0.000139522252984   0.001448920484486   0.000114614327249 1
force O  -0.000913326884785  -0.002266406692868  -0.001396198287666 1
force O  -0.000573589084923  -0.000053176461442   0.001975053046938 1
force O   0.000575784428388   0.001152187399994  -0.001891868079008 1
force O  -0.000392003883129   0.001604281249455  -0.001371835106886 1
force O   0.000763336988376   0.001979846169494  -0.002587855786029 1
force O   0.000164351527547  -0.000481014292435   0.000117419362787 1
force O  -0.000167345678636  -0.001406453182232  -0.002169043307862 1
force O  -0.001192328071279  -0.002373636630655  -0.001702394137974 1
force O   0.000904174341495  -0.001032696866693  -0.000396449742648 1
force O   0.000841379953231  -0.000608858442554   0.000603411041566 1

# Energy components:
   Eewald =    -1388.8589019189778355
       EH =      344.9329561054137230
     Eloc =    -1076.5829654330568701
      Enl =       81.2342307284538236
      Exc =     -511.7570506626000224
 Exc_core =      230.4351499193141990
       KE =      599.1818413443959344
-------------------------------------
     Etot =    -1721.4147399170572044
       TS =        0.1840956008249633
-------------------------------------
        F =    -1721.5988355178822076

IonicMinimize: Iter:  19  F: -1721.598835517882208  |grad|_K:  7.620e-05  alpha:  1.000e+00  linmin: -5.411e-01  t[s]:  33172.98
IonicMinimize: Converged (|grad|_K<1.000000e-04).

#--- Lowdin population analysis ---
# oxidation-state Ir +0.528 +0.536 +0.539 +0.533 +0.534 +0.533 +0.528 +0.398 +0.535 +0.536 +0.522 +0.533 +0.370 +0.533 +0.535 +0.398
# oxidation-state O -0.228 -0.236 -0.237 -0.239 -0.238 -0.227 -0.238 -0.245 -0.223 -0.237 -0.223 -0.242 -0.237 -0.236 -0.228 -0.239 -0.228 -0.235 -0.237 -0.238 -0.238 -0.201 -0.238 -0.240 -0.223 -0.245 -0.223 -0.237 -0.235 -0.228 -0.238


Dumping 'IrO2_vac.Ecomponents' ... done
End date and time: Mon Jun 17 13:35:30 2024  (Duration: 0-9:13:07.87)
Done!
