--------------------------------------------------------------------------
Initialization of PSM library failed.

  Error: PSM is in the finalized state
--------------------------------------------------------------------------

*************** JDFTx 1.7.0 (git hash 3664913) ***************

Start date and time: Mon Jul  1 13:02:54 2024
Executable jdftx with command-line: -i Mn_ion.in
Running on hosts (process indices):  node3003.physics.cornell.edu (0-15)
Divided in process groups (process indices):  0 (0)  1 (1)  2 (2)  3 (3)  4 (4)  5 (5)  6 (6)  7 (7)  8 (8)  9 (9)  10 (10)  11 (11)  12 (12)  13 (13)  14 (14)  15 (15)
Resource initialization completed at t[s]:      0.01
Run totals: 16 processes, 16 threads, 0 GPUs


Input parsed successfully to the following command list (including defaults):

basis kpoint-dependent
coords-type Lattice
core-overlap-check vector
coulomb-interaction Periodic
davidson-band-ratio 1.1
dump End Ecomponents
dump-name /data/rc652/Mn/ion/Mn_ion.$VAR
elec-cutoff 20 100
elec-eigen-algo Davidson
elec-ex-corr gga-PBEsol
elec-smearing Fermi 0.01
electronic-minimize  \
	dirUpdateScheme      FletcherReeves \
	linminMethod         DirUpdateRecommended \
	nIterations          100 \
	history              15 \
	knormThreshold       0 \
	maxThreshold         no \
	energyDiffThreshold  1e-08 \
	nEnergyDiff          2 \
	alphaTstart          1 \
	alphaTmin            1e-10 \
	updateTestStepSize   yes \
	alphaTreduceFactor   0.1 \
	alphaTincreaseFactor 3 \
	nAlphaAdjustMax      3 \
	wolfeEnergy          0.0001 \
	wolfeGradient        0.9 \
	fdTest               no
electronic-scf  \
	nIterations	50 \
	energyDiffThreshold	1e-08 \
	residualThreshold	1e-07 \
	mixFraction	0.5 \
	qMetric	0.8 \
	history	10 \
	nEigSteps	2 \
	eigDiffThreshold	1e-08 \
	mixedVariable	Density \
	qKerker	0.8 \
	qKappa	-1 \
	verbose	no \
	mixFractionMag	1.5
exchange-regularization WignerSeitzTruncated
fluid None
fluid-ex-corr lda-TF lda-PZ
fluid-gummel-loop 10 1.000000e-05
fluid-minimize  \
	dirUpdateScheme      PolakRibiere \
	linminMethod         DirUpdateRecommended \
	nIterations          100 \
	history              15 \
	knormThreshold       0 \
	maxThreshold         no \
	energyDiffThreshold  0 \
	nEnergyDiff          2 \
	alphaTstart          1 \
	alphaTmin            1e-10 \
	updateTestStepSize   yes \
	alphaTreduceFactor   0.1 \
	alphaTincreaseFactor 3 \
	nAlphaAdjustMax      3 \
	wolfeEnergy          0.0001 \
	wolfeGradient        0.9 \
	fdTest               no
fluid-solvent H2O 55.338 ScalarEOS \
	epsBulk 78.4 \
	pMol 0.92466 \
	epsInf 1.77 \
	Pvap 1.06736e-10 \
	sigmaBulk 4.62e-05 \
	Rvdw 2.61727 \
	Res 1.42 \
	tauNuc 343133 \
	poleEl 15 7 1
forces-output-coords Positions
ion Mn   0.005000000000000   0.000000000000000   0.000000000000000 0
ion Mn   0.313927009428027   0.313557584850854   0.325442113550593 1
ion Mn   0.177039973013248   0.175468833912003   0.825002184251527 1
ion Mn   0.813887060216072   0.175680491152635   0.186913823648012 1
ion Mn   0.176787988095578   0.813288809765489   0.186867709497101 1
ion Mn   0.352302961508093   0.035331637797193   0.363179835830408 1
ion Mn   0.138742168339726   0.454623631734330   0.863104759479209 1
ion Mn   0.851829652998903   0.458711253108418   0.148935546742483 1
ion Mn   0.138875577914632   0.851262073317484   0.465852117530993 1
ion Mn   0.138826993318479   0.137993109152441   0.546065706481577 1
ion Mn   0.536736101495897   0.137237321882377   0.148889366434076 1
ion Mn   0.459725307162755   0.851257255131374   0.148833952176774 1
ion Mn   0.460352798474023   0.137113175493468   0.863432880648975 1
ion Mn   0.851939810636454   0.138027883188113   0.466486986198037 1
ion Mn   0.354033196532024   0.351062368880329   0.044939285842428 1
ion Mn   0.035454897807157   0.352041458072537   0.363023161944761 1
ion Mn   0.138888951423018   0.534396141982140   0.149107416652243 1
ion Mn   0.086784270636771   0.276968443984591   0.097158612581735 1
ion Mn   0.909782636364814   0.713373223856980   0.097191026205174 1
ion Mn   0.087045172333557   0.712813037444935   0.915449613998863 1
ion Mn   0.909240823560440   0.084932151183295   0.723871892911566 1
ion Mn   0.409579838008698   0.403427990939101   0.787370665846826 1
ion Mn   0.777398308942764   0.408920539306972   0.415381784129957 1
ion Mn   0.714921058496849   0.084654351757508   0.915537082943353 1
ion Mn   0.714566613843739   0.902564508839475   0.096375168909804 1
ion Mn   0.086859940236711   0.902365355328684   0.723384893377767 1
ion Mn   0.087034657242205   0.086319956758499   0.287935029986144 1
ion Mn   0.278700363414705   0.085900138444289   0.096889738841951 1
ion Mn   0.408876398475342   0.776753817440063   0.415250044590942 1
ion Mn   0.498773285123126   0.498123016564098   0.503090411317028 1
ion Mn   0.814203156134135   0.813386708776234   0.824860328464143 1
ion Mn   0.676535802908242   0.675633304001670   0.324876335774579 1
ion Mn   0.316121699342792   0.675544162112151   0.687242695682984 1
ion Mn   0.682499926328004   0.313300738774800   0.687096132828158 1
ion Mn   0.856571737207294   0.535480866803110   0.863119508705922 1
ion Mn   0.638289626416181   0.958354410693384   0.362741158549741 1
ion Mn   0.351776549804715   0.959159059253592   0.649090287351679 1
ion Mn   0.638514486981297   0.351022492413913   0.965398559910949 1
ion Mn   0.638633696529059   0.637341943046333   0.042414021382934 1
ion Mn   0.036425828292925   0.637618137402589   0.648975531535985 1
ion Mn   0.959912908165010   0.351299790210613   0.648663592305260 1
ion Mn   0.960059913512410   0.637622550812421   0.363048893662215 1
ion Mn   0.351677915562963   0.637504398049062   0.966175385132681 1
ion Mn   0.852079651473101   0.851261185825718   0.541335758894750 1
ion Mn   0.535938168059180   0.851262417704681   0.862833945538385 1
ion Mn   0.638711414333442   0.035224068561563   0.649222339883837 1
ion Mn   0.586834755756359   0.777060939751040   0.596849575515557 1
ion Mn   0.409535179487013   0.213739408403139   0.597203210784501 1
ion Mn   0.586930137303031   0.213496207625544   0.415586845461435 1
ion Mn   0.409195870940384   0.585561968964977   0.223690291585214 1
ion Mn   0.909529395996386   0.907855300275942   0.287179668101098 1
ion Mn   0.277674117520423   0.906368196558787   0.914899784524553 1
ion Mn   0.214493415993823   0.586113258801447   0.414701589234136 1
ion Mn   0.213662060293761   0.407798250942125   0.596622432572533 1
ion Mn   0.586947370429414   0.403502642536245   0.223879870888652 1
ion Mn   0.587021790240216   0.584953515463349   0.787621006817286 1
ion Mn   0.777946287124302   0.586597028562805   0.597367542633144 1
ion Mn   0.909028560049389   0.276050674871631   0.915395360292015 1
ion-species GBRV/$ID_pbesol.uspp
ion-width 0
ionic-minimize  \
	dirUpdateScheme      L-BFGS \
	linminMethod         DirUpdateRecommended \
	nIterations          30 \
	history              15 \
	knormThreshold       0.0001 \
	maxThreshold         no \
	energyDiffThreshold  1e-06 \
	nEnergyDiff          2 \
	alphaTstart          1 \
	alphaTmin            1e-10 \
	updateTestStepSize   yes \
	alphaTreduceFactor   0.1 \
	alphaTincreaseFactor 3 \
	nAlphaAdjustMax      3 \
	wolfeEnergy          0.0001 \
	wolfeGradient        0.9 \
	fdTest               no
kpoint   0.500000000000   0.500000000000   0.500000000000  1.00000000000000
kpoint-folding 4 4 4 
latt-move-scale 1 1 1
latt-scale 1 1 1 
lattice  \
	  16.046707305076136   -0.000000000000000   -0.000000000000000  \
	  -0.000000000000000   16.046707305076136    0.000000000000000  \
	  -0.000000000000000    0.000000000000000   16.046707305076136 
lattice-minimize  \
	dirUpdateScheme      L-BFGS \
	linminMethod         DirUpdateRecommended \
	nIterations          0 \
	history              15 \
	knormThreshold       0 \
	maxThreshold         no \
	energyDiffThreshold  1e-06 \
	nEnergyDiff          2 \
	alphaTstart          1 \
	alphaTmin            1e-10 \
	updateTestStepSize   yes \
	alphaTreduceFactor   0.1 \
	alphaTincreaseFactor 3 \
	nAlphaAdjustMax      3 \
	wolfeEnergy          0.0001 \
	wolfeGradient        0.9 \
	fdTest               no
lcao-params -1 1e-06 0.01
pcm-variant GLSSA13
perturb-minimize  \
	nIterations            0 \
	algorithm              MINRES \
	residualTol            0.0001 \
	residualDiffThreshold  0.0001 \
	CGBypass               no \
	recomputeResidual      no
spintype no-spin
subspace-rotation-factor 1 yes
symmetries automatic
symmetry-threshold 0.0001



---------- Setting up symmetries ----------

Found 48 point-group symmetries of the bravais lattice
Found 1 space-group symmetries with basis
Applied RMS atom displacement 0 bohrs to make symmetries exact.

---------- Initializing the Grid ----------
R = 
[      16.0467            0            0  ]
[            0      16.0467            0  ]
[            0            0      16.0467  ]
unit cell volume = 4131.98
G =
[   0.391556          0          0  ]
[          0   0.391556          0  ]
[          0          0   0.391556  ]
Minimum fftbox size, Smin = [  76  76  76  ]
Chosen fftbox size, S = [  80  80  80  ]

---------- Initializing tighter grid for wavefunction operations ----------
R = 
[      16.0467            0            0  ]
[            0      16.0467            0  ]
[            0            0      16.0467  ]
unit cell volume = 4131.98
G =
[   0.391556          0          0  ]
[          0   0.391556          0  ]
[          0          0   0.391556  ]
Minimum fftbox size, Smin = [  68  68  68  ]
Chosen fftbox size, S = [  70  70  70  ]

---------- Exchange Correlation functional ----------
Initalized PBEsol GGA exchange.
Initalized PBEsol GGA correlation.

---------- Setting up pseudopotentials ----------
Width of ionic core gaussian charges (only for fluid interactions / plotting) set to 0

Reading pseudopotential file '/home/rc652/build/pseudopotentials/GBRV/mn_pbesol.uspp':
  Title: Mn.  Created by USPP 7.3.6 on 22-9-15
  Reference state energy: -105.045521.  15 valence electrons in orbitals:
    |300>  occupation: 2  eigenvalue: -3.291699
    |310>  occupation: 6  eigenvalue: -2.146878
    |400>  occupation: 1.5  eigenvalue: -0.308679
    |320>  occupation: 5  eigenvalue: -0.392872
    |410>  occupation: 0  eigenvalue: -0.151407
  lMax: 2  lLocal: 3  QijEcut: 6
  6 projectors sampled on a log grid with 585 points:
    l: 0  eig: -3.291699  rCut: 1.45
    l: 0  eig: -0.308679  rCut: 1.45
    l: 1  eig: -2.146878  rCut: 1.45
    l: 1  eig: -0.151407  rCut: 1.45
    l: 2  eig: -0.392872  rCut: 1.7
    l: 2  eig: 0.500000  rCut: 1.7
  Partial core density with radius 0.65
  Transforming core density to a uniform radial grid of dG=0.02 with 1362 points.
  Transforming local potential to a uniform radial grid of dG=0.02 with 1362 points.
  Transforming nonlocal projectors to a uniform radial grid of dG=0.02 with 432 points.
  Transforming density augmentations to a uniform radial grid of dG=0.02 with 1362 points.
  Transforming atomic orbitals to a uniform radial grid of dG=0.02 with 432 points.
  Core radius for overlap checks: 1.70 bohrs.

Initialized 1 species with 58 total atoms.

Folded 1 k-points by 4x4x4 to 64 k-points.

---------- Setting up k-points, bands, fillings ----------
Adding inversion symmetry to k-mesh for non-inversion-symmetric unit cell.
Reduced to 32 k-points under symmetry. 
Computing the number of bands and number of electrons
Calculating initial fillings.
nElectrons: 870.000000   nBands: 754   nStates: 32

----- Setting up reduced wavefunction bases (one per k-point) -----
average nbasis = 17652.875 , ideal nbasis = 17652.116

---------- Setting up ewald sum ----------
Optimum gaussian width for ewald sums = 3.253804 bohr.
Real space sum over 343 unit cells with max indices [  3  3  3  ]
Reciprocal space sum over 6859 terms with max indices [  9  9  9  ]

---------- Allocating electronic variables ----------
Initializing wave functions:  linear combination of atomic orbitals
Mn pseudo-atom occupations:   s ( 2 0 )  p ( 6 0 )  d ( 7 )
	FillingsUpdate:  mu: +0.360049855  nElectrons: 870.000000
LCAOMinimize: Iter:   0  F: -6010.1132397378933092  |grad|_K:  3.077e-03  alpha:  1.000e+00
	FillingsUpdate:  mu: +0.451952297  nElectrons: 870.000000
LCAOMinimize: Iter:   1  F: -6024.0695775228195998  |grad|_K:  7.895e-03  alpha:  3.519e-01  linmin:  6.525e-02  cgtest: -1.359e-01  t[s]:    276.80
LCAOMinimize: 	Step increased F by 1.536074e+01, reducing alpha to 4.103066e-03.
	FillingsUpdate:  mu: +0.469963770  nElectrons: 870.000000
LCAOMinimize: Iter:   2  F: -6024.6498176538907501  |grad|_K:  7.926e-03  alpha:  4.103e-03  linmin: -6.449e-03  cgtest:  1.010e+00  t[s]:    455.14
LCAOMinimize: Encountered beta<0, resetting CG.
LCAOMinimize: 	Predicted alpha/alphaT>3.000000, increasing alphaT to 1.230920e-02.
LCAOMinimize: 	Predicted alpha/alphaT>3.000000, increasing alphaT to 3.692759e-02.
	FillingsUpdate:  mu: +0.741172032  nElectrons: 870.000000
LCAOMinimize: Iter:   3  F: -6046.9701176993694389  |grad|_K:  4.973e-03  alpha:  5.859e-02  linmin:  3.459e-01  cgtest: -8.215e-01  t[s]:    609.89
LCAOMinimize: 	Bad step direction: g.d > 0.
LCAOMinimize: 	Undoing step.
LCAOMinimize: 	Step failed: resetting search direction.
	FillingsUpdate:  mu: +0.741172032  nElectrons: 870.000000
LCAOMinimize: Iter:   4  F: -6046.9701176993694389  |grad|_K:  4.973e-03  alpha:  0.000e+00
	FillingsUpdate:  mu: +0.677445506  nElectrons: 870.000000
LCAOMinimize: Iter:   5  F: -6055.6991495909160221  |grad|_K:  8.718e-04  alpha:  3.393e-02  linmin: -8.356e-02  cgtest:  8.233e-02  t[s]:    786.38
	FillingsUpdate:  mu: +0.699087014  nElectrons: 870.000000
LCAOMinimize: Iter:   6  F: -6056.2100905047363995  |grad|_K:  1.226e-03  alpha:  7.620e-02  linmin:  1.709e-02  cgtest: -3.565e-02  t[s]:    888.88
	FillingsUpdate:  mu: +0.728592644  nElectrons: 870.000000
LCAOMinimize: Iter:   7  F: -6057.1853822529110403  |grad|_K:  1.258e-03  alpha:  7.852e-02  linmin:  7.566e-03  cgtest:  3.384e-01  t[s]:    990.49
	FillingsUpdate:  mu: +0.768651052  nElectrons: 870.000000
LCAOMinimize: Iter:   8  F: -6057.8366266247821841  |grad|_K:  5.180e-04  alpha:  4.417e-02  linmin: -8.792e-03  cgtest:  1.695e-01  t[s]:   1092.13
	FillingsUpdate:  mu: +0.771719148  nElectrons: 870.000000
LCAOMinimize: Iter:   9  F: -6057.8885556926807112  |grad|_K:  1.354e-04  alpha:  2.091e-02  linmin: -1.029e-03  cgtest: -4.361e-02  t[s]:   1193.85
	FillingsUpdate:  mu: +0.771310137  nElectrons: 870.000000
LCAOMinimize: Iter:  10  F: -6057.8948893238193705  |grad|_K:  3.577e-05  alpha:  3.791e-02  linmin:  3.167e-03  cgtest:  8.493e-04  t[s]:   1295.41
	FillingsUpdate:  mu: +0.771477866  nElectrons: 870.000000
LCAOMinimize: Iter:  11  F: -6057.8953579309272754  |grad|_K:  3.533e-05  alpha:  4.023e-02  linmin:  1.540e-04  cgtest:  2.369e-03  t[s]:   1397.41
LCAOMinimize: 	Predicted alpha/alphaT>3.000000, increasing alphaT to 1.206789e-01.
	FillingsUpdate:  mu: +0.773419538  nElectrons: 870.000000
LCAOMinimize: Iter:  12  F: -6057.8972509556042496  |grad|_K:  4.207e-05  alpha:  1.665e-01  linmin:  2.901e-04  cgtest: -4.086e-03  t[s]:   1525.45
	FillingsUpdate:  mu: +0.774127817  nElectrons: 870.000000
LCAOMinimize: Iter:  13  F: -6057.8977740135705972  |grad|_K:  1.510e-05  alpha:  3.221e-02  linmin: -2.411e-03  cgtest:  3.035e-02  t[s]:   1627.05
	FillingsUpdate:  mu: +0.774139094  nElectrons: 870.000000
LCAOMinimize: Iter:  14  F: -6057.8978377100611397  |grad|_K:  8.746e-06  alpha:  3.040e-02  linmin:  3.223e-05  cgtest: -1.364e-02  t[s]:   1728.59
	FillingsUpdate:  mu: +0.773996014  nElectrons: 870.000000
LCAOMinimize: Iter:  15  F: -6057.8978859090166225  |grad|_K:  9.621e-06  alpha:  6.909e-02  linmin: -3.702e-05  cgtest:  5.463e-03  t[s]:   1830.22
	FillingsUpdate:  mu: +0.773645552  nElectrons: 870.000000
LCAOMinimize: Iter:  16  F: -6057.8980418227974951  |grad|_K:  1.172e-05  alpha:  1.845e-01  linmin: -1.308e-04  cgtest: -5.632e-04  t[s]:   1933.26
	FillingsUpdate:  mu: +0.773639048  nElectrons: 870.000000
LCAOMinimize: Iter:  17  F: -6057.8980889760832724  |grad|_K:  6.137e-06  alpha:  3.763e-02  linmin:  4.769e-05  cgtest: -3.300e-03  t[s]:   2035.04
	FillingsUpdate:  mu: +0.773654448  nElectrons: 870.000000
LCAOMinimize: Iter:  18  F: -6057.8980975612930706  |grad|_K:  1.515e-06  alpha:  2.500e-02  linmin: -2.464e-05  cgtest:  2.036e-03  t[s]:   2136.72
LCAOMinimize: 	Predicted alpha/alphaT>3.000000, increasing alphaT to 7.498903e-02.
	FillingsUpdate:  mu: +0.773654823  nElectrons: 870.000000
LCAOMinimize: Iter:  19  F: -6057.8981007062811841  |grad|_K:  2.792e-06  alpha:  1.502e-01  linmin: -2.598e-05  cgtest:  9.059e-05  t[s]:   2264.75
	FillingsUpdate:  mu: +0.773667579  nElectrons: 870.000000
LCAOMinimize: Iter:  20  F: -6057.8981053927154790  |grad|_K:  2.296e-06  alpha:  6.590e-02  linmin: -1.084e-05  cgtest: -5.677e-04  t[s]:   2366.40
	FillingsUpdate:  mu: +0.773682096  nElectrons: 870.000000
LCAOMinimize: Iter:  21  F: -6057.8981069607161771  |grad|_K:  8.112e-07  alpha:  3.263e-02  linmin:  9.653e-06  cgtest: -1.984e-04  t[s]:   2468.12
	FillingsUpdate:  mu: +0.773688522  nElectrons: 870.000000
LCAOMinimize: Iter:  22  F: -6057.8981071637235800  |grad|_K:  3.370e-07  alpha:  3.385e-02  linmin:  1.854e-03  cgtest: -6.962e-03  t[s]:   2570.18
	FillingsUpdate:  mu: +0.773690597  nElectrons: 870.000000
LCAOMinimize: Iter:  23  F: -6057.8981072119649980  |grad|_K:  3.458e-07  alpha:  4.656e-02  linmin:  2.002e-05  cgtest:  3.537e-03  t[s]:   2671.70
LCAOMinimize: Converged (|Delta F|<1.000000e-06 for 2 iters).


---- Citations for features of the code used in this run ----

   Software package:
      R. Sundararaman, K. Letchworth-Weaver, K.A. Schwarz, D. Gunceler, Y. Ozhabes and T.A. Arias, 'JDFTx: software for joint density-functional theory', SoftwareX 6, 278 (2017)

   gga-PBEsol exchange-correlation functional:
      J.P. Perdew et al., Phys. Rev. Lett. 100, 136406 (2008)

   Pseudopotentials:
      KF Garrity, JW Bennett, KM Rabe and D Vanderbilt, Comput. Mater. Sci. 81, 446 (2014)

This list may not be complete. Please suggest additional citations or
report any other bugs at https://github.com/shankar1729/jdftx/issues

Initialization completed successfully at t[s]:   2711.17


-------- Electronic minimization -----------
Will mix electronic density at each iteration.
	FillingsUpdate:  mu: +0.773690597  nElectrons: 870.000000
	FillingsUpdate:  mu: +0.771485784  nElectrons: 870.000000
SCF: Cycle:  0   F: -6058.387700002492238   dF: -4.896e-01   |Residual|: 6.083e-01   |deigs|: 5.647e-02  t[s]:   3142.56
	FillingsUpdate:  mu: +0.745720892  nElectrons: 870.000000
SCF: Cycle:  1   F: -6058.599490283886553   dF: -2.118e-01   |Residual|: 3.463e-01   |deigs|: 2.423e-02  t[s]:   3505.14
	FillingsUpdate:  mu: +0.754532240  nElectrons: 870.000000
SCF: Cycle:  2   F: -6056.995489795526737   dF: +1.604e+00   |Residual|: 7.633e-01   |deigs|: 7.358e-03  t[s]:   3863.99
	FillingsUpdate:  mu: +0.753648428  nElectrons: 870.000000
SCF: Cycle:  3   F: -6058.677005660909344   dF: -1.682e+00   |Residual|: 1.417e-01   |deigs|: 2.294e-03  t[s]:   4226.01
	FillingsUpdate:  mu: +0.753580885  nElectrons: 870.000000
SCF: Cycle:  4   F: -6058.711557790957158   dF: -3.455e-02   |Residual|: 1.144e-01   |deigs|: 3.808e-04  t[s]:   4438.75
	FillingsUpdate:  mu: +0.753556368  nElectrons: 870.000000
SCF: Cycle:  5   F: -6058.695822201383635   dF: +1.574e-02   |Residual|: 1.343e-01   |deigs|: 3.418e-04  t[s]:   4651.37
	FillingsUpdate:  mu: +0.753508086  nElectrons: 870.000000
SCF: Cycle:  6   F: -6058.749537866595347   dF: -5.372e-02   |Residual|: 1.494e-02   |deigs|: 1.273e-04  t[s]:   4864.28
	FillingsUpdate:  mu: +0.753553141  nElectrons: 870.000000
SCF: Cycle:  7   F: -6058.747424774727733   dF: +2.113e-03   |Residual|: 2.645e-02   |deigs|: 5.827e-05  t[s]:   5078.37
	FillingsUpdate:  mu: +0.753564714  nElectrons: 870.000000
SCF: Cycle:  8   F: -6058.749947560260807   dF: -2.523e-03   |Residual|: 6.305e-03   |deigs|: 3.284e-05  t[s]:   5291.10
	FillingsUpdate:  mu: +0.753562694  nElectrons: 870.000000
SCF: Cycle:  9   F: -6058.750053272598961   dF: -1.057e-04   |Residual|: 3.360e-03   |deigs|: 8.688e-06  t[s]:   5505.10
	FillingsUpdate:  mu: +0.753549431  nElectrons: 870.000000
SCF: Cycle: 10   F: -6058.749976367315867   dF: +7.691e-05   |Residual|: 5.044e-03   |deigs|: 1.313e-05  t[s]:   5717.67
	FillingsUpdate:  mu: +0.753548084  nElectrons: 870.000000
SCF: Cycle: 11   F: -6058.750086507488049   dF: -1.101e-04   |Residual|: 6.267e-04   |deigs|: 6.084e-06  t[s]:   5930.66
	FillingsUpdate:  mu: +0.753546792  nElectrons: 870.000000
SCF: Cycle: 12   F: -6058.750060168262280   dF: +2.634e-05   |Residual|: 2.739e-03   |deigs|: 3.413e-06  t[s]:   6143.77
	FillingsUpdate:  mu: +0.753549785  nElectrons: 870.000000
SCF: Cycle: 13   F: -6058.750086929491772   dF: -2.676e-05   |Residual|: 4.930e-04   |deigs|: 3.793e-06  t[s]:   6356.67
	FillingsUpdate:  mu: +0.753550074  nElectrons: 870.000000
SCF: Cycle: 14   F: -6058.750086458112492   dF: +4.714e-07   |Residual|: 5.941e-04   |deigs|: 1.032e-06  t[s]:   6571.05
	FillingsUpdate:  mu: +0.753549075  nElectrons: 870.000000
SCF: Cycle: 15   F: -6058.750087439023446   dF: -9.809e-07   |Residual|: 2.910e-04   |deigs|: 1.428e-06  t[s]:   6783.85
	FillingsUpdate:  mu: +0.753548754  nElectrons: 870.000000
SCF: Cycle: 16   F: -6058.750087279234322   dF: +1.598e-07   |Residual|: 3.912e-04   |deigs|: 1.039e-06  t[s]:   6997.19
	FillingsUpdate:  mu: +0.753548750  nElectrons: 870.000000
SCF: Cycle: 17   F: -6058.750087731709755   dF: -4.525e-07   |Residual|: 6.339e-05   |deigs|: 8.054e-07  t[s]:   7209.94
	FillingsUpdate:  mu: +0.753548854  nElectrons: 870.000000
SCF: Cycle: 18   F: -6058.750087685833023   dF: +4.588e-08   |Residual|: 1.157e-04   |deigs|: 2.480e-07  t[s]:   7418.03
	FillingsUpdate:  mu: +0.753548854  nElectrons: 870.000000
SCF: Cycle: 19   F: -6058.750087735700617   dF: -4.987e-08   |Residual|: 3.891e-05   |deigs|: 1.882e-07  t[s]:   7630.90
	FillingsUpdate:  mu: +0.753548904  nElectrons: 870.000000
SCF: Cycle: 20   F: -6058.750087721316959   dF: +1.438e-08   |Residual|: 7.508e-05   |deigs|: 1.625e-07  t[s]:   7831.77
	FillingsUpdate:  mu: +0.753548973  nElectrons: 870.000000
SCF: Cycle: 21   F: -6058.750087733603323   dF: -1.229e-08   |Residual|: 4.253e-05   |deigs|: 1.638e-07  t[s]:   8019.63
	FillingsUpdate:  mu: +0.753548949  nElectrons: 870.000000
SCF: Cycle: 22   F: -6058.750087740242634   dF: -6.639e-09   |Residual|: 1.939e-05   |deigs|: 9.136e-08  t[s]:   8186.27
	FillingsUpdate:  mu: +0.753548937  nElectrons: 870.000000
SCF: Cycle: 23   F: -6058.750087738893853   dF: +1.349e-09   |Residual|: 2.924e-05   |deigs|: 6.139e-08  t[s]:   8331.59
	FillingsUpdate:  mu: +0.753548938  nElectrons: 870.000000
SCF: Cycle: 24   F: -6058.750087741334028   dF: -2.440e-09   |Residual|: 6.872e-06   |deigs|: 4.325e-08  t[s]:   8455.61
	FillingsUpdate:  mu: +0.753548943  nElectrons: 870.000000
SCF: Cycle: 25   F: -6058.750087740951130   dF: +3.829e-10   |Residual|: 8.105e-06   |deigs|: 2.390e-08  t[s]:   8579.42
	FillingsUpdate:  mu: +0.753548942  nElectrons: 870.000000
SCF: Cycle: 26   F: -6058.750087741133029   dF: -1.819e-10   |Residual|: 8.312e-06   |deigs|: 2.336e-08  t[s]:   8702.00
	FillingsUpdate:  mu: +0.753548945  nElectrons: 870.000000
SCF: Cycle: 27   F: -6058.750087741710558   dF: -5.775e-10   |Residual|: 1.031e-05   |deigs|: 2.965e-08  t[s]:   8824.66
SCF: Converged (|Delta E|<1.000000e-08 for 2 iters).

Setting wave functions to eigenvectors of Hamiltonian

# Ionic positions in lattice coordinates:
ion Mn   0.005000000000000   0.000000000000000   0.000000000000000 0
ion Mn   0.313927009428027   0.313557584850854   0.325442113550593 1
ion Mn   0.177039973013248   0.175468833912003   0.825002184251527 1
ion Mn   0.813887060216072   0.175680491152635   0.186913823648012 1
ion Mn   0.176787988095578   0.813288809765489   0.186867709497101 1
ion Mn   0.352302961508093   0.035331637797193   0.363179835830408 1
ion Mn   0.138742168339726   0.454623631734330   0.863104759479209 1
ion Mn   0.851829652998903   0.458711253108418   0.148935546742483 1
ion Mn   0.138875577914632   0.851262073317484   0.465852117530993 1
ion Mn   0.138826993318479   0.137993109152441   0.546065706481577 1
ion Mn   0.536736101495897   0.137237321882377   0.148889366434076 1
ion Mn   0.459725307162755   0.851257255131374   0.148833952176774 1
ion Mn   0.460352798474023   0.137113175493468   0.863432880648975 1
ion Mn   0.851939810636454   0.138027883188113   0.466486986198037 1
ion Mn   0.354033196532024   0.351062368880329   0.044939285842428 1
ion Mn   0.035454897807157   0.352041458072537   0.363023161944761 1
ion Mn   0.138888951423018   0.534396141982140   0.149107416652243 1
ion Mn   0.086784270636771   0.276968443984591   0.097158612581735 1
ion Mn   0.909782636364814   0.713373223856980   0.097191026205174 1
ion Mn   0.087045172333557   0.712813037444935   0.915449613998863 1
ion Mn   0.909240823560440   0.084932151183295   0.723871892911566 1
ion Mn   0.409579838008698   0.403427990939101   0.787370665846826 1
ion Mn   0.777398308942764   0.408920539306972   0.415381784129957 1
ion Mn   0.714921058496849   0.084654351757508   0.915537082943353 1
ion Mn   0.714566613843739   0.902564508839475   0.096375168909804 1
ion Mn   0.086859940236711   0.902365355328684   0.723384893377767 1
ion Mn   0.087034657242205   0.086319956758499   0.287935029986144 1
ion Mn   0.278700363414705   0.085900138444289   0.096889738841951 1
ion Mn   0.408876398475342   0.776753817440063   0.415250044590942 1
ion Mn   0.498773285123126   0.498123016564098   0.503090411317028 1
ion Mn   0.814203156134135   0.813386708776234   0.824860328464143 1
ion Mn   0.676535802908242   0.675633304001670   0.324876335774579 1
ion Mn   0.316121699342792   0.675544162112151   0.687242695682984 1
ion Mn   0.682499926328004   0.313300738774800   0.687096132828158 1
ion Mn   0.856571737207294   0.535480866803110   0.863119508705922 1
ion Mn   0.638289626416181   0.958354410693384   0.362741158549741 1
ion Mn   0.351776549804715   0.959159059253592   0.649090287351679 1
ion Mn   0.638514486981297   0.351022492413913   0.965398559910949 1
ion Mn   0.638633696529059   0.637341943046333   0.042414021382934 1
ion Mn   0.036425828292925   0.637618137402589   0.648975531535985 1
ion Mn   0.959912908165010   0.351299790210613   0.648663592305260 1
ion Mn   0.960059913512410   0.637622550812421   0.363048893662215 1
ion Mn   0.351677915562963   0.637504398049062   0.966175385132681 1
ion Mn   0.852079651473101   0.851261185825718   0.541335758894750 1
ion Mn   0.535938168059180   0.851262417704681   0.862833945538385 1
ion Mn   0.638711414333442   0.035224068561563   0.649222339883837 1
ion Mn   0.586834755756359   0.777060939751040   0.596849575515557 1
ion Mn   0.409535179487013   0.213739408403139   0.597203210784501 1
ion Mn   0.586930137303031   0.213496207625544   0.415586845461435 1
ion Mn   0.409195870940384   0.585561968964977   0.223690291585214 1
ion Mn   0.909529395996386   0.907855300275942   0.287179668101098 1
ion Mn   0.277674117520423   0.906368196558787   0.914899784524553 1
ion Mn   0.214493415993823   0.586113258801447   0.414701589234136 1
ion Mn   0.213662060293761   0.407798250942125   0.596622432572533 1
ion Mn   0.586947370429414   0.403502642536245   0.223879870888652 1
ion Mn   0.587021790240216   0.584953515463349   0.787621006817286 1
ion Mn   0.777946287124302   0.586597028562805   0.597367542633144 1
ion Mn   0.909028560049389   0.276050674871631   0.915395360292015 1

# Forces in Lattice coordinates:
force Mn  -0.167883951398761  -0.086435202775370   0.095286962728437 0
force Mn  -0.003503299805905  -0.004203036725182  -0.002937279391579 1
force Mn  -0.007283517777829   0.000229725474739  -0.004475407323314 1
force Mn   0.008568911133844  -0.002235614865947   0.001481454118805 1
force Mn  -0.002905255998594   0.006193064969612   0.001603962090322 1
force Mn  -0.003573216194784  -0.003808847027528  -0.005132933365543 1
force Mn   0.008500103230223  -0.000410097368437  -0.003896298663939 1
force Mn  -0.009118478666569   0.010583552688751  -0.000877461482714 1
force Mn  -0.010147892405465   0.005042906933207  -0.008264338983572 1
force Mn  -0.011486066716476  -0.002625800429221  -0.006490228389656 1
force Mn  -0.007204229600496   0.000082999445299  -0.000879504453918 1
force Mn   0.006723422834384  -0.001151847497294   0.004544966550426 1
force Mn  -0.007537964387066  -0.000647606124025  -0.002491763655000 1
force Mn  -0.002703580132055   0.000787648700063  -0.007929920583316 1
force Mn  -0.041397332166005   0.002682084199819   0.000373906403865 1
force Mn   0.008548002819866  -0.024921844484407   0.009113765830719 1
force Mn  -0.004421075284141   0.013389431865554   0.000041812107308 1
force Mn  -0.003316130121030  -0.009782660525361   0.010200751176000 1
force Mn  -0.007797368732962  -0.002799286035656  -0.012596340281608 1
force Mn  -0.003102886665871  -0.010310829902691  -0.008084929886693 1
force Mn  -0.008269576872374   0.000398007103027   0.000142100157775 1
force Mn   0.001155908285619   0.000381569421484   0.009400422949877 1
force Mn  -0.002913409620084  -0.004379125551888   0.001223916028699 1
force Mn  -0.008299885450358   0.003768533090961   0.001612693273563 1
force Mn  -0.000072468433686   0.020431863788187   0.001097974671152 1
force Mn  -0.007718578652960   0.001448815603607   0.000245642471663 1
force Mn  -0.005910706336891   0.007218147851203   0.004218347675911 1
force Mn  -0.015387768831113   0.001966610662491   0.004553411718268 1
force Mn   0.003314318981369  -0.002825091997904  -0.003981483986060 1
force Mn  -0.002581581918519   0.002504122009979  -0.001054086593069 1
force Mn  -0.005580119793557  -0.000713308235740  -0.001367845199502 1
force Mn  -0.004393652260616   0.003174055689315  -0.003190807916583 1
force Mn  -0.029310447981143   0.000936919835305  -0.002789200273864 1
force Mn  -0.022577339353227  -0.004601673242235  -0.000256036009019 1
force Mn  -0.024911726543097  -0.007800418838741   0.002415430193258 1
force Mn  -0.001817770943082  -0.002049042476223  -0.003765356862321 1
force Mn   0.004510668197831  -0.003682795523545  -0.000074755308562 1
force Mn   0.032785962933364   0.001724713155593   0.001124496974013 1
force Mn  -0.005220987521847  -0.001540204108242   0.005575138561545 1
force Mn  -0.004232223998107  -0.010348613460984  -0.004692525794228 1
force Mn   0.005924876889235  -0.002294566876719   0.005043819441762 1
force Mn  -0.015844826647093   0.003881113894692  -0.005411835784593 1
force Mn   0.001745927977694  -0.004443160110239  -0.007451446601482 1
force Mn  -0.010971720873781   0.005711577292089  -0.007986905889050 1
force Mn  -0.000281479060102   0.000881799576097  -0.002170344930397 1
force Mn  -0.002491736269231  -0.003017869047350   0.003047550179696 1
force Mn  -0.013708088838538  -0.001652884004289  -0.002746880726006 1
force Mn  -0.007231262261455  -0.012088816439794  -0.013368020908567 1
force Mn  -0.003648877257076  -0.006429192772345   0.001267490427537 1
force Mn   0.000061151908225  -0.000100408705138   0.006548396717853 1
force Mn  -0.002909195239865   0.006555363510758   0.002476807011298 1
force Mn   0.006307426401627  -0.009512876649901   0.003496098848967 1
force Mn   0.001001044837738   0.001891723730943  -0.002604533480445 1
force Mn   0.048202535948228  -0.008702621399321  -0.005227841600773 1
force Mn  -0.007715550734846  -0.000678472578451  -0.002794994973544 1
force Mn  -0.008740647450846  -0.002831774198463   0.002729175135802 1
force Mn  -0.006512030827578  -0.010968890400875  -0.001089681297084 1
force Mn  -0.011079430611531   0.005997754630095   0.000812554302411 1

# Energy components:
   Eewald =    -4532.4631779694509532
       EH =     1385.6218698504214899
     Eloc =    -4454.5825754311008495
      Enl =     1004.5376321423750596
      Exc =     -761.9823221292324433
 Exc_core =       62.9902688250945459
       KE =     1237.8555040989081135
-------------------------------------
     Etot =    -6058.0228006129855203
       TS =        0.7272871287247231
-------------------------------------
        F =    -6058.7500877417105585

IonicMinimize: Iter:   0  F: -6058.750087741710558  |grad|_K:  5.574e-04  t[s]:   8863.42

#--- Lowdin population analysis ---
# oxidation-state Mn +0.095 +0.081 +0.077 +0.081 +0.079 +0.014 +0.013 +0.015 +0.015 +0.015 +0.012 +0.015 +0.013 +0.015 +0.015 +0.013 +0.015 -0.024 -0.022 -0.025 -0.024 -0.022 -0.023 -0.022 -0.021 -0.025 -0.025 -0.024 -0.023 +0.095 +0.082 +0.079 +0.080 +0.079 +0.015 +0.014 +0.015 +0.014 +0.015 +0.013 +0.013 +0.014 +0.015 +0.016 +0.013 +0.014 -0.025 -0.021 -0.025 -0.023 -0.022 -0.024 -0.024 -0.021 -0.025 -0.025 -0.024 -0.024


-------- Electronic minimization -----------
Will mix electronic density at each iteration.
	FillingsUpdate:  mu: +0.753548945  nElectrons: 870.000000
	FillingsUpdate:  mu: +0.753547981  nElectrons: 870.000000
SCF: Cycle:  0   F: -6058.750083372179688   dF: +4.516e-05   |Residual|: 3.162e-03   |deigs|: 9.744e-08  t[s]:   9216.52
	FillingsUpdate:  mu: +0.753550058  nElectrons: 870.000000
SCF: Cycle:  1   F: -6058.747511572388248   dF: +2.572e-03   |Residual|: 2.470e-02   |deigs|: 2.799e-05  t[s]:   9429.55
	FillingsUpdate:  mu: +0.753547940  nElectrons: 870.000000
SCF: Cycle:  2   F: -6058.750110255185973   dF: -2.599e-03   |Residual|: 2.850e-03   |deigs|: 2.429e-05  t[s]:   9643.09
	FillingsUpdate:  mu: +0.753548595  nElectrons: 870.000000
SCF: Cycle:  3   F: -6058.750123127006191   dF: -1.287e-05   |Residual|: 1.942e-03   |deigs|: 4.063e-06  t[s]:   9855.70
	FillingsUpdate:  mu: +0.753548784  nElectrons: 870.000000
SCF: Cycle:  4   F: -6058.750108220643597   dF: +1.491e-05   |Residual|: 2.817e-03   |deigs|: 3.200e-06  t[s]:  10069.54
	FillingsUpdate:  mu: +0.753548011  nElectrons: 870.000000
SCF: Cycle:  5   F: -6058.750137030487167   dF: -2.881e-05   |Residual|: 3.149e-04   |deigs|: 2.944e-06  t[s]:  10282.37
	FillingsUpdate:  mu: +0.753548375  nElectrons: 870.000000
SCF: Cycle:  6   F: -6058.750136703947646   dF: +3.265e-07   |Residual|: 4.467e-04   |deigs|: 1.011e-06  t[s]:  10490.24
	FillingsUpdate:  mu: +0.753548255  nElectrons: 870.000000
SCF: Cycle:  7   F: -6058.750136847749673   dF: -1.438e-07   |Residual|: 3.975e-04   |deigs|: 9.960e-07  t[s]:  10703.13
	FillingsUpdate:  mu: +0.753548309  nElectrons: 870.000000
SCF: Cycle:  8   F: -6058.750137377121064   dF: -5.294e-07   |Residual|: 5.173e-05   |deigs|: 4.928e-07  t[s]:  10916.38
	FillingsUpdate:  mu: +0.753548316  nElectrons: 870.000000
SCF: Cycle:  9   F: -6058.750137344785799   dF: +3.234e-08   |Residual|: 1.090e-04   |deigs|: 2.173e-07  t[s]:  11119.71
	FillingsUpdate:  mu: +0.753548173  nElectrons: 870.000000
SCF: Cycle: 10   F: -6058.750137382871799   dF: -3.809e-08   |Residual|: 3.180e-05   |deigs|: 2.026e-07  t[s]:  11331.16
	FillingsUpdate:  mu: +0.753548212  nElectrons: 870.000000
SCF: Cycle: 11   F: -6058.750137387039103   dF: -4.167e-09   |Residual|: 1.334e-05   |deigs|: 7.044e-08  t[s]:  11490.24
	FillingsUpdate:  mu: +0.753548260  nElectrons: 870.000000
SCF: Cycle: 12   F: -6058.750137386343340   dF: +6.958e-10   |Residual|: 2.018e-05   |deigs|: 5.798e-08  t[s]:  11613.82
	FillingsUpdate:  mu: +0.753548251  nElectrons: 870.000000
SCF: Cycle: 13   F: -6058.750137387106406   dF: -7.631e-10   |Residual|: 7.416e-06   |deigs|: 3.969e-08  t[s]:  11736.13
	FillingsUpdate:  mu: +0.753548251  nElectrons: 870.000000
SCF: Cycle: 14   F: -6058.750137386831739   dF: +2.747e-10   |Residual|: 9.972e-06   |deigs|: 2.064e-08  t[s]:  11858.37
	FillingsUpdate:  mu: +0.753548250  nElectrons: 870.000000
SCF: Cycle: 15   F: -6058.750137386852657   dF: -2.092e-11   |Residual|: 5.390e-06   |deigs|: 1.647e-08  t[s]:  11980.98
	FillingsUpdate:  mu: +0.753548248  nElectrons: 870.000000
SCF: Cycle: 16   F: -6058.750137387527502   dF: -6.748e-10   |Residual|: 3.535e-06   |deigs|: 1.495e-08  t[s]:  12103.26
SCF: Converged (|Delta E|<1.000000e-08 for 2 iters).

Setting wave functions to eigenvectors of Hamiltonian

# Ionic positions in lattice coordinates:
ion Mn   0.005000000000000   0.000000000000000   0.000000000000000 0
ion Mn   0.313913404211973   0.313541262176262   0.325430706499256 1
ion Mn   0.177011687157486   0.175469726060803   0.824984803813957 1
ion Mn   0.813920337952430   0.175671809045779   0.186919576939045 1
ion Mn   0.176776705408471   0.813312860800689   0.186873938553131 1
ion Mn   0.352289084768724   0.035316845975311   0.363159901862064 1
ion Mn   0.138775178857620   0.454622039103493   0.863089628035121 1
ion Mn   0.851794240993303   0.458752354792239   0.148932139082930 1
ion Mn   0.138836168136331   0.851281657664291   0.465820022613730 1
ion Mn   0.138782386682465   0.137982911743103   0.546040501399405 1
ion Mn   0.536708123559195   0.137237644214306   0.148885950840556 1
ion Mn   0.459751417865622   0.851252781881886   0.148851602750605 1
ion Mn   0.460323524463868   0.137110660487124   0.863423203777237 1
ion Mn   0.851929311166282   0.138030942055847   0.466456190009071 1
ion Mn   0.353872428205192   0.351072784870120   0.044940737924091 1
ion Mn   0.035488094345175   0.351944673013460   0.363058555647859 1
ion Mn   0.138871781986268   0.534448140418890   0.149107579031367 1
ion Mn   0.086771392302269   0.276930452600066   0.097198227639353 1
ion Mn   0.909752354946681   0.713362352708799   0.097142107773833 1
ion Mn   0.087033122139220   0.712772994891829   0.915418215824574 1
ion Mn   0.909208708301610   0.084933696861064   0.723872444763664 1
ion Mn   0.409584327028433   0.403429472780424   0.787407172795223 1
ion Mn   0.777386994590715   0.408903532783819   0.415386537260698 1
ion Mn   0.714888825533348   0.084668987018476   0.915543345907310 1
ion Mn   0.714566332409448   0.902643856864660   0.096379432941845 1
ion Mn   0.086829964803256   0.902370981866634   0.723385847340911 1
ion Mn   0.087011702758946   0.086347988747329   0.287951412121474 1
ion Mn   0.278640604350069   0.085907775861707   0.096907422212956 1
ion Mn   0.408889269776205   0.776742846073313   0.415234582325978 1
ion Mn   0.498763259438283   0.498132741430041   0.503086317726233 1
ion Mn   0.814181485497990   0.813383938612903   0.824855016378253 1
ion Mn   0.676518739969988   0.675645630583982   0.324863944134269 1
ion Mn   0.316007870952553   0.675547800680784   0.687231863703294 1
ion Mn   0.682412246255830   0.313282867978083   0.687095138501262 1
ion Mn   0.856474991441678   0.535450573539760   0.863128889133366 1
ion Mn   0.638282567024240   0.958346453148458   0.362726535623794 1
ion Mn   0.351794067179413   0.959144756958168   0.649089997036211 1
ion Mn   0.638641812683911   0.351029190411919   0.965402926943499 1
ion Mn   0.638613420598597   0.637335961597179   0.042435672674249 1
ion Mn   0.036409392268298   0.637577948115403   0.648957307909459 1
ion Mn   0.959935917680221   0.351290879161077   0.648683180195833 1
ion Mn   0.959998379444012   0.637637623285802   0.363027876564285 1
ion Mn   0.351684695949646   0.637487142844937   0.966146447118082 1
ion Mn   0.852037042321374   0.851283366982734   0.541304741400888 1
ion Mn   0.535937074923097   0.851265842211407   0.862825516910141 1
ion Mn   0.638701737568058   0.035212348536819   0.649234175176540 1
ion Mn   0.586781519801496   0.777054520704645   0.596838907885659 1
ion Mn   0.409507096567805   0.213692460962550   0.597151295498127 1
ion Mn   0.586915966730660   0.213471239577827   0.415591767815235 1
ion Mn   0.409196108426460   0.585561579023435   0.223715722566600 1
ion Mn   0.909518098011065   0.907880758313170   0.287189286888065 1
ion Mn   0.277698612683182   0.906331252891590   0.914913361775380 1
ion Mn   0.214497303594671   0.586120605392233   0.414691474415912 1
ion Mn   0.213849256923302   0.407764453936178   0.596602130023960 1
ion Mn   0.586917406755010   0.403500007658693   0.223869016404996 1
ion Mn   0.586987845558456   0.584942518145985   0.787631605686760 1
ion Mn   0.777920997371421   0.586554430403342   0.597363310808779 1
ion Mn   0.908985532602245   0.276073967410695   0.915398515881731 1

# Forces in Lattice coordinates:
force Mn  -0.167902833703782  -0.086310092750054   0.094943130500240 0
force Mn  -0.003003278210262  -0.003664174280912  -0.002884072743588 1
force Mn  -0.006748150001078  -0.000053821443419  -0.003853167476907 1
force Mn   0.006648830192939  -0.001514924565238   0.001056057105369 1
force Mn  -0.002855330361519   0.004954248516196   0.001088117281329 1
force Mn  -0.003520195457765  -0.003782463409570  -0.004341836673804 1
force Mn   0.005898907493759  -0.000997270663737  -0.003859906381303 1
force Mn  -0.007174234229526   0.009658752410296   0.000248979425889 1
force Mn  -0.008694532944230   0.004018497292330  -0.007486074530529 1
force Mn  -0.009402183438429  -0.002476104731301  -0.005002288645394 1
force Mn  -0.006699125424544   0.000980131516098  -0.001348247095505 1
force Mn   0.005807648859217  -0.001083987773445   0.003439348517362 1
force Mn  -0.007110668367157   0.000304556279268  -0.001624694232499 1
force Mn  -0.002815155722542   0.000511727765176  -0.006952148991774 1
force Mn  -0.039848289741441   0.002477194762006  -0.000140855428955 1
force Mn   0.006853933592595  -0.019814711809816   0.007929512539468 1
force Mn  -0.004595961679980   0.012252511658149   0.000200748176158 1
force Mn  -0.004323541073598  -0.006858527316544   0.008331708100364 1
force Mn  -0.007369373223051  -0.001343439676874  -0.011629133274401 1
force Mn  -0.003008971163702  -0.008206428149577  -0.007882713899215 1
force Mn  -0.008159984817304   0.000699125497736   0.000146145096945 1
force Mn   0.001387345206077  -0.000615070834622   0.008559484478171 1
force Mn  -0.002635722985571  -0.004744126546457   0.000400023849478 1
force Mn  -0.007702130200190   0.003578748190733   0.001238007122261 1
force Mn  -0.000080075705381   0.017868221500501   0.000939251311872 1
force Mn  -0.006280163573358   0.001037588076051   0.000264922657568 1
force Mn  -0.004852381917865   0.004769919250163   0.003555953917906 1
force Mn  -0.013999073693413   0.000579243291206   0.003358532992047 1
force Mn   0.001906768734319  -0.001972526977769  -0.003406300690278 1
force Mn  -0.002156770014894   0.001946950869112  -0.001005068432192 1
force Mn  -0.005077333880037  -0.000619083140380  -0.001507276261379 1
force Mn  -0.003727396821620   0.002662175262603  -0.002769599608623 1
force Mn  -0.028417100363694   0.001036913712765  -0.002302868564149 1
force Mn  -0.022916361188837  -0.004271436230911  -0.000428062042060 1
force Mn  -0.025010550547287  -0.006513507399172   0.001151528196082 1
force Mn  -0.001864287860580  -0.001641557711356  -0.002940390273417 1
force Mn   0.002849888542469  -0.003757872903767   0.000036845157229 1
force Mn   0.024703019475653   0.000986408200486   0.001920445417827 1
force Mn  -0.004781478095093  -0.000571494962114   0.005356241373885 1
force Mn  -0.004222753305070  -0.008844302660464  -0.004612786132082 1
force Mn   0.006387065431939  -0.001797746235104   0.004181116742529 1
force Mn  -0.013805706136839   0.002601123393148  -0.004477970078930 1
force Mn   0.001581209675084  -0.003527727709615  -0.006441376092291 1
force Mn  -0.010274932602135   0.004040551013373  -0.007007512157731 1
force Mn  -0.000179442200884   0.000583165573024  -0.001533909702145 1
force Mn  -0.002211144404817  -0.003002422302814   0.002500726875088 1
force Mn  -0.010505376737592  -0.002110525982038  -0.002032542888302 1
force Mn  -0.006549643222387  -0.011020745770741  -0.012013405240390 1
force Mn  -0.003120730370108  -0.005356709327435   0.000327260318788 1
force Mn  -0.000654865459468  -0.000419740029881   0.004525158715644 1
force Mn  -0.003108989416035   0.005938742722838   0.001031204654470 1
force Mn   0.004835143051954  -0.009569952056823   0.002942930270180 1
force Mn  -0.000322931512051   0.001482122902825  -0.002503525306362 1
force Mn   0.037218724333614  -0.008470571894278  -0.004599905625925 1
force Mn  -0.006341345357845  -0.001468207645064  -0.002630482773591 1
force Mn  -0.007537956452762  -0.001880581797658   0.001902514132659 1
force Mn  -0.006501164577216  -0.008560542240888  -0.000992189847258 1
force Mn  -0.009389067983680   0.004568843298585   0.000712249168441 1

# Energy components:
   Eewald =    -4532.4663163766545040
       EH =     1385.6186318603490690
     Eloc =    -4454.5760609416511215
      Enl =     1004.5374943975498354
      Exc =     -761.9822820871429485
 Exc_core =       62.9902590156505653
       KE =     1237.8554105025864374
-------------------------------------
     Etot =    -6058.0228636293122690
       TS =        0.7272737582149552
-------------------------------------
        F =    -6058.7501373875275021

IonicMinimize: Iter:   1  F: -6058.750137387527502  |grad|_K:  4.869e-04  alpha:  1.000e+00  linmin: -4.323e-01  t[s]:  12141.73

#--- Lowdin population analysis ---
# oxidation-state Mn +0.095 +0.081 +0.077 +0.081 +0.079 +0.014 +0.013 +0.015 +0.015 +0.015 +0.013 +0.015 +0.013 +0.015 +0.015 +0.013 +0.015 -0.024 -0.022 -0.025 -0.024 -0.022 -0.023 -0.022 -0.021 -0.025 -0.025 -0.024 -0.023 +0.095 +0.082 +0.079 +0.080 +0.079 +0.015 +0.014 +0.015 +0.014 +0.015 +0.013 +0.013 +0.014 +0.015 +0.016 +0.013 +0.014 -0.025 -0.022 -0.025 -0.023 -0.022 -0.024 -0.024 -0.021 -0.025 -0.025 -0.024 -0.024


-------- Electronic minimization -----------
Will mix electronic density at each iteration.
	FillingsUpdate:  mu: +0.753548248  nElectrons: 870.000000
	FillingsUpdate:  mu: +0.753331239  nElectrons: 870.000000
SCF: Cycle:  0   F: -6055.982289857268370   dF: +2.559e+00   |Residual|: 7.408e-01   |deigs|: 1.870e-04  t[s]:  12633.15
	FillingsUpdate:  mu: +0.750938922  nElectrons: 870.000000
SCF: Cycle:  1   F: -5960.151000899353676   dF: +9.583e+01   |Residual|: 4.375e+00   |deigs|: 2.670e-02  t[s]:  12995.98
	FillingsUpdate:  mu: +0.755640766  nElectrons: 870.000000
SCF: Cycle:  2   F: -6056.753415370630137   dF: -9.660e+01   |Residual|: 7.963e-01   |deigs|: 2.639e-02  t[s]:  13358.20
	FillingsUpdate:  mu: +0.754827404  nElectrons: 870.000000
SCF: Cycle:  3   F: -6057.267287356026827   dF: -5.139e-01   |Residual|: 6.621e-01   |deigs|: 2.003e-03  t[s]:  13720.01
	FillingsUpdate:  mu: +0.752951870  nElectrons: 870.000000
SCF: Cycle:  4   F: -6056.515000261406385   dF: +7.523e-01   |Residual|: 7.915e-01   |deigs|: 2.500e-03  t[s]:  14082.85
	FillingsUpdate:  mu: +0.752682109  nElectrons: 870.000000
SCF: Cycle:  5   F: -6058.629899833326817   dF: -2.115e+00   |Residual|: 1.772e-01   |deigs|: 2.345e-03  t[s]:  14446.14
	FillingsUpdate:  mu: +0.753082605  nElectrons: 870.000000
SCF: Cycle:  6   F: -6058.462351579024471   dF: +1.675e-01   |Residual|: 2.902e-01   |deigs|: 7.954e-04  t[s]:  14800.20
	FillingsUpdate:  mu: +0.753775536  nElectrons: 870.000000
SCF: Cycle:  7   F: -6058.738185292510934   dF: -2.758e-01   |Residual|: 6.043e-02   |deigs|: 7.970e-04  t[s]:  15098.97
	FillingsUpdate:  mu: +0.753717434  nElectrons: 870.000000
SCF: Cycle:  8   F: -6058.736505926902282   dF: +1.679e-03   |Residual|: 6.152e-02   |deigs|: 1.588e-04  t[s]:  15312.15
	FillingsUpdate:  mu: +0.753597190  nElectrons: 870.000000
SCF: Cycle:  9   F: -6058.738216628879854   dF: -1.711e-03   |Residual|: 5.943e-02   |deigs|: 1.839e-04  t[s]:  15525.03
	FillingsUpdate:  mu: +0.753568454  nElectrons: 870.000000
SCF: Cycle: 10   F: -6058.749872250386034   dF: -1.166e-02   |Residual|: 1.323e-02   |deigs|: 8.068e-05  t[s]:  15739.48
	FillingsUpdate:  mu: +0.753515101  nElectrons: 870.000000
SCF: Cycle: 11   F: -6058.745046127261958   dF: +4.826e-03   |Residual|: 4.124e-02   |deigs|: 8.003e-05  t[s]:  15953.88
	FillingsUpdate:  mu: +0.753561900  nElectrons: 870.000000
SCF: Cycle: 12   F: -6058.750055567880736   dF: -5.009e-03   |Residual|: 8.459e-03   |deigs|: 6.845e-05  t[s]:  16167.04
	FillingsUpdate:  mu: +0.753551386  nElectrons: 870.000000
SCF: Cycle: 13   F: -6058.749802222311700   dF: +2.533e-04   |Residual|: 1.282e-02   |deigs|: 1.681e-05  t[s]:  16381.00
	FillingsUpdate:  mu: +0.753533770  nElectrons: 870.000000
SCF: Cycle: 14   F: -6058.750159308331604   dF: -3.571e-04   |Residual|: 7.866e-03   |deigs|: 1.938e-05  t[s]:  16594.01
	FillingsUpdate:  mu: +0.753544755  nElectrons: 870.000000
SCF: Cycle: 15   F: -6058.750375212809558   dF: -2.159e-04   |Residual|: 2.186e-03   |deigs|: 1.197e-05  t[s]:  16807.17
	FillingsUpdate:  mu: +0.753544246  nElectrons: 870.000000
SCF: Cycle: 16   F: -6058.750330503449732   dF: +4.471e-05   |Residual|: 4.206e-03   |deigs|: 5.882e-06  t[s]:  17020.71
	FillingsUpdate:  mu: +0.753539522  nElectrons: 870.000000
SCF: Cycle: 17   F: -6058.750354949449502   dF: -2.445e-05   |Residual|: 3.344e-03   |deigs|: 7.130e-06  t[s]:  17234.74
	FillingsUpdate:  mu: +0.753542291  nElectrons: 870.000000
SCF: Cycle: 18   F: -6058.750376908011276   dF: -2.196e-05   |Residual|: 2.004e-03   |deigs|: 6.783e-06  t[s]:  17449.67
	FillingsUpdate:  mu: +0.753542880  nElectrons: 870.000000
SCF: Cycle: 19   F: -6058.750365683093150   dF: +1.122e-05   |Residual|: 2.632e-03   |deigs|: 4.035e-06  t[s]:  17664.11
	FillingsUpdate:  mu: +0.753541872  nElectrons: 870.000000
SCF: Cycle: 20   F: -6058.750388404595469   dF: -2.272e-05   |Residual|: 9.002e-04   |deigs|: 5.507e-06  t[s]:  17877.71
	FillingsUpdate:  mu: +0.753541595  nElectrons: 870.000000
SCF: Cycle: 21   F: -6058.750385330237805   dF: +3.074e-06   |Residual|: 1.274e-03   |deigs|: 2.463e-06  t[s]:  18091.13
	FillingsUpdate:  mu: +0.753543558  nElectrons: 870.000000
SCF: Cycle: 22   F: -6058.750388628473956   dF: -3.298e-06   |Residual|: 8.758e-04   |deigs|: 2.793e-06  t[s]:  18304.00
	FillingsUpdate:  mu: +0.753542620  nElectrons: 870.000000
SCF: Cycle: 23   F: -6058.750390750426959   dF: -2.122e-06   |Residual|: 3.101e-04   |deigs|: 1.473e-06  t[s]:  18516.97
	FillingsUpdate:  mu: +0.753542300  nElectrons: 870.000000
SCF: Cycle: 24   F: -6058.750390068596971   dF: +6.818e-07   |Residual|: 5.104e-04   |deigs|: 8.187e-07  t[s]:  18729.39
	FillingsUpdate:  mu: +0.753542597  nElectrons: 870.000000
SCF: Cycle: 25   F: -6058.750389692983845   dF: +3.756e-07   |Residual|: 6.010e-04   |deigs|: 1.144e-06  t[s]:  18942.69
	FillingsUpdate:  mu: +0.753542409  nElectrons: 870.000000
SCF: Cycle: 26   F: -6058.750390825380236   dF: -1.132e-06   |Residual|: 3.006e-04   |deigs|: 9.022e-07  t[s]:  19155.79
	FillingsUpdate:  mu: +0.753542383  nElectrons: 870.000000
SCF: Cycle: 27   F: -6058.750390656633499   dF: +1.687e-07   |Residual|: 3.749e-04   |deigs|: 5.881e-07  t[s]:  19368.72
	FillingsUpdate:  mu: +0.753542419  nElectrons: 870.000000
SCF: Cycle: 28   F: -6058.750391083015529   dF: -4.264e-07   |Residual|: 1.204e-04   |deigs|: 4.266e-07  t[s]:  19581.53
	FillingsUpdate:  mu: +0.753542296  nElectrons: 870.000000
SCF: Cycle: 29   F: -6058.750391029951970   dF: +5.306e-08   |Residual|: 1.635e-04   |deigs|: 3.819e-07  t[s]:  19794.22
	FillingsUpdate:  mu: +0.753542339  nElectrons: 870.000000
SCF: Cycle: 30   F: -6058.750391072663660   dF: -4.271e-08   |Residual|: 1.253e-04   |deigs|: 2.102e-07  t[s]:  20007.37
	FillingsUpdate:  mu: +0.753542432  nElectrons: 870.000000
SCF: Cycle: 31   F: -6058.750391060740185   dF: +1.192e-08   |Residual|: 1.377e-04   |deigs|: 4.038e-07  t[s]:  20220.62
	FillingsUpdate:  mu: +0.753542464  nElectrons: 870.000000
SCF: Cycle: 32   F: -6058.750391070011574   dF: -9.271e-09   |Residual|: 1.284e-04   |deigs|: 3.070e-07  t[s]:  20435.42
	FillingsUpdate:  mu: +0.753542434  nElectrons: 870.000000
SCF: Cycle: 33   F: -6058.750391124879570   dF: -5.487e-08   |Residual|: 3.600e-05   |deigs|: 1.880e-07  t[s]:  20648.94
	FillingsUpdate:  mu: +0.753542453  nElectrons: 870.000000
SCF: Cycle: 34   F: -6058.750391113327169   dF: +1.155e-08   |Residual|: 6.610e-05   |deigs|: 1.232e-07  t[s]:  20858.21
	FillingsUpdate:  mu: +0.753542436  nElectrons: 870.000000
SCF: Cycle: 35   F: -6058.750391122224755   dF: -8.898e-09   |Residual|: 4.016e-05   |deigs|: 9.824e-08  t[s]:  21044.71
	FillingsUpdate:  mu: +0.753542408  nElectrons: 870.000000
SCF: Cycle: 36   F: -6058.750391127676266   dF: -5.452e-09   |Residual|: 1.702e-05   |deigs|: 6.405e-08  t[s]:  21199.39
SCF: Converged (|Delta E|<1.000000e-08 for 2 iters).

Setting wave functions to eigenvectors of Hamiltonian

# Ionic positions in lattice coordinates:
ion Mn   0.005000000000000   0.000000000000000   0.000000000000000 0
ion Mn   0.313791229062215   0.313386181189418   0.325277275613653 1
ion Mn   0.176687433965870   0.175442801668308   0.824826424192166 1
ion Mn   0.814122058982334   0.175649795347162   0.186941433779370 1
ion Mn   0.176624570991434   0.813479396307383   0.186889902585540 1
ion Mn   0.352100804457804   0.035111951550519   0.362989041797118 1
ion Mn   0.138878238451989   0.454517776876654   0.862881339226929 1
ion Mn   0.851565792450711   0.459203059844736   0.149041026619177 1
ion Mn   0.138482958947397   0.851415082554938   0.465475900825649 1
ion Mn   0.138443745030521   0.137859980207037   0.545892401490916 1
ion Mn   0.536383995787985   0.137367178500694   0.148772484029060 1
ion Mn   0.459992002038555   0.851199161673426   0.148946446690019 1
ion Mn   0.459970281267068   0.137207854121521   0.863407557199332 1
ion Mn   0.851765719897415   0.138035631669073   0.466158176297812 1
ion Mn   0.351821348778463   0.351191108828379   0.044889495714327 1
ion Mn   0.035720158613129   0.351291498056161   0.363392628801147 1
ion Mn   0.138605321175429   0.535022941010683   0.149132011760613 1
ion Mn   0.086449449530456   0.276802152878209   0.097496417910381 1
ion Mn   0.909385004374602   0.713411895344572   0.096587091806084 1
ion Mn   0.086876294292952   0.712501567167491   0.915003662757543 1
ion Mn   0.908771139621047   0.084997443593716   0.723880789629177 1
ion Mn   0.409679867893870   0.403311514436827   0.787804774067447 1
ion Mn   0.777266145563031   0.408612882170461   0.415338772745080 1
ion Mn   0.714517608529430   0.084848908655225   0.915579454411407 1
ion Mn   0.714561304228526   0.903405524607157   0.096417443898804 1
ion Mn   0.086607701336336   0.902393025547258   0.723401984711360 1
ion Mn   0.086835482723973   0.086402160747225   0.288090121027872 1
ion Mn   0.277991453526038   0.085822176971016   0.096990292720869 1
ion Mn   0.408874658700387   0.776706925865066   0.415096693691642 1
ion Mn   0.498681078730872   0.498192240064881   0.503035425822877 1
ion Mn   0.813945970038782   0.813358005803998   0.824760688315436 1
ion Mn   0.676370969501029   0.675748124336707   0.324747900514413 1
ion Mn   0.314527310151738   0.675613037099275   0.687146884934650 1
ion Mn   0.681128691635880   0.313076891998863   0.687057151291440 1
ion Mn   0.855097071745210   0.535202720922629   0.863085068647595 1
ion Mn   0.638176546179419   0.958291019953308   0.362635282027044 1
ion Mn   0.351809687320763   0.958932629397437   0.649101451761722 1
ion Mn   0.639311029362888   0.351020773344147   0.965575396021598 1
ion Mn   0.638388755270853   0.637386582400564   0.042710467009015 1
ion Mn   0.036178957645825   0.637220846148547   0.648711457371304 1
ion Mn   0.960324752985353   0.351234447553217   0.648839184218446 1
ion Mn   0.959414818279725   0.637671821308908   0.362861634681070 1
ion Mn   0.351757353226106   0.637371376924521   0.965879134275333 1
ion Mn   0.851533314560440   0.851363320628106   0.541003833205962 1
ion Mn   0.535935877167297   0.851272523064969   0.862795338858560 1
ion Mn   0.638604383883570   0.035049243863886   0.649324873287534 1
ion Mn   0.586477077815768   0.776900250640355   0.596788012539151 1
ion Mn   0.409206080721149   0.213179289121291   0.596607996894498 1
ion Mn   0.586789738287691   0.213268600180482   0.415530181097978 1
ion Mn   0.409099700854273   0.585511591160834   0.223792429480537 1
ion Mn   0.909330956683732   0.908153817960758   0.287123512695247 1
ion Mn   0.277838883726345   0.905802381581076   0.915027738117198 1
ion Mn   0.214367662586144   0.586167129093812   0.414562924253695 1
ion Mn   0.214958524355991   0.407320232880254   0.596403341135192 1
ion Mn   0.586686363338808   0.403352828266828   0.223738884124568 1
ion Mn   0.586676772906138   0.584919972884021   0.787665882516312 1
ion Mn   0.777565916302828   0.586289313774407   0.597317223104746 1
ion Mn   0.908614332435497   0.276203323640864   0.915429036269963 1

# Forces in Lattice coordinates:
force Mn  -0.169342878545191  -0.086141902285860   0.090646568668515 0
force Mn   0.001254461691124   0.002048855745679   0.000106402822851 1
force Mn   0.000375799185692  -0.003489746626683   0.003154485840411 1
force Mn  -0.007374289364334   0.002540474734856  -0.002122710298568 1
force Mn  -0.001789262637030  -0.004676837579396  -0.001763267698700 1
force Mn  -0.000411874490961  -0.001641014291962   0.001648827836132 1
force Mn  -0.012361882637070  -0.000264848947209   0.000438807455094 1
force Mn   0.005267050039039   0.002752899235150   0.001404937969346 1
force Mn   0.001801865776620  -0.004412697308734   0.000948975336939 1
force Mn   0.002146644099082  -0.003190547308335   0.003135695276692 1
force Mn  -0.003995825904661  -0.000310256265339  -0.001510817970450 1
force Mn  -0.003924990099565  -0.000085971662941  -0.003030054850950 1
force Mn  -0.004472623007497  -0.000540516360946   0.001340183826038 1
force Mn  -0.000120948366120  -0.000656413379056   0.004276447612763 1
force Mn   0.009413946758190   0.000531707400620  -0.003987287632117 1
force Mn  -0.006587866939743   0.018098141229286  -0.004527218864933 1
force Mn  -0.004257305198412   0.001489305136531  -0.001017973041876 1
force Mn  -0.004954030404370   0.005205271415909  -0.001888959362876 1
force Mn  -0.001349852930838   0.002915172500630  -0.004340616406589 1
force Mn  -0.004934678405785   0.003523367240097  -0.002050243455286 1
force Mn  -0.006567775597582   0.001114744369268  -0.001681133870221 1
force Mn  -0.003585283365521  -0.002933700017983  -0.009498528362890 1
force Mn  -0.002151088219037  -0.004474765864414  -0.000418797206643 1
force Mn  -0.000001199004322   0.001346176306365  -0.002027189909745 1
force Mn  -0.002893043387465   0.000720146531873  -0.000410109255546 1
force Mn  -0.002130376412952   0.000637963654608  -0.001964776198263 1
force Mn   0.001006262255616  -0.002576011680940  -0.003829388214280 1
force Mn  -0.001578846605796  -0.005819127256760  -0.004861547385882 1
force Mn  -0.006531020103408  -0.002785149547290   0.002140002528041 1
force Mn  -0.000261639767209  -0.001154233020346  -0.000523847983590 1
force Mn   0.001628601794359   0.000940929777567  -0.001248121049143 1
force Mn  -0.000263172956684  -0.003579076221680   0.002039175672928 1
force Mn  -0.003565879031290  -0.003402231405674   0.000371555713341 1
force Mn  -0.029135546012802   0.004281702095493  -0.004535227897455 1
force Mn  -0.030762461493839  -0.000504406676089  -0.002580450614241 1
force Mn  -0.001937295212129   0.000758116128654   0.001681800293964 1
force Mn  -0.005098967950723  -0.005688903623186   0.000684054853702 1
force Mn  -0.020811279634689   0.000765545218769   0.006385527019241 1
force Mn   0.001088933747468   0.001383929019160   0.005135748819239 1
force Mn  -0.004385860559370   0.006732570472733  -0.000792720448124 1
force Mn  -0.007837052108060   0.000024458919222  -0.001446513594377 1
force Mn  -0.001106072585032   0.000040091900818   0.002337827605122 1
force Mn  -0.000509063463450  -0.000671441736515  -0.001311306854928 1
force Mn   0.004328510815543  -0.004203294652481   0.000737391226901 1
force Mn  -0.000676485725736  -0.000268774228873   0.000631609092939 1
force Mn  -0.001499569857566  -0.001281210343480  -0.002003625525558 1
force Mn  -0.000763805613007  -0.002380077915367   0.000710959843038 1
force Mn  -0.001126709099340   0.007376264284957  -0.000242284185929 1
force Mn  -0.001625534625051   0.002502078218150  -0.004119547297616 1
force Mn  -0.004501963764551  -0.001713502656892  -0.003276197615881 1
force Mn  -0.003153997193141  -0.000990595872801  -0.001651204202217 1
force Mn  -0.005043888745306  -0.012720105828641  -0.001660820305990 1
force Mn  -0.003058078514681  -0.002823593200869   0.000779547297993 1
force Mn  -0.011116000737162  -0.006760467078039   0.000115147240495 1
force Mn  -0.000394134604452  -0.001814140328747   0.000573312401557 1
force Mn  -0.003269326329589   0.003624384734070  -0.001285173253199 1
force Mn  -0.003352380514927  -0.001337343216444  -0.005062861973777 1
force Mn  -0.002907662008898  -0.000542265439292  -0.002465932400201 1

# Energy components:
   Eewald =    -4532.4466478668400669
       EH =     1385.6367789023342993
     Eloc =    -4454.6141396929751863
      Enl =     1004.5363656949548385
      Exc =     -761.9825808155756022
 Exc_core =       62.9900696533713855
       KE =     1237.8569571817865835
-------------------------------------
     Etot =    -6058.0231969429441961
       TS =        0.7271941847320307
-------------------------------------
        F =    -6058.7503911276762665

IonicMinimize: Iter:   2  F: -6058.750391127676266  |grad|_K:  3.259e-04  alpha:  1.000e+00  linmin: -3.291e-02  t[s]:  21237.85

#--- Lowdin population analysis ---
# oxidation-state Mn +0.095 +0.080 +0.077 +0.081 +0.079 +0.014 +0.013 +0.015 +0.015 +0.015 +0.013 +0.015 +0.013 +0.015 +0.015 +0.014 +0.015 -0.024 -0.022 -0.025 -0.024 -0.022 -0.023 -0.022 -0.021 -0.024 -0.026 -0.024 -0.023 +0.095 +0.082 +0.079 +0.080 +0.079 +0.015 +0.014 +0.015 +0.014 +0.014 +0.013 +0.013 +0.014 +0.015 +0.016 +0.013 +0.014 -0.024 -0.022 -0.024 -0.023 -0.022 -0.024 -0.023 -0.022 -0.025 -0.025 -0.024 -0.024


-------- Electronic minimization -----------
Will mix electronic density at each iteration.
	FillingsUpdate:  mu: +0.753542408  nElectrons: 870.000000
	FillingsUpdate:  mu: +0.753473121  nElectrons: 870.000000
SCF: Cycle:  0   F: -6057.758775180916928   dF: +9.339e-01   |Residual|: 4.217e-01   |deigs|: 5.157e-05  t[s]:  21729.94
	FillingsUpdate:  mu: +0.752702010  nElectrons: 870.000000
SCF: Cycle:  1   F: -6015.182923757086428   dF: +4.258e+01   |Residual|: 2.872e+00   |deigs|: 1.470e-02  t[s]:  22092.31
	FillingsUpdate:  mu: +0.754308294  nElectrons: 870.000000
SCF: Cycle:  2   F: -6058.077160158742117   dF: -4.289e+01   |Residual|: 4.457e-01   |deigs|: 1.473e-02  t[s]:  22455.30
	FillingsUpdate:  mu: +0.754023859  nElectrons: 870.000000
SCF: Cycle:  3   F: -6058.265118318956411   dF: -1.880e-01   |Residual|: 3.693e-01   |deigs|: 6.839e-04  t[s]:  22816.77
	FillingsUpdate:  mu: +0.753229323  nElectrons: 870.000000
SCF: Cycle:  4   F: -6058.275268934268752   dF: -1.015e-02   |Residual|: 3.806e-01   |deigs|: 1.058e-03  t[s]:  23179.46
	FillingsUpdate:  mu: +0.753119735  nElectrons: 870.000000
SCF: Cycle:  5   F: -6058.726940031270715   dF: -4.517e-01   |Residual|: 7.768e-02   |deigs|: 7.553e-04  t[s]:  23534.94
	FillingsUpdate:  mu: +0.753432083  nElectrons: 870.000000
SCF: Cycle:  6   F: -6058.701255115929598   dF: +2.568e-02   |Residual|: 1.215e-01   |deigs|: 3.052e-04  t[s]:  23748.23
	FillingsUpdate:  mu: +0.753636568  nElectrons: 870.000000
SCF: Cycle:  7   F: -6058.747475383519486   dF: -4.622e-02   |Residual|: 2.998e-02   |deigs|: 2.543e-04  t[s]:  23960.86
	FillingsUpdate:  mu: +0.753633467  nElectrons: 870.000000
SCF: Cycle:  8   F: -6058.746979927534994   dF: +4.955e-04   |Residual|: 3.064e-02   |deigs|: 4.186e-05  t[s]:  24174.00
	FillingsUpdate:  mu: +0.753556903  nElectrons: 870.000000
SCF: Cycle:  9   F: -6058.748197676564814   dF: -1.218e-03   |Residual|: 2.454e-02   |deigs|: 8.056e-05  t[s]:  24387.27
	FillingsUpdate:  mu: +0.753551053  nElectrons: 870.000000
SCF: Cycle: 10   F: -6058.750282502990558   dF: -2.085e-03   |Residual|: 7.294e-03   |deigs|: 2.982e-05  t[s]:  24601.01
	FillingsUpdate:  mu: +0.753531302  nElectrons: 870.000000
SCF: Cycle: 11   F: -6058.749632447443219   dF: +6.501e-04   |Residual|: 1.600e-02   |deigs|: 2.798e-05  t[s]:  24814.68
	FillingsUpdate:  mu: +0.753548489  nElectrons: 870.000000
SCF: Cycle: 12   F: -6058.750420654982918   dF: -7.882e-04   |Residual|: 3.953e-03   |deigs|: 2.293e-05  t[s]:  25028.51
	FillingsUpdate:  mu: +0.753540317  nElectrons: 870.000000
SCF: Cycle: 13   F: -6058.750368020503629   dF: +5.263e-05   |Residual|: 5.999e-03   |deigs|: 1.128e-05  t[s]:  25241.70
	FillingsUpdate:  mu: +0.753537601  nElectrons: 870.000000
SCF: Cycle: 14   F: -6058.750384387259146   dF: -1.637e-05   |Residual|: 5.274e-03   |deigs|: 1.181e-05  t[s]:  25454.95
	FillingsUpdate:  mu: +0.753539401  nElectrons: 870.000000
SCF: Cycle: 15   F: -6058.750491654283906   dF: -1.073e-04   |Residual|: 6.905e-04   |deigs|: 6.974e-06  t[s]:  25668.07
	FillingsUpdate:  mu: +0.753539734  nElectrons: 870.000000
SCF: Cycle: 16   F: -6058.750489322648718   dF: +2.332e-06   |Residual|: 1.062e-03   |deigs|: 1.867e-06  t[s]:  25881.32
	FillingsUpdate:  mu: +0.753539238  nElectrons: 870.000000
SCF: Cycle: 17   F: -6058.750492590811518   dF: -3.268e-06   |Residual|: 5.310e-04   |deigs|: 1.635e-06  t[s]:  26096.77
	FillingsUpdate:  mu: +0.753539052  nElectrons: 870.000000
SCF: Cycle: 18   F: -6058.750493356765219   dF: -7.660e-07   |Residual|: 1.746e-04   |deigs|: 1.019e-06  t[s]:  26310.19
	FillingsUpdate:  mu: +0.753538786  nElectrons: 870.000000
SCF: Cycle: 19   F: -6058.750492376661896   dF: +9.801e-07   |Residual|: 5.863e-04   |deigs|: 8.602e-07  t[s]:  26523.57
	FillingsUpdate:  mu: +0.753539270  nElectrons: 870.000000
SCF: Cycle: 20   F: -6058.750493404518238   dF: -1.028e-06   |Residual|: 1.189e-04   |deigs|: 9.211e-07  t[s]:  26736.58
	FillingsUpdate:  mu: +0.753539175  nElectrons: 870.000000
SCF: Cycle: 21   F: -6058.750493431682116   dF: -2.716e-08   |Residual|: 9.012e-05   |deigs|: 2.454e-07  t[s]:  26930.39
	FillingsUpdate:  mu: +0.753539195  nElectrons: 870.000000
SCF: Cycle: 22   F: -6058.750493441834806   dF: -1.015e-08   |Residual|: 7.603e-05   |deigs|: 1.931e-07  t[s]:  27144.02
	FillingsUpdate:  mu: +0.753539128  nElectrons: 870.000000
SCF: Cycle: 23   F: -6058.750493452031151   dF: -1.020e-08   |Residual|: 5.072e-05   |deigs|: 1.065e-07  t[s]:  27356.03
	FillingsUpdate:  mu: +0.753539112  nElectrons: 870.000000
SCF: Cycle: 24   F: -6058.750493455890137   dF: -3.859e-09   |Residual|: 3.764e-05   |deigs|: 6.797e-08  t[s]:  27560.72
	FillingsUpdate:  mu: +0.753539103  nElectrons: 870.000000
SCF: Cycle: 25   F: -6058.750493458768688   dF: -2.879e-09   |Residual|: 3.027e-05   |deigs|: 6.586e-08  t[s]:  27740.25
SCF: Converged (|Delta E|<1.000000e-08 for 2 iters).

Setting wave functions to eigenvectors of Hamiltonian

# Ionic positions in lattice coordinates:
ion Mn   0.005000000000000   0.000000000000000   0.000000000000000 0
ion Mn   0.313778199629412   0.313385406161482   0.325236556865550 1
ion Mn   0.176593019014173   0.175345246269948   0.824853501078235 1
ion Mn   0.814026375945511   0.175694030175706   0.186900145868957 1
ion Mn   0.176530730977667   0.813429944333915   0.186859855464641 1
ion Mn   0.352035872891194   0.035008514581732   0.362965096516575 1
ion Mn   0.138634837061033   0.454499189621295   0.862835451115684 1
ion Mn   0.851593858961372   0.459432253631069   0.149077003889707 1
ion Mn   0.138393485822149   0.851357600674799   0.465384975989763 1
ion Mn   0.138349190598682   0.137731578253601   0.545895922428142 1
ion Mn   0.536166968053585   0.137367197950247   0.148712619219549 1
ion Mn   0.459974489624236   0.851179979883554   0.148919870137381 1
ion Mn   0.459734105418864   0.137190841041258   0.863415247455641 1
ion Mn   0.851720705433544   0.138026606483416   0.466167998403560 1
ion Mn   0.351477859284469   0.351244749245257   0.044778103936883 1
ion Mn   0.035648286459435   0.351471115242261   0.363391787655779 1
ion Mn   0.138417043934094   0.535256837373047   0.149105206350974 1
ion Mn   0.086251101736428   0.276826720131160   0.097580731029180 1
ion Mn   0.909233188988804   0.713464421375994   0.096283112517581 1
ion Mn   0.086690956140090   0.712463768231439   0.914825830872056 1
ion Mn   0.908462077978691   0.085037464694759   0.723835448441683 1
ion Mn   0.409597869126152   0.403225964572298   0.787670630073813 1
ion Mn   0.777163871171666   0.408417492163634   0.415338418715269 1
ion Mn   0.714397778257914   0.084942033381743   0.915543265958335 1
ion Mn   0.714478387287731   0.903711602022965   0.096421031633833 1
ion Mn   0.086443503501415   0.902429388024897   0.723350312415750 1
ion Mn   0.086783926354119   0.086417334111650   0.288039766732679 1
ion Mn   0.277727089989782   0.085675632491750   0.096911331377183 1
ion Mn   0.408728092962452   0.776592891232981   0.415102131782394 1
ion Mn   0.498638430672113   0.498192595458481   0.503005180630408 1
ion Mn   0.813912304967978   0.813374662966251   0.824703671409914 1
ion Mn   0.676303055950997   0.675690404439913   0.324761085791063 1
ion Mn   0.313993246159092   0.675531813751135   0.687119526944015 1
ion Mn   0.679962878447863   0.313131473321020   0.686923680501093 1
ion Mn   0.853852191051892   0.535081972186409   0.863037842948361 1
ion Mn   0.638094066380996   0.958285055344571   0.362633119930484 1
ion Mn   0.351719457652265   0.958715833967500   0.649120598202853 1
ion Mn   0.639147990749170   0.351062141857892   0.965779464120676 1
ion Mn   0.638344707222751   0.637410673470071   0.042937617061943 1
ion Mn   0.035991436643153   0.637268134173319   0.648619153852974 1
ion Mn   0.960196249463020   0.351204806743936   0.648866905345928 1
ion Mn   0.959162409014494   0.637720564229900   0.362854167421211 1
ion Mn   0.351767838354895   0.637293274487503   0.965738502411001 1
ion Mn   0.851496501698593   0.851316378550819   0.540912791169399 1
ion Mn   0.535913382774941   0.851275678361678   0.862785898820749 1
ion Mn   0.638526888563576   0.034967779090452   0.649309482612171 1
ion Mn   0.586276254688809   0.776804281428996   0.596772799434465 1
ion Mn   0.409071216878261   0.213214932445802   0.596411495385568 1
ion Mn   0.586693361485272   0.213251640148897   0.415424914070572 1
ion Mn   0.408967368464256   0.585458970405157   0.223781313679806 1
ion Mn   0.909196388608650   0.908219224120811   0.287101945332387 1
ion Mn   0.277778815902033   0.905299344417201   0.915028728092958 1
ion Mn   0.214285162678331   0.586112335540218   0.414546635733469 1
ion Mn   0.215276960366025   0.407000242096346   0.596333252442124 1
ion Mn   0.586570741060810   0.403284716542002   0.223714436391050 1
ion Mn   0.586463034342420   0.584987812858765   0.787663656946184 1
ion Mn   0.777373329747386   0.586106799488894   0.597158568411230 1
ion Mn   0.908379741310332   0.276266188088473   0.915370720935070 1

# Forces in Lattice coordinates:
force Mn  -0.171007896836877  -0.085416303193504   0.089026308640172 0
force Mn  -0.000453415821688  -0.000022272644379  -0.001306503870083 1
force Mn   0.001562969893406  -0.000492403464350   0.002574343696078 1
force Mn  -0.006116572089445   0.001148514712306  -0.000990342131514 1
force Mn  -0.000905902252962  -0.002520120005371  -0.000384112654422 1
force Mn  -0.000297998839480  -0.000117160582276   0.002167540847426 1
force Mn  -0.009218630918451  -0.000060472023968   0.000744123361430 1
force Mn   0.002976820497011  -0.002184046212903   0.000248161565167 1
force Mn   0.004254470938058  -0.002424244532405   0.001689534178482 1
force Mn   0.002788020939487   0.002039809812058   0.002893587978671 1
force Mn  -0.000161988969369  -0.000879755724753  -0.000143943056608 1
force Mn  -0.005758220777474   0.000066919382057  -0.001753236026429 1
force Mn  -0.002064275103393  -0.000346396134775  -0.000433981513977 1
force Mn  -0.000105668001990   0.000266222722139   0.003352924056300 1
force Mn   0.017272265819396  -0.002451506049672  -0.004903122367550 1
force Mn  -0.004518183320759   0.010041259776314  -0.003638224684052 1
force Mn   0.002298290202231  -0.004611689799672  -0.001487090198939 1
force Mn  -0.000617821088625   0.004963021378755  -0.005821691987583 1
force Mn  -0.000889886393331   0.004548213691397  -0.000531404948690 1
force Mn  -0.002748532496923   0.001249963955571  -0.000051324683250 1
force Mn  -0.005457168346774   0.001828990546404   0.000329091279877 1
force Mn  -0.006734485265111   0.000449599554166   0.001640477514072 1
force Mn  -0.000735767739333  -0.006292287387719  -0.002382967019777 1
force Mn   0.000417991138991   0.000838674592311  -0.001123793976189 1
force Mn  -0.001656115628308  -0.001877337433930  -0.000790956838732 1
force Mn   0.001078431669742   0.002598040902931  -0.000402762782623 1
force Mn   0.000406099439602  -0.002365578579724  -0.000551046360532 1
force Mn   0.002735175221271  -0.003262055836684  -0.006313067449641 1
force Mn  -0.006907205439090   0.001398433166800   0.000306603869582 1
force Mn  -0.000604223646952  -0.001532258473052  -0.000545464948312 1
force Mn   0.000511518637790   0.000367547166661   0.000430423580347 1
force Mn   0.000207019867805   0.000116720178609   0.000311148150803 1
force Mn   0.010429833483652  -0.000788213751279   0.000492771398080 1
force Mn  -0.032691368632468   0.000699701444534   0.000239939454840 1
force Mn  -0.029123814706061  -0.001610742999356  -0.003298070717294 1
force Mn   0.000077615235386   0.000371821319420   0.001389345239311 1
force Mn  -0.004240337155798  -0.002397504561368  -0.000056660115481 1
force Mn  -0.021733290014027  -0.003173032093970   0.003871707467898 1
force Mn  -0.001895137783901   0.003817858217887   0.007006449587371 1
force Mn  -0.003222750144890  -0.000860461890404   0.002367393521725 1
force Mn  -0.006463513520016   0.002259289436358  -0.001738217726305 1
force Mn   0.001442974439483  -0.000981046639844   0.000840712985793 1
force Mn  -0.000476265453670   0.000256819800317   0.001341879256402 1
force Mn   0.001636179396221  -0.003484443583268   0.002676313833570 1
force Mn   0.000319637397556   0.000165070734614   0.002368286151345 1
force Mn  -0.001854086939340  -0.001076615538477  -0.002307767897416 1
force Mn   0.006655049078929  -0.000005477574540   0.000835365967216 1
force Mn  -0.000934778171875  -0.004634385351344   0.000225862893365 1
force Mn   0.000041816546043  -0.000149444604575  -0.004668038910139 1
force Mn  -0.005509329063462   0.000148111625941  -0.004168098808744 1
force Mn  -0.002190676753737  -0.001061459106769  -0.004686210344072 1
force Mn  -0.006670519793810  -0.014346160096137  -0.001146978938992 1
force Mn  -0.003850668781665  -0.003430521225583   0.001918394083968 1
force Mn  -0.031381706967878  -0.007968648586480   0.001442576709505 1
force Mn   0.002646922791499  -0.000693280199388   0.000828581321107 1
force Mn  -0.001779148252015   0.005148571924496  -0.002028278359486 1
force Mn  -0.002205816261112   0.005580876858347  -0.003092142641403 1
force Mn  -0.004191547288160  -0.001702643526545  -0.001341427935029 1

# Energy components:
   Eewald =    -4532.4650027280140421
       EH =     1385.6190548837821552
     Eloc =    -4454.5774086083583825
      Enl =     1004.5358991120531300
      Exc =     -761.9823266854319854
 Exc_core =       62.9900806592294060
       KE =     1237.8564011660737378
-------------------------------------
     Etot =    -6058.0233022006659667
       TS =        0.7271912581030606
-------------------------------------
        F =    -6058.7504934587686876

IonicMinimize: Iter:   3  F: -6058.750493458768688  |grad|_K:  3.519e-04  alpha:  1.000e+00  linmin: -1.506e-01  t[s]:  27778.72

#--- Lowdin population analysis ---
# oxidation-state Mn +0.095 +0.080 +0.077 +0.081 +0.079 +0.014 +0.014 +0.015 +0.015 +0.015 +0.013 +0.015 +0.014 +0.015 +0.016 +0.014 +0.015 -0.024 -0.022 -0.025 -0.024 -0.022 -0.023 -0.022 -0.021 -0.024 -0.026 -0.024 -0.023 +0.094 +0.082 +0.079 +0.080 +0.079 +0.014 +0.014 +0.015 +0.014 +0.014 +0.013 +0.014 +0.014 +0.015 +0.016 +0.013 +0.014 -0.024 -0.022 -0.025 -0.023 -0.022 -0.024 -0.023 -0.022 -0.025 -0.025 -0.024 -0.024


-------- Electronic minimization -----------
Will mix electronic density at each iteration.
	FillingsUpdate:  mu: +0.753539103  nElectrons: 870.000000
	FillingsUpdate:  mu: +0.752369549  nElectrons: 870.000000
SCF: Cycle:  0   F: -6034.424945336488236   dF: +2.307e+01   |Residual|: 2.045e+00   |deigs|: 1.234e-03  t[s]:  28270.51
	FillingsUpdate:  mu: +0.755809597  nElectrons: 870.000000
SCF: Cycle:  1   F: -5636.851309237019450   dF: +3.976e+02   |Residual|: 8.439e+00   |deigs|: 8.637e-02  t[s]:  28632.50
	FillingsUpdate:  mu: +0.762817484  nElectrons: 870.000000
SCF: Cycle:  2   F: -6006.909017212420622   dF: -3.701e+02   |Residual|: 3.800e+00   |deigs|: 7.148e-02  t[s]:  28994.71
	FillingsUpdate:  mu: +0.762766575  nElectrons: 870.000000
SCF: Cycle:  3   F: -6049.910769302033259   dF: -4.300e+01   |Residual|: 1.521e+00   |deigs|: 2.033e-02  t[s]:  29356.48
	FillingsUpdate:  mu: +0.757812498  nElectrons: 870.000000
SCF: Cycle:  4   F: -6048.326046625789786   dF: +1.585e+00   |Residual|: 1.759e+00   |deigs|: 6.987e-03  t[s]:  29717.79
	FillingsUpdate:  mu: +0.750078718  nElectrons: 870.000000
SCF: Cycle:  5   F: -6054.899402212332461   dF: -6.573e+00   |Residual|: 9.698e-01   |deigs|: 8.691e-03  t[s]:  30080.23
	FillingsUpdate:  mu: +0.751676912  nElectrons: 870.000000
SCF: Cycle:  6   F: -6053.642948847545085   dF: +1.256e+00   |Residual|: 1.188e+00   |deigs|: 1.851e-03  t[s]:  30442.26
	FillingsUpdate:  mu: +0.754591053  nElectrons: 870.000000
SCF: Cycle:  7   F: -6058.286477528469732   dF: -4.644e+00   |Residual|: 3.575e-01   |deigs|: 4.342e-03  t[s]:  30804.12
	FillingsUpdate:  mu: +0.754439709  nElectrons: 870.000000
SCF: Cycle:  8   F: -6058.665201549887570   dF: -3.787e-01   |Residual|: 1.607e-01   |deigs|: 7.290e-04  t[s]:  31158.01
	FillingsUpdate:  mu: +0.754017261  nElectrons: 870.000000
SCF: Cycle:  9   F: -6058.405242609721427   dF: +2.600e-01   |Residual|: 2.924e-01   |deigs|: 5.055e-04  t[s]:  31520.45
	FillingsUpdate:  mu: +0.753795906  nElectrons: 870.000000
SCF: Cycle: 10   F: -6058.711997156501639   dF: -3.068e-01   |Residual|: 9.890e-02   |deigs|: 4.776e-04  t[s]:  31776.10
	FillingsUpdate:  mu: +0.753574491  nElectrons: 870.000000
SCF: Cycle: 11   F: -6058.690385187692300   dF: +2.161e-02   |Residual|: 1.349e-01   |deigs|: 2.233e-04  t[s]:  31989.85
	FillingsUpdate:  mu: +0.753577629  nElectrons: 870.000000
SCF: Cycle: 12   F: -6058.737447810062804   dF: -4.706e-02   |Residual|: 5.594e-02   |deigs|: 1.262e-04  t[s]:  32203.55
	FillingsUpdate:  mu: +0.753578205  nElectrons: 870.000000
SCF: Cycle: 13   F: -6058.710461574483816   dF: +2.699e-02   |Residual|: 1.030e-01   |deigs|: 9.843e-05  t[s]:  32416.49
	FillingsUpdate:  mu: +0.753552237  nElectrons: 870.000000
SCF: Cycle: 14   F: -6058.747796354336970   dF: -3.733e-02   |Residual|: 2.150e-02   |deigs|: 1.329e-04  t[s]:  32630.49
	FillingsUpdate:  mu: +0.753549223  nElectrons: 870.000000
SCF: Cycle: 15   F: -6058.747951633411503   dF: -1.553e-04   |Residual|: 2.420e-02   |deigs|: 3.434e-05  t[s]:  32843.59
	FillingsUpdate:  mu: +0.753534942  nElectrons: 870.000000
SCF: Cycle: 16   F: -6058.749115134548447   dF: -1.164e-03   |Residual|: 1.515e-02   |deigs|: 2.764e-05  t[s]:  33057.01
	FillingsUpdate:  mu: +0.753535870  nElectrons: 870.000000
SCF: Cycle: 17   F: -6058.747767225611824   dF: +1.348e-03   |Residual|: 2.414e-02   |deigs|: 4.545e-05  t[s]:  33270.43
	FillingsUpdate:  mu: +0.753522065  nElectrons: 870.000000
SCF: Cycle: 18   F: -6058.748391595046996   dF: -6.244e-04   |Residual|: 2.053e-02   |deigs|: 4.467e-05  t[s]:  33483.70
	FillingsUpdate:  mu: +0.753526850  nElectrons: 870.000000
SCF: Cycle: 19   F: -6058.749429114638588   dF: -1.038e-03   |Residual|: 1.164e-02   |deigs|: 3.375e-05  t[s]:  33697.08
	FillingsUpdate:  mu: +0.753531411  nElectrons: 870.000000
SCF: Cycle: 20   F: -6058.749939447649012   dF: -5.103e-04   |Residual|: 1.664e-03   |deigs|: 1.516e-05  t[s]:  33910.53
	FillingsUpdate:  mu: +0.753523831  nElectrons: 870.000000
SCF: Cycle: 21   F: -6058.749668310033485   dF: +2.711e-04   |Residual|: 8.636e-03   |deigs|: 1.473e-05  t[s]:  34124.18
	FillingsUpdate:  mu: +0.753527161  nElectrons: 870.000000
[...]
ion Mn   0.813395746551445   0.813008728041461   0.824703004608524 1
ion Mn   0.675596069230565   0.675131979602441   0.325092004481932 1
ion Mn   0.313361048190336   0.674946800818762   0.686963956028619 1
ion Mn   0.675383157084761   0.313006744898442   0.687133061522107 1
ion Mn   0.851361020653857   0.535159406367047   0.863260818005672 1
ion Mn   0.637527672894747   0.954452476141771   0.362881934264463 1
ion Mn   0.351189026249588   0.955732068108541   0.649214628973728 1
ion Mn   0.637633430885085   0.351138503761965   0.966790309161667 1
ion Mn   0.637523606919615   0.637132462328063   0.046363197802639 1
ion Mn   0.035120090992704   0.636877576783386   0.648962182008793 1
ion Mn   0.954036491303986   0.351107161208286   0.648897650422700 1
ion Mn   0.958397718471000   0.637481415125347   0.362856725053382 1
ion Mn   0.351581742735143   0.636825834364443   0.965475778303598 1
ion Mn   0.851182027606779   0.850807389953902   0.541111845229164 1
ion Mn   0.535650001194253   0.850870470352128   0.863095543891137 1
ion Mn   0.637600980722628   0.033927230728223   0.648909084349564 1
ion Mn   0.585381023363624   0.776177895031211   0.596368062356050 1
ion Mn   0.407348192299333   0.212378480244487   0.595958773304320 1
ion Mn   0.586083548071487   0.212399459717079   0.415009505610093 1
ion Mn   0.403081629056091   0.585168549710646   0.223988047634666 1
ion Mn   0.909379523348122   0.907792160958718   0.287075286430079 1
ion Mn   0.277068760917152   0.902976352460633   0.914949191058191 1
ion Mn   0.212771602022024   0.584328290198524   0.416655844500127 1
ion Mn   0.212871349875425   0.402408037516512   0.597194735195577 1
ion Mn   0.585096101526038   0.403852324200279   0.223987197999474 1
ion Mn   0.585797077807620   0.585076587296524   0.787995688627530 1
ion Mn   0.776516619959648   0.585656802772271   0.596324186040382 1
ion Mn   0.902589063083824   0.276070768073597   0.915381501631527 1

# Forces in Lattice coordinates:
force Mn  -0.185000127828175  -0.083407077443486   0.079748355075977 0
force Mn   0.003191193131499  -0.000265047628614  -0.000553202055861 1
force Mn   0.000851714375981   0.001020875165060   0.000080371418311 1
force Mn   0.000117426340205  -0.000478960303464   0.000203531361261 1
force Mn   0.001201644055152  -0.000116883033837   0.000696436522876 1
force Mn   0.001115751946111  -0.001536384473260   0.001991634018505 1
force Mn   0.000372812543953   0.000790484573178   0.000379543131573 1
force Mn   0.002436023731393  -0.001379124968655   0.000773804146506 1
force Mn   0.000552709450734   0.001966561840961   0.000423930958046 1
force Mn  -0.001496780167819  -0.003974084360459  -0.002818472702564 1
force Mn   0.001365117817995  -0.001288876062276  -0.000767996776718 1
force Mn  -0.001408976829958   0.000023283487797  -0.001094816271566 1
force Mn   0.001925971620185  -0.000782495943321  -0.000671368606953 1
force Mn   0.002917284310826  -0.001796327581675   0.001502092738368 1
force Mn   0.003573902488242   0.000462776365598   0.001158309026779 1
force Mn  -0.002265521250527   0.001400798568726   0.000393096454906 1
force Mn   0.001222213806991   0.001825212692623   0.000476437260974 1
force Mn  -0.000711525299247   0.003879090229470   0.001195329202945 1
force Mn  -0.000291581534785  -0.001403579102807  -0.000230381422907 1
force Mn  -0.000329348704131  -0.003825609000214   0.002164266449443 1
force Mn   0.006773823156800   0.001158522180526  -0.004208100430498 1
force Mn  -0.000357738790575  -0.000988409557906  -0.002071185918149 1
force Mn  -0.000908613988347  -0.002888638321811   0.001121934746115 1
force Mn  -0.000134877308438   0.000044170285245  -0.000657026990504 1
force Mn  -0.001210186598902  -0.000582378471838  -0.001454247470678 1
force Mn   0.001922632984725  -0.002187008620860  -0.003247476937242 1
force Mn  -0.003847329973793  -0.003013128501134   0.004180499586501 1
force Mn   0.003965124581171  -0.001363528978098  -0.002450391901713 1
force Mn  -0.004899327039745   0.000154035559535   0.001162364106758 1
force Mn   0.001730660940823  -0.000148662165191  -0.001585912493927 1
force Mn   0.000338732135434  -0.000068623597732  -0.000489228817573 1
force Mn   0.001959336512446  -0.000402740686956   0.001110112795727 1
force Mn   0.001572451400131  -0.000506739771267   0.001712210325644 1
force Mn   0.001734477093764   0.001198784179947  -0.004364102196963 1
force Mn   0.004270915091618   0.000275548521019  -0.001619985276613 1
force Mn  -0.000501399037737  -0.007428798184534  -0.000411540699991 1
force Mn  -0.001390804053303  -0.001182191376943  -0.001003870331131 1
force Mn  -0.003580533028529   0.001163999179893  -0.000582456715039 1
force Mn  -0.001713530848800   0.001747955740337  -0.001194379359846 1
force Mn  -0.001139077479309  -0.000081908526877   0.002058193195905 1
force Mn  -0.002934808653090  -0.002691233690546   0.001339348453485 1
force Mn  -0.000758601731662  -0.001072326552425   0.000598521449922 1
force Mn  -0.000757253614583   0.000317313319826   0.000038481206298 1
force Mn   0.001898757923516   0.001529887015954   0.001354457355452 1
force Mn   0.000408300451307   0.000154667836597   0.000919620293112 1
force Mn   0.000038867865253   0.000279094451042  -0.000654382823005 1
force Mn  -0.003526538141317  -0.001388095129458  -0.001934588219652 1
force Mn  -0.000143140765028  -0.000675346544039   0.000960118210521 1
force Mn  -0.002981177859642   0.001240349064641  -0.000123338321607 1
force Mn   0.008007570863071   0.000457525635873   0.001427910812712 1
force Mn  -0.000596533523636  -0.000421072417899   0.001726713811843 1
force Mn   0.002903226252094   0.001318430051897   0.000643632318739 1
force Mn   0.001373399444239  -0.006609715597500   0.003455582162783 1
force Mn   0.004591194399187   0.005397943230570   0.001423399068760 1
force Mn  -0.000969256255836   0.000985496282745   0.002187260488066 1
force Mn  -0.001446119107523   0.001487608626890  -0.003259221111071 1
force Mn  -0.001681110735520  -0.003148520205144  -0.002577733260155 1
force Mn   0.007226284637162   0.001791609197341   0.001927479215461 1

# Energy components:
   Eewald =    -4532.6910759909969784
       EH =     1385.4101159528731841
     Eloc =    -4454.1288234332942011
      Enl =     1004.5342347812813841
      Exc =     -761.9763852603196028
 Exc_core =       62.9898635202872867
       KE =     1237.8391181467886781
-------------------------------------
     Etot =    -6058.0229522833806186
       TS =        0.7280490502942796
-------------------------------------
        F =    -6058.7510013336750490

IonicMinimize: Iter:  14  F: -6058.751001333675049  |grad|_K:  1.386e-04  alpha:  1.000e+00  linmin:  3.722e-03  t[s]:  92089.12

#--- Lowdin population analysis ---
# oxidation-state Mn +0.094 +0.080 +0.077 +0.080 +0.079 +0.015 +0.015 +0.015 +0.014 +0.015 +0.014 +0.015 +0.015 +0.014 +0.016 +0.014 +0.014 -0.024 -0.022 -0.024 -0.023 -0.023 -0.023 -0.023 -0.022 -0.024 -0.025 -0.024 -0.023 +0.094 +0.081 +0.078 +0.079 +0.078 +0.015 +0.015 +0.016 +0.014 +0.014 +0.014 +0.015 +0.015 +0.015 +0.015 +0.014 +0.014 -0.024 -0.023 -0.024 -0.023 -0.022 -0.024 -0.024 -0.022 -0.024 -0.024 -0.024 -0.024


-------- Electronic minimization -----------
Will mix electronic density at each iteration.
	FillingsUpdate:  mu: +0.753574402  nElectrons: 870.000000
	FillingsUpdate:  mu: +0.753575586  nElectrons: 870.000000
SCF: Cycle:  0   F: -6058.750889896945409   dF: +9.425e-05   |Residual|: 4.819e-03   |deigs|: 2.839e-07  t[s]:  92443.29
	FillingsUpdate:  mu: +0.753582701  nElectrons: 870.000000
SCF: Cycle:  1   F: -6058.744422352231595   dF: +6.468e-03   |Residual|: 3.764e-02   |deigs|: 3.596e-05  t[s]:  92656.66
	FillingsUpdate:  mu: +0.753576249  nElectrons: 870.000000
SCF: Cycle:  2   F: -6058.750933669022743   dF: -6.511e-03   |Residual|: 4.928e-03   |deigs|: 3.292e-05  t[s]:  92869.54
	FillingsUpdate:  mu: +0.753575419  nElectrons: 870.000000
SCF: Cycle:  3   F: -6058.750974721008788   dF: -4.105e-05   |Residual|: 3.201e-03   |deigs|: 5.639e-06  t[s]:  93081.67
	FillingsUpdate:  mu: +0.753576272  nElectrons: 870.000000
SCF: Cycle:  4   F: -6058.750939792884310   dF: +3.493e-05   |Residual|: 4.353e-03   |deigs|: 4.880e-06  t[s]:  93294.63
	FillingsUpdate:  mu: +0.753575614  nElectrons: 870.000000
SCF: Cycle:  5   F: -6058.751010850975945   dF: -7.106e-05   |Residual|: 6.638e-04   |deigs|: 4.587e-06  t[s]:  93507.58
	FillingsUpdate:  mu: +0.753575837  nElectrons: 870.000000
SCF: Cycle:  6   F: -6058.751010599006804   dF: +2.520e-07   |Residual|: 7.408e-04   |deigs|: 1.057e-06  t[s]:  93721.35
	FillingsUpdate:  mu: +0.753575700  nElectrons: 870.000000
SCF: Cycle:  7   F: -6058.751010636280625   dF: -3.727e-08   |Residual|: 7.329e-04   |deigs|: 7.961e-07  t[s]:  93934.50
	FillingsUpdate:  mu: +0.753575539  nElectrons: 870.000000
SCF: Cycle:  8   F: -6058.751012419802464   dF: -1.784e-06   |Residual|: 6.852e-05   |deigs|: 6.803e-07  t[s]:  94147.92
	FillingsUpdate:  mu: +0.753575769  nElectrons: 870.000000
SCF: Cycle:  9   F: -6058.751012344493574   dF: +7.531e-08   |Residual|: 1.538e-04   |deigs|: 4.436e-07  t[s]:  94324.94
	FillingsUpdate:  mu: +0.753575732  nElectrons: 870.000000
SCF: Cycle: 10   F: -6058.751012430017909   dF: -8.552e-08   |Residual|: 4.448e-05   |deigs|: 3.496e-07  t[s]:  94538.13
	FillingsUpdate:  mu: +0.753575698  nElectrons: 870.000000
SCF: Cycle: 11   F: -6058.751012435072880   dF: -5.055e-09   |Residual|: 2.235e-05   |deigs|: 9.739e-08  t[s]:  94729.56
	FillingsUpdate:  mu: +0.753575659  nElectrons: 870.000000
SCF: Cycle: 12   F: -6058.751012433463984   dF: +1.609e-09   |Residual|: 3.311e-05   |deigs|: 8.751e-08  t[s]:  94891.42
	FillingsUpdate:  mu: +0.753575657  nElectrons: 870.000000
SCF: Cycle: 13   F: -6058.751012436083329   dF: -2.619e-09   |Residual|: 1.368e-05   |deigs|: 6.536e-08  t[s]:  95036.27
	FillingsUpdate:  mu: +0.753575671  nElectrons: 870.000000
SCF: Cycle: 14   F: -6058.751012434885524   dF: +1.198e-09   |Residual|: 2.398e-05   |deigs|: 2.650e-08  t[s]:  95165.34
	FillingsUpdate:  mu: +0.753575669  nElectrons: 870.000000
SCF: Cycle: 15   F: -6058.751012436039673   dF: -1.154e-09   |Residual|: 9.283e-06   |deigs|: 2.192e-08  t[s]:  95288.39
	FillingsUpdate:  mu: +0.753575673  nElectrons: 870.000000
SCF: Cycle: 16   F: -6058.751012436301608   dF: -2.619e-10   |Residual|: 2.397e-06   |deigs|: 1.181e-08  t[s]:  95412.16
SCF: Converged (|Delta E|<1.000000e-08 for 2 iters).

Setting wave functions to eigenvectors of Hamiltonian

# Ionic positions in lattice coordinates:
ion Mn   0.005000000000000   0.000000000000000   0.000000000000000 0
ion Mn   0.313297467681371   0.313114700583137   0.325081858708714 1
ion Mn   0.175741380473395   0.174944117053677   0.825059749311629 1
ion Mn   0.813379847351994   0.175517109358242   0.186970585077543 1
ion Mn   0.175904814078674   0.813117076687583   0.187054176683655 1
ion Mn   0.351564710930314   0.034898298773296   0.363183066771249 1
ion Mn   0.137295402688736   0.453050985481995   0.862829055825173 1
ion Mn   0.851153744495812   0.459085449803593   0.149291202973157 1
ion Mn   0.137696668529604   0.851243187399756   0.466023059019375 1
ion Mn   0.137219272521621   0.137127372358256   0.546963170151492 1
ion Mn   0.535585734452785   0.137031498927815   0.149118799446563 1
ion Mn   0.458169735148211   0.850919242309703   0.149104039914605 1
ion Mn   0.458604334608114   0.136952365170448   0.863098579192616 1
ion Mn   0.851317438401426   0.137282237009229   0.465509676431195 1
ion Mn   0.351203569791977   0.350802248613654   0.044532819976762 1
ion Mn   0.034925194059790   0.351150795673593   0.363252299210455 1
ion Mn   0.137726670924563   0.534255134921205   0.148848232291745 1
ion Mn   0.085043419256562   0.276476121596290   0.096296281675993 1
ion Mn   0.909086277040465   0.713279599467860   0.095951851660690 1
ion Mn   0.086224199880840   0.712068148718354   0.914497885405089 1
ion Mn   0.902921541263686   0.084814101596786   0.724024755658058 1
ion Mn   0.407071332376813   0.403199934059776   0.787707853249593 1
ion Mn   0.776364450185251   0.404993259791584   0.414880773037847 1
ion Mn   0.712974187519378   0.083126459120054   0.917373581303764 1
ion Mn   0.714107671791232   0.902601895771351   0.097367217321381 1
ion Mn   0.084971880838624   0.903222644722536   0.723593376890310 1
ion Mn   0.086728029836722   0.086437792361427   0.287887918859361 1
ion Mn   0.277216235500253   0.085194727836767   0.096308869201575 1
ion Mn   0.403652049376308   0.776111920314440   0.415135035788719 1
ion Mn   0.497914948374879   0.497884954830953   0.502923757825062 1
ion Mn   0.813386429926935   0.813006719146545   0.824679103439947 1
ion Mn   0.675609600437763   0.675111069067264   0.325086562377910 1
ion Mn   0.313376662038196   0.674916333594413   0.686986622687985 1
ion Mn   0.675345378990829   0.312986148191800   0.687111066930771 1
ion Mn   0.851366487981539   0.535135701653612   0.863233052142782 1
ion Mn   0.637489196704715   0.954084204229060   0.362888697213894 1
ion Mn   0.351180788724343   0.955680596559976   0.649200359534184 1
ion Mn   0.637653115591660   0.351118740061858   0.966779143700968 1
ion Mn   0.637493440964396   0.637166812135734   0.046277640141883 1
ion Mn   0.035094301548007   0.636864585276597   0.648971451593644 1
ion Mn   0.953880029520050   0.351086744538106   0.648905426614654 1
ion Mn   0.958296125742701   0.637466758241518   0.362832787199910 1
ion Mn   0.351578193103052   0.636818801269696   0.965458055350723 1
ion Mn   0.851195917912314   0.850834175484045   0.541148451928070 1
ion Mn   0.535669311788086   0.850879973201639   0.863091120219893 1
ion Mn   0.637629011430180   0.033961880962174   0.648918962640991 1
ion Mn   0.585294886419556   0.776135682345464   0.596309196638639 1
ion Mn   0.407258272703018   0.212328309061448   0.595982720718012 1
ion Mn   0.586022916101474   0.212382826833720   0.414996318308101 1
ion Mn   0.403148811238228   0.585221214138106   0.224017182849340 1
ion Mn   0.909340131073765   0.907768542775148   0.287070451710638 1
ion Mn   0.277127294419069   0.902936319768600   0.914974817562439 1
ion Mn   0.212741629909797   0.584157124103646   0.416777854281009 1
ion Mn   0.212845842251249   0.402350522641073   0.597255379559195 1
ion Mn   0.585069729145055   0.403945435826933   0.224011527731726 1
ion Mn   0.585819177212793   0.585045613282388   0.787910878515301 1
ion Mn   0.776467231391229   0.585616303550081   0.596248724430392 1
ion Mn   0.902769314901527   0.276059865430415   0.915436024742659 1

# Forces in Lattice coordinates:
force Mn  -0.184287518038914  -0.083426470617400   0.079999679044141 0
force Mn   0.001037347033057  -0.000652093619255   0.000078788768285 1
force Mn  -0.000015840373635  -0.000404022997836   0.000380590803502 1
force Mn  -0.000998755973979  -0.000161104746699   0.000551162397294 1
force Mn   0.000979962485206   0.000228748705622  -0.000271729088517 1
force Mn   0.000975333553290  -0.001249411466461  -0.000086625463449 1
force Mn  -0.001803859158915  -0.000562118710639   0.001049285946761 1
force Mn   0.001049041271777  -0.001533799833399   0.000176483001487 1
force Mn  -0.000238246021824  -0.000775611061702  -0.000209251746199 1
force Mn   0.000681774551510  -0.001406587038332  -0.001519806980079 1
force Mn   0.000830802955305  -0.000135405112411  -0.000205279453331 1
force Mn  -0.000588977521081   0.000498449374438  -0.001160143141600 1
force Mn   0.001466710592941   0.000031946958384   0.000054857914961 1
force Mn  -0.000230965150073  -0.000478052312184   0.000137475823045 1
force Mn   0.003339468274221   0.000196947493119   0.001078591273229 1
force Mn  -0.000877364714867   0.002054058142887   0.000204051510059 1
force Mn   0.000633191851216   0.001356902993876   0.000474112768604 1
force Mn  -0.001937174689619   0.000779726689377   0.000930628115222 1
force Mn  -0.000098264682140  -0.001343139968377   0.000897256732705 1
force Mn  -0.000778554228864  -0.000997094578272   0.001401226550422 1
force Mn   0.001832415460292  -0.000242996523457  -0.002873981446086 1
force Mn   0.000230991579519  -0.000441003886247  -0.001087173453557 1
force Mn   0.000479716479346  -0.003549691211401   0.001617615295963 1
force Mn  -0.000958536669168   0.000374402546822  -0.001450569596776 1
force Mn  -0.000227775457825   0.000370649911210  -0.001037273928945 1
force Mn   0.000656558529313  -0.002063157499068  -0.000687522507550 1
force Mn   0.000432339601208  -0.000000693654681  -0.000402766230464 1
force Mn   0.000933102087384   0.000173351038226  -0.001436314523071 1
force Mn  -0.002188665557603  -0.000536715722180   0.001218651720744 1
force Mn   0.002198216496937  -0.000767114007092   0.000390744047736 1
force Mn   0.000681562938762   0.000009253318922  -0.000680160990808 1
force Mn   0.001140582239628  -0.000198174003827   0.001113789951631 1
force Mn   0.000669474113757  -0.000314964112991   0.001305482030390 1
force Mn   0.002961751481439   0.001135508292668  -0.002996762246217 1
force Mn   0.003564150689201   0.000081746933632  -0.000983754828972 1
force Mn  -0.000511256750849  -0.003838540715854   0.000124634035885 1
force Mn  -0.000014196677370  -0.001126016870367   0.000024995058352 1
force Mn  -0.003583102298752   0.001822782231827   0.000080207156359 1
force Mn  -0.000600661337756  -0.000631258311945  -0.000683159259570 1
force Mn  -0.001753162306657   0.000211905797572   0.000871913557340 1
force Mn  -0.000947999614427  -0.000878470906217   0.000469884077841 1
force Mn   0.000517698880063  -0.000680576580791   0.001887234475255 1
force Mn   0.000321202590826  -0.000532252423201   0.000340907047132 1
force Mn   0.000373717352321  -0.000681152094238   0.002099855751069 1
force Mn   0.000434719670274  -0.000460367681297   0.000039869679200 1
force Mn  -0.000782629492033  -0.001502047721234  -0.001847048936674 1
force Mn  -0.002282191740827   0.000673658217811  -0.001549929681269 1
force Mn   0.000053802662629   0.001372755548957   0.000527732665897 1
force Mn  -0.000647937455598  -0.002078217565020  -0.000733695657201 1
force Mn   0.004770900992811  -0.000677184592108   0.000218014747787 1
force Mn  -0.000953418644865  -0.001671821517053   0.000970894175035 1
force Mn   0.000433961351329   0.002368928725338  -0.000346680179160 1
force Mn   0.000222167076473  -0.004535530054877   0.001626481413332 1
force Mn   0.004429400698524   0.005154561695150   0.001402744668280 1
force Mn   0.000900360172974  -0.000976942849650  -0.000426184507411 1
force Mn  -0.002254547625527   0.001957244638128   0.000461495374738 1
force Mn   0.000199182782291  -0.002097232574428  -0.002496558433462 1
force Mn   0.003096466443114   0.002752682992805   0.002022270587010 1

# Energy components:
   Eewald =    -4532.7013504467722669
       EH =     1385.4003064846535835
     Eloc =    -4454.1083488223566746
      Enl =     1004.5342089905176408
      Exc =     -761.9762015994051580
 Exc_core =       62.9898748358107312
       KE =     1237.8385444851101056
-------------------------------------
     Etot =    -6058.0229660724407950
       TS =        0.7280463638611061
-------------------------------------
        F =    -6058.7510124363016075

IonicMinimize: Iter:  15  F: -6058.751012436301608  |grad|_K:  9.149e-05  alpha:  1.000e+00  linmin: -3.067e-02  t[s]:  95450.66
IonicMinimize: Converged (|grad|_K<1.000000e-04).

#--- Lowdin population analysis ---
# oxidation-state Mn +0.094 +0.080 +0.078 +0.080 +0.079 +0.015 +0.015 +0.015 +0.014 +0.015 +0.014 +0.015 +0.015 +0.014 +0.016 +0.014 +0.014 -0.024 -0.022 -0.024 -0.023 -0.023 -0.023 -0.023 -0.022 -0.024 -0.025 -0.024 -0.024 +0.094 +0.081 +0.078 +0.079 +0.078 +0.015 +0.015 +0.016 +0.014 +0.014 +0.014 +0.015 +0.015 +0.015 +0.015 +0.014 +0.014 -0.024 -0.023 -0.024 -0.023 -0.022 -0.024 -0.024 -0.022 -0.024 -0.024 -0.024 -0.023


Dumping '/data/rc652/Mn/ion/Mn_ion.Ecomponents' ... done
End date and time: Tue Jul  2 15:34:17 2024  (Duration: 1-2:31:22.61)
Done!
