--------------------------------------------------------------------------
[[17336,1],1]: A high-performance Open MPI point-to-point messaging module
was unable to find any relevant network interfaces:

Module: OpenFabrics (openib)
  Host: node3212

Another transport will be used instead, although this may result in
lower performance.
--------------------------------------------------------------------------

*************** JDFTx 1.7.0 (git hash 3664913) ***************

Start date and time: Wed Jul 10 02:32:15 2024
Executable jdftx with command-line: -i Mn_int1.in
Running on hosts (process indices):  node3212.physics.cornell.edu (0-15)
Divided in process groups (process indices):  0 (0)  1 (1)  2 (2)  3 (3)  4 (4)  5 (5)  6 (6)  7 (7)  8 (8)  9 (9)  10 (10)  11 (11)  12 (12)  13 (13)  14 (14)  15 (15)
Resource initialization completed at t[s]:      0.02
Run totals: 16 processes, 32 threads, 0 GPUs


Input parsed successfully to the following command list (including defaults):

basis kpoint-dependent
coords-type Lattice
core-overlap-check vector
coulomb-interaction Periodic
davidson-band-ratio 1.1
dump End Ecomponents
dump-name /data/rc652/Mn/int1/Mn_int1.$VAR
elec-cutoff 20 100
elec-eigen-algo Davidson
elec-ex-corr gga-PBEsol
elec-smearing Fermi 0.01
electronic-minimize  \
	dirUpdateScheme      FletcherReeves \
	linminMethod         DirUpdateRecommended \
	nIterations          100 \
	history              15 \
	knormThreshold       0 \
	maxThreshold         no \
	energyDiffThreshold  1e-08 \
	nEnergyDiff          2 \
	alphaTstart          1 \
	alphaTmin            1e-10 \
	updateTestStepSize   yes \
	alphaTreduceFactor   0.1 \
	alphaTincreaseFactor 3 \
	nAlphaAdjustMax      3 \
	wolfeEnergy          0.0001 \
	wolfeGradient        0.9 \
	fdTest               no
electronic-scf  \
	nIterations	50 \
	energyDiffThreshold	1e-08 \
	residualThreshold	1e-07 \
	mixFraction	0.5 \
	qMetric	0.8 \
	history	10 \
	nEigSteps	2 \
	eigDiffThreshold	1e-08 \
	mixedVariable	Density \
	qKerker	0.8 \
	qKappa	-1 \
	verbose	no \
	mixFractionMag	1.5
exchange-regularization WignerSeitzTruncated
fluid None
fluid-ex-corr lda-TF lda-PZ
fluid-gummel-loop 10 1.000000e-05
fluid-minimize  \
	dirUpdateScheme      PolakRibiere \
	linminMethod         DirUpdateRecommended \
	nIterations          100 \
	history              15 \
	knormThreshold       0 \
	maxThreshold         no \
	energyDiffThreshold  0 \
	nEnergyDiff          2 \
	alphaTstart          1 \
	alphaTmin            1e-10 \
	updateTestStepSize   yes \
	alphaTreduceFactor   0.1 \
	alphaTincreaseFactor 3 \
	nAlphaAdjustMax      3 \
	wolfeEnergy          0.0001 \
	wolfeGradient        0.9 \
	fdTest               no
fluid-solvent H2O 55.338 ScalarEOS \
	epsBulk 78.4 \
	pMol 0.92466 \
	epsInf 1.77 \
	Pvap 1.06736e-10 \
	sigmaBulk 4.62e-05 \
	Rvdw 2.61727 \
	Res 1.42 \
	tauNuc 343133 \
	poleEl 15 7 1
forces-output-coords Positions
ion Mn   0.000000000000000   0.000000000000000   0.000000000000000 0
ion Mn   0.323884435127476   0.312150687028709   0.323438111765594 1
ion Mn   0.186332202950963   0.176060346417737   0.824081663977018 1
ion Mn   0.825156474357063   0.175925884878583   0.184948184855323 1
ion Mn   0.187336517719082   0.813484159877948   0.187229602965380 1
ion Mn   0.362481477841161   0.027825127411677   0.362794395748349 1
ion Mn   0.148223203524413   0.459198397034552   0.860578386072954 1
ion Mn   0.863100475832407   0.460551981682311   0.139469155003713 1
ion Mn   0.150673504730715   0.850334957920573   0.465838229358240 1
ion Mn   0.147534803532532   0.137411364697834   0.539537053264184 1
ion Mn   0.540490229774623   0.137088188794567   0.147582577907842 1
ion Mn   0.464427992078094   0.850945865981179   0.149970944322608 1
ion Mn   0.463536686870092   0.139662004592446   0.862537965565845 1
ion Mn   0.862296588427323   0.139810857575494   0.463267739107960 1
ion Mn   0.361974563836474   0.350976477427738   0.039342725882802 1
ion Mn   0.041002346067437   0.351351093132105   0.353149222281616 1
ion Mn   0.149089701009423   0.535131239012106   0.142524640910511 1
ion Mn   0.096041032168993   0.276331677488380   0.089559713814997 1
ion Mn   0.922231030947407   0.714596912902787   0.088083928074465 1
ion Mn   0.098997154161823   0.714527558265897   0.911081724994513 1
ion Mn   0.914681299498454   0.090580209521053   0.723194417908786 1
ion Mn   0.411987558030499   0.408481525077648   0.785574614161477 1
ion Mn   0.787113554583250   0.401026435224055   0.404279079517264 1
ion Mn   0.724500652261067   0.089127557751334   0.914413549125320 1
ion Mn   0.725216024124451   0.910011732220928   0.095858322830651 1
ion Mn   0.093211447854613   0.910682827376911   0.723132129486780 1
ion Mn   0.095270356410826   0.085463852128777   0.286397773305832 1
ion Mn   0.286848535955164   0.085910409390795   0.097031544603258 1
ion Mn   0.423164337302630   0.774900738025372   0.417629079522095 1
ion Mn   0.487590246812986   0.469566820053102   0.501416021618436 1
ion Mn   0.825606559297245   0.820239392786537   0.825935160660446 1
ion Mn   0.701722310971954   0.685942786716748   0.293216981568575 1
ion Mn   0.313927638813334   0.676083800588802   0.686189976075421 1
ion Mn   0.686170844696521   0.323312475648748   0.686018528213486 1
ion Mn   0.860810652586963   0.537506251918674   0.852171699751679 1
ion Mn   0.649611463762431   0.962521050129295   0.361983517561961 1
ion Mn   0.361944545001392   0.955606565786744   0.649174972209965 1
ion Mn   0.648318947359152   0.351823776035001   0.962978824236412 1
ion Mn   0.649713077690577   0.638705107930427   0.036235624544820 1
ion Mn   0.039093019588324   0.639359289404497   0.646993362293896 1
ion Mn   0.962356430472693   0.358278036230324   0.639571375426146 1
ion Mn   0.972136346276616   0.637928336021789   0.360709729419865 1
ion Mn   0.362690462221086   0.638569657458982   0.963339076175242 1
ion Mn   0.866319466126019   0.861335765611497   0.546934846496460 1
ion Mn   0.542975698634268   0.861913356994449   0.874258056001740 1
ion Mn   0.649618243583785   0.048942698376765   0.649220107031457 1
ion Mn   0.598859848200855   0.802861063573368   0.624218422311747 1
ion Mn   0.411702560044759   0.210482658097789   0.598133883831638 1
ion Mn   0.590371109568980   0.213005971167898   0.413323634953099 1
ion Mn   0.412733102296911   0.584288702847361   0.215034176780711 1
ion Mn   0.915794397771704   0.903495263599726   0.286809374612828 1
ion Mn   0.285998435595146   0.909504259780819   0.914881877535160 1
ion Mn   0.223522149285582   0.585384777855815   0.412069526688135 1
ion Mn   0.217468787612045   0.402768033407308   0.590558753389915 1
ion Mn   0.590923965794234   0.403172873631342   0.215014159714614 1
ion Mn   0.589830287611214   0.587319453469382   0.787836624560116 1
ion Mn   0.785842155540744   0.587547290247861   0.587091710545210 1
ion Mn   0.914629663213442   0.284205801290319   0.911919596671159 1
ion O   0.599188156737951   0.649233836995264   0.475116764224031 1
ion-species GBRV/$ID_pbesol.uspp
ion-width 0
ionic-minimize  \
	dirUpdateScheme      L-BFGS \
	linminMethod         DirUpdateRecommended \
	nIterations          50 \
	history              15 \
	knormThreshold       0.0001 \
	maxThreshold         no \
	energyDiffThreshold  1e-06 \
	nEnergyDiff          2 \
	alphaTstart          1 \
	alphaTmin            1e-10 \
	updateTestStepSize   yes \
	alphaTreduceFactor   0.1 \
	alphaTincreaseFactor 3 \
	nAlphaAdjustMax      3 \
	wolfeEnergy          0.0001 \
	wolfeGradient        0.9 \
	fdTest               no
kpoint   0.500000000000   0.500000000000   0.500000000000  1.00000000000000
kpoint-folding 4 4 4 
latt-move-scale 1 1 1
latt-scale 1 1 1 
lattice  \
	  16.046707305076136   -0.000000000000000   -0.000000000000000  \
	  -0.000000000000000   16.046707305076136    0.000000000000000  \
	  -0.000000000000000    0.000000000000000   16.046707305076136 
lattice-minimize  \
	dirUpdateScheme      L-BFGS \
	linminMethod         DirUpdateRecommended \
	nIterations          0 \
	history              15 \
	knormThreshold       0 \
	maxThreshold         no \
	energyDiffThreshold  1e-06 \
	nEnergyDiff          2 \
	alphaTstart          1 \
	alphaTmin            1e-10 \
	updateTestStepSize   yes \
	alphaTreduceFactor   0.1 \
	alphaTincreaseFactor 3 \
	nAlphaAdjustMax      3 \
	wolfeEnergy          0.0001 \
	wolfeGradient        0.9 \
	fdTest               no
lcao-params -1 1e-06 0.01
pcm-variant GLSSA13
perturb-minimize  \
	nIterations            0 \
	algorithm              MINRES \
	residualTol            0.0001 \
	residualDiffThreshold  0.0001 \
	CGBypass               no \
	recomputeResidual      no
spintype no-spin
subspace-rotation-factor 1 yes
symmetries automatic
symmetry-threshold 0.0001



---------- Setting up symmetries ----------

Found 48 point-group symmetries of the bravais lattice
Found 1 space-group symmetries with basis
Applied RMS atom displacement 0 bohrs to make symmetries exact.

---------- Initializing the Grid ----------
R = 
[      16.0467            0            0  ]
[            0      16.0467            0  ]
[            0            0      16.0467  ]
unit cell volume = 4131.98
G =
[   0.391556          0          0  ]
[          0   0.391556          0  ]
[          0          0   0.391556  ]
Minimum fftbox size, Smin = [  76  76  76  ]
Chosen fftbox size, S = [  80  80  80  ]

---------- Initializing tighter grid for wavefunction operations ----------
R = 
[      16.0467            0            0  ]
[            0      16.0467            0  ]
[            0            0      16.0467  ]
unit cell volume = 4131.98
G =
[   0.391556          0          0  ]
[          0   0.391556          0  ]
[          0          0   0.391556  ]
Minimum fftbox size, Smin = [  68  68  68  ]
Chosen fftbox size, S = [  70  70  70  ]

---------- Exchange Correlation functional ----------
Initalized PBEsol GGA exchange.
Initalized PBEsol GGA correlation.

---------- Setting up pseudopotentials ----------
Width of ionic core gaussian charges (only for fluid interactions / plotting) set to 0

Reading pseudopotential file '/home/rc652/build/pseudopotentials/GBRV/mn_pbesol.uspp':
  Title: Mn.  Created by USPP 7.3.6 on 22-9-15
  Reference state energy: -105.045521.  15 valence electrons in orbitals:
    |300>  occupation: 2  eigenvalue: -3.291699
    |310>  occupation: 6  eigenvalue: -2.146878
    |400>  occupation: 1.5  eigenvalue: -0.308679
    |320>  occupation: 5  eigenvalue: -0.392872
    |410>  occupation: 0  eigenvalue: -0.151407
  lMax: 2  lLocal: 3  QijEcut: 6
  6 projectors sampled on a log grid with 585 points:
    l: 0  eig: -3.291699  rCut: 1.45
    l: 0  eig: -0.308679  rCut: 1.45
    l: 1  eig: -2.146878  rCut: 1.45
    l: 1  eig: -0.151407  rCut: 1.45
    l: 2  eig: -0.392872  rCut: 1.7
    l: 2  eig: 0.500000  rCut: 1.7
  Partial core density with radius 0.65
  Transforming core density to a uniform radial grid of dG=0.02 with 1362 points.
  Transforming local potential to a uniform radial grid of dG=0.02 with 1362 points.
  Transforming nonlocal projectors to a uniform radial grid of dG=0.02 with 432 points.
  Transforming density augmentations to a uniform radial grid of dG=0.02 with 1362 points.
  Transforming atomic orbitals to a uniform radial grid of dG=0.02 with 432 points.
  Core radius for overlap checks: 1.70 bohrs.

Reading pseudopotential file '/home/rc652/build/pseudopotentials/GBRV/o_pbesol.uspp':
  Title: O.  Created by USPP 7.3.6 on 3-2-2014
  Reference state energy: -15.849885.  6 valence electrons in orbitals:
    |200>  occupation: 2  eigenvalue: -0.873214
    |210>  occupation: 4  eigenvalue: -0.330058
  lMax: 2  lLocal: 2  QijEcut: 6
  5 projectors sampled on a log grid with 511 points:
    l: 0  eig: -0.873214  rCut: 1.25
    l: 0  eig: 0.000000  rCut: 1.25
    l: 1  eig: -0.330058  rCut: 1.25
    l: 1  eig: 0.000000  rCut: 1.25
    l: 2  eig: 1.000000  rCut: 1.25
  Partial core density with radius 0.7
  Transforming core density to a uniform radial grid of dG=0.02 with 1362 points.
  Transforming local potential to a uniform radial grid of dG=0.02 with 1362 points.
  Transforming nonlocal projectors to a uniform radial grid of dG=0.02 with 432 points.
  Transforming density augmentations to a uniform radial grid of dG=0.02 with 1362 points.
  Transforming atomic orbitals to a uniform radial grid of dG=0.02 with 432 points.
  Core radius for overlap checks: 1.25 bohrs.

Initialized 2 species with 59 total atoms.

Folded 1 k-points by 4x4x4 to 64 k-points.

---------- Setting up k-points, bands, fillings ----------
Adding inversion symmetry to k-mesh for non-inversion-symmetric unit cell.
Reduced to 32 k-points under symmetry. 
Computing the number of bands and number of electrons
Calculating initial fillings.
nElectrons: 876.000000   nBands: 758   nStates: 32

----- Setting up reduced wavefunction bases (one per k-point) -----
average nbasis = 17652.875 , ideal nbasis = 17652.116

---------- Setting up ewald sum ----------
Optimum gaussian width for ewald sums = 3.244546 bohr.
Real space sum over 343 unit cells with max indices [  3  3  3  ]
Reciprocal space sum over 6859 terms with max indices [  9  9  9  ]

---------- Allocating electronic variables ----------
Initializing wave functions:  linear combination of atomic orbitals
Mn pseudo-atom occupations:   s ( 2 0 )  p ( 6 0 )  d ( 7 )
O pseudo-atom occupations:   s ( 2 )  p ( 4 )
	FillingsUpdate:  mu: +0.341754655  nElectrons: 876.000000
LCAOMinimize: Iter:   0  F: -6023.9909205968597234  |grad|_K:  3.186e-03  alpha:  1.000e+00
	FillingsUpdate:  mu: +0.541616891  nElectrons: 876.000000
LCAOMinimize: Iter:   1  F: -6046.6411125157674178  |grad|_K:  4.244e-03  alpha:  1.750e-01  linmin: -4.247e-02  cgtest:  2.288e-01  t[s]:    280.78
	FillingsUpdate:  mu: +0.561353530  nElectrons: 876.000000
LCAOMinimize: Iter:   2  F: -6061.2611920998206188  |grad|_K:  2.620e-03  alpha:  4.910e-02  linmin: -1.188e-01  cgtest:  2.932e-01  t[s]:    381.72
	FillingsUpdate:  mu: +0.691013212  nElectrons: 876.000000
LCAOMinimize: Iter:   3  F: -6067.6262725280248560  |grad|_K:  2.203e-03  alpha:  8.209e-02  linmin:  1.897e-02  cgtest: -4.224e-01  t[s]:    482.53
	FillingsUpdate:  mu: +0.754323857  nElectrons: 876.000000
LCAOMinimize: Iter:   4  F: -6070.0778820516397900  |grad|_K:  2.522e-03  alpha:  5.756e-02  linmin:  5.667e-04  cgtest:  7.026e-01  t[s]:    588.24
	FillingsUpdate:  mu: +0.759388687  nElectrons: 876.000000
LCAOMinimize: Iter:   5  F: -6073.0662641455164703  |grad|_K:  1.262e-03  alpha:  4.899e-02  linmin:  3.341e-02  cgtest: -8.809e-02  t[s]:    691.00
	FillingsUpdate:  mu: +0.766814222  nElectrons: 876.000000
LCAOMinimize: Iter:   6  F: -6073.4987457264560362  |grad|_K:  7.112e-04  alpha:  3.179e-02  linmin: -6.337e-04  cgtest:  2.761e-01  t[s]:    794.48
	FillingsUpdate:  mu: +0.771892426  nElectrons: 876.000000
LCAOMinimize: Iter:   7  F: -6073.6852856701116252  |grad|_K:  3.842e-04  alpha:  4.008e-02  linmin:  5.125e-03  cgtest: -1.700e-02  t[s]:    897.46
	FillingsUpdate:  mu: +0.771968948  nElectrons: 876.000000
LCAOMinimize: Iter:   8  F: -6073.7730465720132997  |grad|_K:  3.321e-04  alpha:  6.491e-02  linmin: -1.102e-03  cgtest:  2.765e-02  t[s]:   1002.24
	FillingsUpdate:  mu: +0.775090941  nElectrons: 876.000000
LCAOMinimize: Iter:   9  F: -6073.8303715510601251  |grad|_K:  1.974e-04  alpha:  5.626e-02  linmin: -8.928e-04  cgtest: -6.654e-02  t[s]:   1103.62
	FillingsUpdate:  mu: +0.776926312  nElectrons: 876.000000
LCAOMinimize: Iter:  10  F: -6073.8425649266982873  |grad|_K:  1.022e-04  alpha:  3.377e-02  linmin: -2.139e-04  cgtest: -2.231e-02  t[s]:   1208.17
	FillingsUpdate:  mu: +0.778167218  nElectrons: 876.000000
LCAOMinimize: Iter:  11  F: -6073.8467175777932425  |grad|_K:  5.128e-05  alpha:  4.312e-02  linmin:  1.160e-03  cgtest: -3.966e-03  t[s]:   1308.10
	FillingsUpdate:  mu: +0.778947368  nElectrons: 876.000000
LCAOMinimize: Iter:  12  F: -6073.8482285766076529  |grad|_K:  5.434e-05  alpha:  6.252e-02  linmin:  5.097e-04  cgtest:  2.440e-03  t[s]:   1411.03
	FillingsUpdate:  mu: +0.780238276  nElectrons: 876.000000
LCAOMinimize: Iter:  13  F: -6073.8501386830339470  |grad|_K:  4.815e-05  alpha:  7.039e-02  linmin:  5.319e-04  cgtest:  3.836e-03  t[s]:   1514.23
	FillingsUpdate:  mu: +0.781048285  nElectrons: 876.000000
LCAOMinimize: Iter:  14  F: -6073.8510476940955414  |grad|_K:  2.922e-05  alpha:  4.260e-02  linmin: -9.311e-05  cgtest:  8.776e-03  t[s]:   1617.00
	FillingsUpdate:  mu: +0.781632319  nElectrons: 876.000000
LCAOMinimize: Iter:  15  F: -6073.8513850368708518  |grad|_K:  1.381e-05  alpha:  4.286e-02  linmin:  2.878e-04  cgtest: -3.627e-03  t[s]:   1718.33
	FillingsUpdate:  mu: +0.781773975  nElectrons: 876.000000
LCAOMinimize: Iter:  16  F: -6073.8514789250375543  |grad|_K:  1.210e-05  alpha:  5.347e-02  linmin:  8.475e-05  cgtest:  9.686e-04  t[s]:   1820.80
	FillingsUpdate:  mu: +0.781804592  nElectrons: 876.000000
LCAOMinimize: Iter:  17  F: -6073.8515610597469276  |grad|_K:  1.251e-05  alpha:  6.093e-02  linmin:  5.760e-05  cgtest:  5.561e-04  t[s]:   1924.02
	FillingsUpdate:  mu: +0.781814134  nElectrons: 876.000000
LCAOMinimize: Iter:  18  F: -6073.8516475879969221  |grad|_K:  9.079e-06  alpha:  6.003e-02  linmin:  8.278e-05  cgtest:  2.598e-03  t[s]:   2025.29
	FillingsUpdate:  mu: +0.781835784  nElectrons: 876.000000
LCAOMinimize: Iter:  19  F: -6073.8516872325863005  |grad|_K:  6.811e-06  alpha:  5.221e-02  linmin:  2.749e-06  cgtest:  1.329e-03  t[s]:   2130.19
	FillingsUpdate:  mu: +0.781808565  nElectrons: 876.000000
LCAOMinimize: Iter:  20  F: -6073.8517155006002213  |grad|_K:  6.611e-06  alpha:  6.611e-02  linmin:  1.132e-05  cgtest: -4.210e-04  t[s]:   2244.42
	FillingsUpdate:  mu: +0.781705815  nElectrons: 876.000000
LCAOMinimize: Iter:  21  F: -6073.8517427337537811  |grad|_K:  6.955e-06  alpha:  6.762e-02  linmin: -4.215e-06  cgtest:  6.911e-05  t[s]:   2347.29
	FillingsUpdate:  mu: +0.781615063  nElectrons: 876.000000
LCAOMinimize: Iter:  22  F: -6073.8517632298817261  |grad|_K:  3.334e-06  alpha:  4.597e-02  linmin: -3.985e-06  cgtest:  6.587e-05  t[s]:   2454.47
	FillingsUpdate:  mu: +0.781586093  nElectrons: 876.000000
LCAOMinimize: Iter:  23  F: -6073.8517676128367384  |grad|_K:  1.809e-06  alpha:  4.277e-02  linmin:  1.886e-05  cgtest: -1.496e-04  t[s]:   2557.66
	FillingsUpdate:  mu: +0.781577239  nElectrons: 876.000000
LCAOMinimize: Iter:  24  F: -6073.8517688049942080  |grad|_K:  1.252e-06  alpha:  3.953e-02  linmin: -8.340e-05  cgtest:  4.612e-04  t[s]:   2661.23
	FillingsUpdate:  mu: +0.781578470  nElectrons: 876.000000
LCAOMinimize: Iter:  25  F: -6073.8517697847828458  |grad|_K:  1.397e-06  alpha:  6.792e-02  linmin:  5.770e-04  cgtest: -3.382e-03  t[s]:   2767.97
	FillingsUpdate:  mu: +0.781577671  nElectrons: 876.000000
LCAOMinimize: Iter:  26  F: -6073.8517710329197143  |grad|_K:  1.119e-06  alpha:  6.961e-02  linmin: -1.365e-05  cgtest:  9.868e-03  t[s]:   2874.27
	FillingsUpdate:  mu: +0.781567705  nElectrons: 876.000000
LCAOMinimize: Iter:  27  F: -6073.8517716674869007  |grad|_K:  6.670e-07  alpha:  5.498e-02  linmin: -6.240e-05  cgtest: -2.505e-03  t[s]:   2976.60
	FillingsUpdate:  mu: +0.781567181  nElectrons: 876.000000
LCAOMinimize: Iter:  28  F: -6073.8517718497578244  |grad|_K:  5.146e-07  alpha:  4.444e-02  linmin: -7.844e-04  cgtest:  3.938e-03  t[s]:   3084.21
LCAOMinimize: Converged (|Delta F|<1.000000e-06 for 2 iters).


---- Citations for features of the code used in this run ----

   Software package:
      R. Sundararaman, K. Letchworth-Weaver, K.A. Schwarz, D. Gunceler, Y. Ozhabes and T.A. Arias, 'JDFTx: software for joint density-functional theory', SoftwareX 6, 278 (2017)

   gga-PBEsol exchange-correlation functional:
      J.P. Perdew et al., Phys. Rev. Lett. 100, 136406 (2008)

   Pseudopotentials:
      KF Garrity, JW Bennett, KM Rabe and D Vanderbilt, Comput. Mater. Sci. 81, 446 (2014)

This list may not be complete. Please suggest additional citations or
report any other bugs at https://github.com/shankar1729/jdftx/issues

Initialization completed successfully at t[s]:   3130.94


-------- Electronic minimization -----------
Will mix electronic density at each iteration.
	FillingsUpdate:  mu: +0.781567181  nElectrons: 876.000000
	FillingsUpdate:  mu: +0.779256937  nElectrons: 876.000000
SCF: Cycle:  0   F: -6074.368947068876878   dF: -5.172e-01   |Residual|: 6.304e-01   |deigs|: 5.726e-02  t[s]:   3629.40
	FillingsUpdate:  mu: +0.752787612  nElectrons: 876.000000
SCF: Cycle:  1   F: -6074.609506157346914   dF: -2.406e-01   |Residual|: 3.475e-01   |deigs|: 2.486e-02  t[s]:   4056.09
	FillingsUpdate:  mu: +0.761622564  nElectrons: 876.000000
SCF: Cycle:  2   F: -6073.296665035431943   dF: +1.313e+00   |Residual|: 6.850e-01   |deigs|: 7.451e-03  t[s]:   4484.29
	FillingsUpdate:  mu: +0.760832029  nElectrons: 876.000000
SCF: Cycle:  3   F: -6074.682466609682706   dF: -1.386e+00   |Residual|: 1.394e-01   |deigs|: 1.760e-03  t[s]:   4923.85
	FillingsUpdate:  mu: +0.760736747  nElectrons: 876.000000
SCF: Cycle:  4   F: -6074.592983493811516   dF: +8.948e-02   |Residual|: 2.103e-01   |deigs|: 4.279e-04  t[s]:   5341.28
	FillingsUpdate:  mu: +0.760690325  nElectrons: 876.000000
SCF: Cycle:  5   F: -6074.733386413624430   dF: -1.404e-01   |Residual|: 8.081e-02   |deigs|: 5.546e-04  t[s]:   5597.50
	FillingsUpdate:  mu: +0.760647828  nElectrons: 876.000000
SCF: Cycle:  6   F: -6074.741872790037633   dF: -8.486e-03   |Residual|: 6.265e-02   |deigs|: 1.549e-04  t[s]:   5862.09
	FillingsUpdate:  mu: +0.760667984  nElectrons: 876.000000
SCF: Cycle:  7   F: -6074.747366490779314   dF: -5.494e-03   |Residual|: 4.014e-02   |deigs|: 1.517e-04  t[s]:   6121.28
	FillingsUpdate:  mu: +0.760667807  nElectrons: 876.000000
SCF: Cycle:  8   F: -6074.753287796351287   dF: -5.921e-03   |Residual|: 1.026e-02   |deigs|: 5.517e-05  t[s]:   6379.42
	FillingsUpdate:  mu: +0.760675487  nElectrons: 876.000000
SCF: Cycle:  9   F: -6074.752266191286253   dF: +1.022e-03   |Residual|: 1.973e-02   |deigs|: 3.828e-05  t[s]:   6638.64
	FillingsUpdate:  mu: +0.760690556  nElectrons: 876.000000
SCF: Cycle: 10   F: -6074.753518289260683   dF: -1.252e-03   |Residual|: 5.251e-03   |deigs|: 3.190e-05  t[s]:   6897.14
	FillingsUpdate:  mu: +0.760683518  nElectrons: 876.000000
SCF: Cycle: 11   F: -6074.753575224450287   dF: -5.694e-05   |Residual|: 3.629e-03   |deigs|: 1.335e-05  t[s]:   7159.73
	FillingsUpdate:  mu: +0.760679522  nElectrons: 876.000000
SCF: Cycle: 12   F: -6074.753585323046536   dF: -1.010e-05   |Residual|: 3.756e-03   |deigs|: 9.318e-06  t[s]:   7423.93
	FillingsUpdate:  mu: +0.760679043  nElectrons: 876.000000
SCF: Cycle: 13   F: -6074.753628146338997   dF: -4.282e-05   |Residual|: 6.902e-04   |deigs|: 6.580e-06  t[s]:   7686.40
	FillingsUpdate:  mu: +0.760681575  nElectrons: 876.000000
SCF: Cycle: 14   F: -6074.753622014613939   dF: +6.132e-06   |Residual|: 1.437e-03   |deigs|: 3.298e-06  t[s]:   7962.69
	FillingsUpdate:  mu: +0.760683875  nElectrons: 876.000000
SCF: Cycle: 15   F: -6074.753626515106589   dF: -4.500e-06   |Residual|: 9.052e-04   |deigs|: 3.029e-06  t[s]:   8226.20
	FillingsUpdate:  mu: +0.760683968  nElectrons: 876.000000
SCF: Cycle: 16   F: -6074.753629196254224   dF: -2.681e-06   |Residual|: 4.043e-04   |deigs|: 2.086e-06  t[s]:   8490.07
	FillingsUpdate:  mu: +0.760683012  nElectrons: 876.000000
SCF: Cycle: 17   F: -6074.753628698957982   dF: +4.973e-07   |Residual|: 4.967e-04   |deigs|: 1.365e-06  t[s]:   8753.87
	FillingsUpdate:  mu: +0.760682771  nElectrons: 876.000000
SCF: Cycle: 18   F: -6074.753629652775999   dF: -9.538e-07   |Residual|: 1.297e-04   |deigs|: 8.206e-07  t[s]:   9018.53
	FillingsUpdate:  mu: +0.760682447  nElectrons: 876.000000
SCF: Cycle: 19   F: -6074.753629192447988   dF: +4.603e-07   |Residual|: 3.717e-04   |deigs|: 7.596e-07  t[s]:   9295.86
	FillingsUpdate:  mu: +0.760682648  nElectrons: 876.000000
SCF: Cycle: 20   F: -6074.753629653747339   dF: -4.613e-07   |Residual|: 1.160e-04   |deigs|: 6.324e-07  t[s]:   9564.02
	FillingsUpdate:  mu: +0.760682722  nElectrons: 876.000000
SCF: Cycle: 21   F: -6074.753629695023847   dF: -4.128e-08   |Residual|: 5.196e-05   |deigs|: 2.489e-07  t[s]:   9813.98
	FillingsUpdate:  mu: +0.760682810  nElectrons: 876.000000
SCF: Cycle: 22   F: -6074.753629692295362   dF: +2.728e-09   |Residual|: 5.589e-05   |deigs|: 1.598e-07  t[s]:  10088.24
	FillingsUpdate:  mu: +0.760682951  nElectrons: 876.000000
SCF: Cycle: 23   F: -6074.753629696626376   dF: -4.331e-09   |Residual|: 4.349e-05   |deigs|: 1.801e-07  t[s]:  10355.36
	FillingsUpdate:  mu: +0.760682965  nElectrons: 876.000000
SCF: Cycle: 24   F: -6074.753629698891018   dF: -2.265e-09   |Residual|: 3.920e-05   |deigs|: 1.379e-07  t[s]:  10598.27
SCF: Converged (|Delta E|<1.000000e-08 for 2 iters).

Setting wave functions to eigenvectors of Hamiltonian

# Ionic positions in lattice coordinates:
ion Mn   0.000000000000000   0.000000000000000   0.000000000000000 0
ion Mn   0.323884435127476   0.312150687028709   0.323438111765594 1
ion Mn   0.186332202950963   0.176060346417737   0.824081663977018 1
ion Mn   0.825156474357063   0.175925884878583   0.184948184855323 1
ion Mn   0.187336517719082   0.813484159877948   0.187229602965380 1
ion Mn   0.362481477841161   0.027825127411677   0.362794395748349 1
ion Mn   0.148223203524413   0.459198397034552   0.860578386072954 1
ion Mn   0.863100475832407   0.460551981682311   0.139469155003713 1
ion Mn   0.150673504730715   0.850334957920573   0.465838229358240 1
ion Mn   0.147534803532532   0.137411364697834   0.539537053264184 1
ion Mn   0.540490229774623   0.137088188794567   0.147582577907842 1
ion Mn   0.464427992078094   0.850945865981179   0.149970944322608 1
ion Mn   0.463536686870092   0.139662004592446   0.862537965565845 1
ion Mn   0.862296588427323   0.139810857575494   0.463267739107960 1
ion Mn   0.361974563836474   0.350976477427738   0.039342725882802 1
ion Mn   0.041002346067437   0.351351093132105   0.353149222281616 1
ion Mn   0.149089701009423   0.535131239012106   0.142524640910511 1
ion Mn   0.096041032168993   0.276331677488380   0.089559713814997 1
ion Mn   0.922231030947407   0.714596912902787   0.088083928074465 1
ion Mn   0.098997154161823   0.714527558265897   0.911081724994513 1
ion Mn   0.914681299498454   0.090580209521053   0.723194417908786 1
ion Mn   0.411987558030499   0.408481525077648   0.785574614161477 1
ion Mn   0.787113554583250   0.401026435224055   0.404279079517264 1
ion Mn   0.724500652261067   0.089127557751334   0.914413549125320 1
ion Mn   0.725216024124451   0.910011732220928   0.095858322830651 1
ion Mn   0.093211447854613   0.910682827376911   0.723132129486780 1
ion Mn   0.095270356410826   0.085463852128777   0.286397773305832 1
ion Mn   0.286848535955164   0.085910409390795   0.097031544603258 1
ion Mn   0.423164337302630   0.774900738025372   0.417629079522095 1
ion Mn   0.487590246812986   0.469566820053102   0.501416021618436 1
ion Mn   0.825606559297245   0.820239392786537   0.825935160660446 1
ion Mn   0.701722310971954   0.685942786716748   0.293216981568575 1
ion Mn   0.313927638813334   0.676083800588802   0.686189976075421 1
ion Mn   0.686170844696521   0.323312475648748   0.686018528213486 1
ion Mn   0.860810652586963   0.537506251918674   0.852171699751679 1
ion Mn   0.649611463762431   0.962521050129295   0.361983517561961 1
ion Mn   0.361944545001392   0.955606565786744   0.649174972209965 1
ion Mn   0.648318947359152   0.351823776035001   0.962978824236412 1
ion Mn   0.649713077690577   0.638705107930427   0.036235624544820 1
ion Mn   0.039093019588324   0.639359289404497   0.646993362293896 1
ion Mn   0.962356430472693   0.358278036230324   0.639571375426146 1
ion Mn   0.972136346276616   0.637928336021789   0.360709729419865 1
ion Mn   0.362690462221086   0.638569657458982   0.963339076175242 1
ion Mn   0.866319466126019   0.861335765611497   0.546934846496460 1
ion Mn   0.542975698634268   0.861913356994449   0.874258056001740 1
ion Mn   0.649618243583785   0.048942698376765   0.649220107031457 1
ion Mn   0.598859848200855   0.802861063573368   0.624218422311747 1
ion Mn   0.411702560044759   0.210482658097789   0.598133883831638 1
ion Mn   0.590371109568980   0.213005971167898   0.413323634953099 1
ion Mn   0.412733102296911   0.584288702847361   0.215034176780711 1
ion Mn   0.915794397771704   0.903495263599726   0.286809374612828 1
ion Mn   0.285998435595146   0.909504259780819   0.914881877535160 1
ion Mn   0.223522149285582   0.585384777855815   0.412069526688135 1
ion Mn   0.217468787612045   0.402768033407308   0.590558753389915 1
ion Mn   0.590923965794234   0.403172873631342   0.215014159714614 1
ion Mn   0.589830287611214   0.587319453469382   0.787836624560116 1
ion Mn   0.785842155540744   0.587547290247861   0.587091710545210 1
ion Mn   0.914629663213442   0.284205801290319   0.911919596671159 1
ion O   0.599188156737951   0.649233836995264   0.475116764224031 1

# Forces in Lattice coordinates:
force Mn   0.087654784382064  -0.032737840607097   0.077629780745329 0
force Mn   0.008192105872631  -0.000633614932386   0.000064120047638 1
force Mn   0.007119527317187  -0.003413945566573  -0.011210476081379 1
force Mn  -0.000493019185608  -0.003290439955973  -0.004037767395357 1
force Mn  -0.000914926861478   0.002523403214402  -0.003253617089494 1
force Mn   0.002485935082919  -0.001081137122162  -0.003343407756847 1
force Mn  -0.007097837273530  -0.000156625210208  -0.004706140005888 1
force Mn  -0.008213072362405   0.005373684512363   0.017835595361345 1
force Mn   0.006667135955565   0.003832870368647  -0.000491264088987 1
force Mn   0.005526777024534  -0.000757069637237   0.001313814360060 1
force Mn   0.002181690717144  -0.004754997957621   0.013865117215932 1
force Mn  -0.000447489959863   0.004799980103989  -0.006896139744471 1
force Mn   0.007814723223145  -0.016238579663291  -0.005340222542196 1
force Mn   0.000910243675087  -0.002353934080108  -0.004742797664104 1
force Mn  -0.006712838529266  -0.003608758175943  -0.005359616918540 1
force Mn  -0.001297449820462  -0.004852470273716   0.001733686530064 1
force Mn   0.000186985122728  -0.004681969621445   0.009278040777247 1
force Mn  -0.002022467124744  -0.001847569642313  -0.009256865121161 1
force Mn   0.000599898087044  -0.000818311191218  -0.001144565287272 1
force Mn  -0.008236308079263  -0.001252730100861   0.007333480267120 1
force Mn  -0.000052620656758  -0.007044304341789  -0.001748768376086 1
force Mn   0.005972883127771   0.000350686522754  -0.001281550665681 1
force Mn   0.005538308524387   0.008204788069304  -0.001995709607354 1
force Mn  -0.005229209969039  -0.007380992889290   0.005852063510703 1
force Mn  -0.003577546972932   0.002094080091179   0.001810362091697 1
force Mn  -0.002383303921417   0.001043765050412   0.004352995142896 1
force Mn   0.010578292443151  -0.002719582047542  -0.007178255221113 1
force Mn  -0.001560149910600   0.002052548629377  -0.004614119963272 1
force Mn  -0.002734138012462  -0.001619034247878   0.001540807486302 1
force Mn  -0.043806171428508  -0.003717912310780  -0.025956476990494 1
force Mn   0.000941849808987  -0.006299721268144   0.003104497833877 1
force Mn  -0.006907766251645   0.003385124469789  -0.015950253487013 1
force Mn  -0.001233655673994  -0.002324624342047   0.000989281866623 1
force Mn  -0.000106912472146  -0.015614367506574   0.000303383904651 1
force Mn   0.004451079743668   0.002811544054898   0.009901420849352 1
force Mn  -0.003262439840444   0.005618403498742   0.006017755618160 1
force Mn  -0.001656787206724  -0.006454976623782   0.003267835762209 1
force Mn  -0.001742505537210  -0.000838118357295   0.002294393543159 1
force Mn   0.003072382717511  -0.003627093001770   0.000961145365501 1
force Mn  -0.008569272692681   0.007335267148409  -0.005588887429539 1
force Mn   0.008710421994944  -0.003633094629346  -0.008898853009570 1
force Mn   0.008876612096622   0.006722113904452  -0.004039207145324 1
force Mn  -0.001385330184808   0.005510000015727   0.001764235960937 1
force Mn   0.005856265200603  -0.003258709149039   0.001120215223072 1
force Mn   0.002527278767766   0.007899750312477  -0.003190722153016 1
force Mn  -0.001982798967448  -0.001900344670167  -0.010377348733481 1
force Mn  -0.003422653969011  -0.006135589819843  -0.016583217450822 1
force Mn  -0.011595966659851  -0.004812144834192   0.013381308273236 1
force Mn  -0.001612973396911  -0.011703436508783   0.000345331816346 1
force Mn   0.004683197271929   0.002156156388314  -0.000935039289396 1
force Mn   0.004452719720016  -0.000102514577169   0.001079264683079 1
force Mn   0.002395732029676   0.000177613027609   0.006441962914039 1
force Mn   0.015112235212584   0.001699968305152  -0.001759046947339 1
force Mn   0.018693230699411  -0.001849231452103  -0.004237323394477 1
force Mn   0.005713427183547   0.002933971305236  -0.010158451629875 1
force Mn   0.004932290738403  -0.007043243444179   0.005447013119618 1
force Mn   0.001179377998872   0.006277526473840   0.013118437955326 1
force Mn   0.004572640138665  -0.003987385980972   0.003692636557128 1
force O  -0.015947729886283  -0.020873052410586   0.011272605494614 1

# Energy components:
   Eewald =    -4557.2862625317784477
       EH =     1384.6663488132969633
     Eloc =    -4451.8636416553426898
      Enl =     1007.0684559731383843
      Exc =     -765.9976174579376220
 Exc_core =       63.0522191319141925
       KE =     1246.3309545158285800
-------------------------------------
     Etot =    -6074.0295432108814566
       TS =        0.7240864880092207
-------------------------------------
        F =    -6074.7536296988910181

IonicMinimize: Iter:   0  F: -6074.753629698891018  |grad|_K:  4.645e-04  t[s]:  10645.72

#--- Lowdin population analysis ---
# oxidation-state Mn +0.093 +0.075 +0.080 +0.080 +0.079 +0.015 +0.017 +0.016 +0.012 +0.018 +0.017 +0.012 +0.011 +0.009 +0.013 +0.013 +0.014 -0.025 -0.025 -0.023 -0.024 -0.026 -0.012 -0.022 -0.031 -0.026 -0.020 -0.022 -0.001 +0.091 +0.077 +0.082 +0.079 +0.075 +0.013 +0.014 +0.013 +0.014 +0.006 +0.007 +0.015 +0.013 +0.011 +0.017 +0.010 +0.009 -0.007 -0.030 -0.029 -0.016 -0.025 -0.020 -0.024 -0.024 -0.022 -0.012 +0.001 -0.021
# oxidation-state O +0.003


-------- Electronic minimization -----------
Will mix electronic density at each iteration.
	FillingsUpdate:  mu: +0.760682965  nElectrons: 876.000000
	FillingsUpdate:  mu: +0.760681605  nElectrons: 876.000000
SCF: Cycle:  0   F: -6074.753581824807952   dF: +7.520e-05   |Residual|: 3.698e-03   |deigs|: 8.392e-08  t[s]:  11073.87
	FillingsUpdate:  mu: +0.760679635  nElectrons: 876.000000
SCF: Cycle:  1   F: -6074.749174701537413   dF: +4.407e-03   |Residual|: 3.144e-02   |deigs|: 4.788e-05  t[s]:  11339.08
	FillingsUpdate:  mu: +0.760681931  nElectrons: 876.000000
SCF: Cycle:  2   F: -6074.753621149730861   dF: -4.446e-03   |Residual|: 3.629e-03   |deigs|: 4.173e-05  t[s]:  11603.92
	FillingsUpdate:  mu: +0.760682248  nElectrons: 876.000000
SCF: Cycle:  3   F: -6074.753657477774141   dF: -3.633e-05   |Residual|: 1.351e-03   |deigs|: 5.085e-06  t[s]:  11864.38
	FillingsUpdate:  mu: +0.760681604  nElectrons: 876.000000
SCF: Cycle:  4   F: -6074.753634159251305   dF: +2.332e-05   |Residual|: 2.678e-03   |deigs|: 4.418e-06  t[s]:  12123.00
	FillingsUpdate:  mu: +0.760681493  nElectrons: 876.000000
SCF: Cycle:  5   F: -6074.753663341677566   dF: -2.918e-05   |Residual|: 3.786e-04   |deigs|: 4.186e-06  t[s]:  12388.86
	FillingsUpdate:  mu: +0.760681584  nElectrons: 876.000000
SCF: Cycle:  6   F: -6074.753662552760943   dF: +7.889e-07   |Residual|: 5.826e-04   |deigs|: 1.610e-06  t[s]:  12656.70
	FillingsUpdate:  mu: +0.760682151  nElectrons: 876.000000
SCF: Cycle:  7   F: -6074.753663633193355   dF: -1.080e-06   |Residual|: 2.573e-04   |deigs|: 1.397e-06  t[s]:  12927.30
	FillingsUpdate:  mu: +0.760682189  nElectrons: 876.000000
SCF: Cycle:  8   F: -6074.753663771678475   dF: -1.385e-07   |Residual|: 1.606e-04   |deigs|: 5.237e-07  t[s]:  13195.57
	FillingsUpdate:  mu: +0.760681998  nElectrons: 876.000000
SCF: Cycle:  9   F: -6074.753663698351374   dF: +7.333e-08   |Residual|: 2.068e-04   |deigs|: 5.838e-07  t[s]:  13461.25
	FillingsUpdate:  mu: +0.760681872  nElectrons: 876.000000
SCF: Cycle: 10   F: -6074.753663855319246   dF: -1.570e-07   |Residual|: 2.658e-05   |deigs|: 3.623e-07  t[s]:  13724.38
	FillingsUpdate:  mu: +0.760681958  nElectrons: 876.000000
SCF: Cycle: 11   F: -6074.753663829970719   dF: +2.535e-08   |Residual|: 8.599e-05   |deigs|: 1.742e-07  t[s]:  13987.60
	FillingsUpdate:  mu: +0.760681970  nElectrons: 876.000000
SCF: Cycle: 12   F: -6074.753663857934953   dF: -2.796e-08   |Residual|: 1.468e-05   |deigs|: 1.516e-07  t[s]:  14261.80
	FillingsUpdate:  mu: +0.760681967  nElectrons: 876.000000
SCF: Cycle: 13   F: -6074.753663858229629   dF: -2.947e-10   |Residual|: 8.720e-06   |deigs|: 3.833e-08  t[s]:  14411.50
	FillingsUpdate:  mu: +0.760681938  nElectrons: 876.000000
SCF: Cycle: 14   F: -6074.753663857837637   dF: +3.920e-10   |Residual|: 1.075e-05   |deigs|: 3.285e-08  t[s]:  14556.50
	FillingsUpdate:  mu: +0.760681936  nElectrons: 876.000000
SCF: Cycle: 15   F: -6074.753663858069558   dF: -2.319e-10   |Residual|: 5.206e-06   |deigs|: 1.932e-08  t[s]:  14699.33
	FillingsUpdate:  mu: +0.760681943  nElectrons: 876.000000
SCF: Cycle: 16   F: -6074.753663857589345   dF: +4.802e-10   |Residual|: 5.779e-06   |deigs|: 1.549e-08  t[s]:  14843.66
	FillingsUpdate:  mu: +0.760681938  nElectrons: 876.000000
SCF: Cycle: 17   F: -6074.753663858249638   dF: -6.603e-10   |Residual|: 3.647e-06   |deigs|: 1.216e-08  t[s]:  14991.26
	FillingsUpdate:  mu: +0.760681936  nElectrons: 876.000000
SCF: Cycle: 18   F: -6074.753663858039545   dF: +2.101e-10   |Residual|: 1.904e-06   |deigs|: 1.041e-08  t[s]:  15134.64
	FillingsUpdate:  mu: +0.760681939  nElectrons: 876.000000
SCF: Cycle: 19   F: -6074.753663857923129   dF: +1.164e-10   |Residual|: 1.849e-06   |deigs|: 9.205e-09  t[s]:  15274.79
	FillingsUpdate:  mu: +0.760681942  nElectrons: 876.000000
SCF: Cycle: 20   F: -6074.753663858513391   dF: -5.903e-10   |Residual|: 1.369e-06   |deigs|: 8.967e-09  t[s]:  15422.01
SCF: Converged (|deigs|<1.000000e-08 for 2 iters).

Setting wave functions to eigenvectors of Hamiltonian

# Ionic positions in lattice coordinates:
ion Mn   0.000000000000000   0.000000000000000   0.000000000000000 0
ion Mn   0.323916249524334   0.312148226357762   0.323438360778567 1
ion Mn   0.186359851942691   0.176047088212729   0.824038127609134 1
ion Mn   0.825154559695769   0.175913106312946   0.184932504011309 1
ion Mn   0.187332964561113   0.813493959623281   0.187216967402935 1
ion Mn   0.362491132077388   0.027820928768984   0.362781411479971 1
ion Mn   0.148195638766906   0.459197788773786   0.860560109575049 1
ion Mn   0.863068580011281   0.460572850618128   0.139538420308366 1
ion Mn   0.150699396841058   0.850349843038137   0.465836321512940 1
ion Mn   0.147556267009730   0.137408424585211   0.539542155518976 1
ion Mn   0.540498702464719   0.137069722554697   0.147636423689188 1
ion Mn   0.464426254231514   0.850964506911156   0.149944162866164 1
ion Mn   0.463567035685136   0.139598941367209   0.862517226581034 1
ion Mn   0.862300123397936   0.139801715970861   0.463249320248457 1
ion Mn   0.361948494238213   0.350962462659551   0.039321911579093 1
ion Mn   0.040997307365041   0.351332248354287   0.353155955128109 1
ion Mn   0.149090427174220   0.535113056380933   0.142560672582457 1
ion Mn   0.096033177830592   0.276324502371904   0.089523764379626 1
ion Mn   0.922233360677529   0.714593734955945   0.088079483105754 1
ion Mn   0.098965168103787   0.714522693234463   0.911110204881760 1
ion Mn   0.914681095143862   0.090552852660998   0.723187626491293 1
ion Mn   0.412010753980010   0.408482886983900   0.785569637204135 1
ion Mn   0.787135062843526   0.401058298872771   0.404271329092837 1
ion Mn   0.724480344398376   0.089098893346768   0.914436275866632 1
ion Mn   0.725202130566318   0.910019864671376   0.095865353449998 1
ion Mn   0.093202192190933   0.910686880883550   0.723149034531362 1
ion Mn   0.095311437666256   0.085453290514475   0.286369896241753 1
ion Mn   0.286842477045625   0.085918380552018   0.097013625469162 1
ion Mn   0.423153719159610   0.774894450435967   0.417635063314494 1
ion Mn   0.487420123654874   0.469552381380119   0.501315218519350 1
ion Mn   0.825610217011643   0.820214927546996   0.825947217111823 1
ion Mn   0.701695484363467   0.685955932993782   0.293155038070492 1
ion Mn   0.313922847858260   0.676074772809802   0.686193817994263 1
ion Mn   0.686170429497319   0.323251836578372   0.686019706417978 1
ion Mn   0.860827938547327   0.537517170671402   0.852210152347050 1
ion Mn   0.649598793936452   0.962542869441862   0.362006887775726 1
ion Mn   0.361938110796741   0.955581497606326   0.649187662991239 1
ion Mn   0.648312180263664   0.351820521166174   0.962987734612799 1
ion Mn   0.649725009421513   0.638691021958152   0.036239357194345 1
ion Mn   0.039059740447836   0.639387776231174   0.646971657608258 1
ion Mn   0.962390257772590   0.358263926950469   0.639536816346268 1
ion Mn   0.972170818982949   0.637954441641370   0.360694042984520 1
ion Mn   0.362685082231500   0.638591055781942   0.963345927661769 1
ion Mn   0.866342209184775   0.861323110273819   0.546939196900645 1
ion Mn   0.542985513430480   0.861944036015866   0.874245664694497 1
ion Mn   0.649610543298386   0.048935318306189   0.649179806149600 1
ion Mn   0.598846556176390   0.802837235745393   0.624154020670782 1
ion Mn   0.411657526607570   0.210463969925557   0.598185850720067 1
ion Mn   0.590364845517152   0.212960520366910   0.413324976064118 1
ion Mn   0.412751289695718   0.584297076373789   0.215030545515259 1
ion Mn   0.915811690100987   0.903494865479939   0.286813565983823 1
ion Mn   0.286007739523921   0.909504949548680   0.914906895176274 1
ion Mn   0.223580838303514   0.585391379756126   0.412062695353367 1
ion Mn   0.217541383580563   0.402760851837122   0.590542297561563 1
ion Mn   0.590946154135383   0.403184267835583   0.214974708929109 1
ion Mn   0.589849442375252   0.587292100729368   0.787857778270746 1
ion Mn   0.785846735706123   0.587571669292960   0.587142656565409 1
ion Mn   0.914647421258848   0.284190316104703   0.911933937184661 1
ion O   0.599126223040381   0.649152775595015   0.475160541874174 1

# Forces in Lattice coordinates:
force Mn   0.087443530183789  -0.032493206596561   0.077682288282340 0
force Mn   0.006778701813770  -0.000933465296392  -0.000938567056671 1
force Mn   0.005886446911269  -0.002505030008457  -0.009572276274504 1
force Mn  -0.000170153623666  -0.002667947199480  -0.003911008063785 1
force Mn  -0.000771822511560   0.001861276092047  -0.002676645454598 1
force Mn   0.001772039397707  -0.001003790969869  -0.002559816956476 1
force Mn  -0.006040001416757  -0.000504733984535  -0.004330775898308 1
force Mn  -0.005749172008222   0.003865844244010   0.014902707212833 1
force Mn   0.005215087915797   0.003515828803806  -0.000573136248017 1
force Mn   0.004520807662560  -0.000953367494423   0.000944877712965 1
force Mn   0.001928029714382  -0.003253203820904   0.011821998920252 1
force Mn  -0.000553815954405   0.003946164583557  -0.005613155644507 1
force Mn   0.006238626717056  -0.013572592743985  -0.003949446328669 1
force Mn   0.001188404104220  -0.001944013122484  -0.004107248452566 1
force Mn  -0.005208995753649  -0.003085724556170  -0.005397759615535 1
force Mn  -0.000891523170893  -0.004567083682980   0.001579857375076 1
force Mn   0.000349867168879  -0.004618933293931   0.009069772041040 1
force Mn  -0.002127662358244  -0.001052302085817  -0.008044683376743 1
force Mn   0.000199744632156  -0.000423252876752  -0.000410680827633 1
force Mn  -0.006425516609222  -0.001374053200246   0.005944887597928 1
force Mn  -0.000500118589001  -0.005402488427311  -0.000982315175976 1
force Mn   0.005250095599360  -0.000274881305674   0.000080189109999 1
force Mn   0.003825142391668   0.006169733903075  -0.000960388373031 1
force Mn  -0.003332584134283  -0.005891613797133   0.004659012048560 1
force Mn  -0.002120477170729   0.002087692350837   0.001925311631135 1
force Mn  -0.002283112281810   0.000760854362349   0.004021012757256 1
force Mn   0.010199596360391  -0.002052862639405  -0.005914175436245 1
force Mn  -0.000880195563547   0.002336114479066  -0.004574901292291 1
force Mn  -0.002338418736439  -0.000655400804433   0.000712453335094 1
force Mn  -0.034333038850651  -0.005697138886919  -0.022344255305025 1
force Mn   0.000248548605130  -0.006163438153397   0.002509264403145 1
force Mn  -0.008212221504051   0.002193684241734  -0.011507971886708 1
force Mn  -0.001202791614379  -0.002206594137261   0.001365317437354 1
force Mn   0.000784431689583  -0.013427738793965   0.000325692969070 1
force Mn   0.004185685824507   0.000930262115192   0.008802560807790 1
force Mn  -0.001966099212890   0.003867555006003   0.004672448926328 1
force Mn  -0.001281391713005  -0.006399833095713   0.002580114362154 1
force Mn  -0.001117252675305  -0.001572467666774   0.001418408146268 1
force Mn   0.002198105099794  -0.003068307776806  -0.000477731514116 1
force Mn  -0.007064512673355   0.005816673197661  -0.005034001532115 1
force Mn   0.006544339252304  -0.003829028833268  -0.007201742256757 1
force Mn   0.008444466006524   0.005144714720197  -0.003227007885809 1
force Mn  -0.001285461335690   0.004017214462841   0.001876233164891 1
force Mn   0.005392077423051  -0.002376121521724   0.000943139254610 1
force Mn   0.003471790493618   0.005528126809816  -0.003842419695419 1
force Mn  -0.001244346208100  -0.002124414188824  -0.008670746152775 1
force Mn  -0.002288261075482  -0.005135839487812  -0.011749425577018 1
force Mn  -0.008286811092832  -0.004165412984461   0.011433181379824 1
force Mn  -0.001474126515966  -0.007635215772188   0.000851890852769 1
force Mn   0.003559175674735   0.001725973457579  -0.002123614003591 1
force Mn   0.004361629334424   0.000504055181723   0.000794291216206 1
force Mn   0.001550359482397   0.000264136937082   0.005512012580043 1
force Mn   0.010948136000170   0.001671710759871  -0.002212448504047 1
force Mn   0.016935357646186  -0.001972415477950  -0.003257218208881 1
force Mn   0.005127675118471   0.001799474730266  -0.008764060426591 1
force Mn   0.004641909829561  -0.005487957334445   0.004222534908157 1
force Mn   0.000924309067515   0.003863505297787   0.011165047123582 1
force Mn   0.003235655541244  -0.003761989740457   0.002035749840854 1
force O  -0.011997863788780  -0.020325181916999   0.006469505082233 1

# Energy components:
   Eewald =    -4557.2808792993319003
       EH =     1384.6719418855716413
     Eloc =    -4451.8745720247607096
      Enl =     1007.0682631352660792
      Exc =     -765.9976197923415384
 Exc_core =       63.0522142656942961
       KE =     1246.3310537370007296
-------------------------------------
     Etot =    -6074.0295980929013240
       TS =        0.7240657656119054
-------------------------------------
        F =    -6074.7536638585133915

IonicMinimize: Iter:   1  F: -6074.753663858513391  |grad|_K:  3.832e-04  alpha:  1.000e+00  linmin: -5.512e-01  t[s]:  15470.02

#--- Lowdin population analysis ---
# oxidation-state Mn +0.093 +0.075 +0.080 +0.080 +0.079 +0.015 +0.017 +0.016 +0.012 +0.018 +0.017 +0.012 +0.011 +0.009 +0.013 +0.013 +0.014 -0.025 -0.025 -0.023 -0.024 -0.026 -0.012 -0.022 -0.031 -0.026 -0.020 -0.022 -0.001 +0.091 +0.077 +0.083 +0.079 +0.075 +0.012 +0.014 +0.013 +0.014 +0.006 +0.007 +0.015 +0.013 +0.011 +0.017 +0.010 +0.009 -0.007 -0.030 -0.029 -0.016 -0.025 -0.020 -0.024 -0.024 -0.022 -0.012 +0.002 -0.021
# oxidation-state O +0.002


-------- Electronic minimization -----------
Will mix electronic density at each iteration.
	FillingsUpdate:  mu: +0.760681942  nElectrons: 876.000000
	FillingsUpdate:  mu: +0.760676672  nElectrons: 876.000000
SCF: Cycle:  0   F: -6074.751621359583623   dF: +1.894e-03   |Residual|: 1.841e-02   |deigs|: 2.181e-06  t[s]:  15898.40
	FillingsUpdate:  mu: +0.760672221  nElectrons: 876.000000
SCF: Cycle:  1   F: -6074.637452463712179   dF: +1.142e-01   |Residual|: 1.551e-01   |deigs|: 2.342e-04  t[s]:  16161.87
	FillingsUpdate:  mu: +0.760679136  nElectrons: 876.000000
SCF: Cycle:  2   F: -6074.752834860274561   dF: -1.154e-01   |Residual|: 1.702e-02   |deigs|: 2.098e-04  t[s]:  16425.27
	FillingsUpdate:  mu: +0.760679958  nElectrons: 876.000000
SCF: Cycle:  3   F: -6074.753493843249089   dF: -6.590e-04   |Residual|: 8.875e-03   |deigs|: 2.816e-05  t[s]:  16693.09
	FillingsUpdate:  mu: +0.760676288  nElectrons: 876.000000
SCF: Cycle:  4   F: -6074.752910376137152   dF: +5.835e-04   |Residual|: 1.400e-02   |deigs|: 2.284e-05  t[s]:  16960.60
	FillingsUpdate:  mu: +0.760674982  nElectrons: 876.000000
SCF: Cycle:  5   F: -6074.753746380205484   dF: -8.360e-04   |Residual|: 2.026e-03   |deigs|: 2.153e-05  t[s]:  17231.66
	FillingsUpdate:  mu: +0.760675956  nElectrons: 876.000000
SCF: Cycle:  6   F: -6074.753700207497786   dF: +4.617e-05   |Residual|: 3.900e-03   |deigs|: 1.032e-05  t[s]:  17497.14
	FillingsUpdate:  mu: +0.760679544  nElectrons: 876.000000
SCF: Cycle:  7   F: -6074.753755587506930   dF: -5.538e-05   |Residual|: 1.304e-03   |deigs|: 8.787e-06  t[s]:  17764.86
	FillingsUpdate:  mu: +0.760679530  nElectrons: 876.000000
SCF: Cycle:  8   F: -6074.753757223321372   dF: -1.636e-06   |Residual|: 1.086e-03   |deigs|: 2.943e-06  t[s]:  18035.30
	FillingsUpdate:  mu: +0.760678433  nElectrons: 876.000000
SCF: Cycle:  9   F: -6074.753756448835702   dF: +7.745e-07   |Residual|: 1.144e-03   |deigs|: 3.498e-06  t[s]:  18301.15
	FillingsUpdate:  mu: +0.760677745  nElectrons: 876.000000
SCF: Cycle: 10   F: -6074.753761347003092   dF: -4.898e-06   |Residual|: 1.327e-04   |deigs|: 2.001e-06  t[s]:  18573.47
	FillingsUpdate:  mu: +0.760678122  nElectrons: 876.000000
SCF: Cycle: 11   F: -6074.753760658826650   dF: +6.882e-07   |Residual|: 4.610e-04   |deigs|: 7.206e-07  t[s]:  18852.81
	FillingsUpdate:  mu: +0.760678307  nElectrons: 876.000000
SCF: Cycle: 12   F: -6074.753761388818020   dF: -7.300e-07   |Residual|: 6.915e-05   |deigs|: 5.863e-07  t[s]:  19128.70
	FillingsUpdate:  mu: +0.760678238  nElectrons: 876.000000
SCF: Cycle: 13   F: -6074.753761389333704   dF: -5.157e-10   |Residual|: 6.709e-05   |deigs|: 1.640e-07  t[s]:  19347.83
	FillingsUpdate:  mu: +0.760678083  nElectrons: 876.000000
SCF: Cycle: 14   F: -6074.753761393158129   dF: -3.824e-09   |Residual|: 5.554e-05   |deigs|: 1.891e-07  t[s]:  19621.13
SCF: Converged (|Delta E|<1.000000e-08 for 2 iters).

Setting wave functions to eigenvectors of Hamiltonian

# Ionic positions in lattice coordinates:
ion Mn   0.000000000000000   0.000000000000000   0.000000000000000 0
ion Mn   0.324108918748363   0.312096793101841   0.323351334933593 1
ion Mn   0.186526872924386   0.175995357141712   0.823748044883057 1
ion Mn   0.825164195949590   0.175840610128489   0.184786659786127 1
ion Mn   0.187310129574132   0.813533061911071   0.187141840268397 1
ion Mn   0.362524154013963   0.027785753399169   0.362721236739256 1
ion Mn   0.148013815897627   0.459160612736991   0.860410446217324 1
ion Mn   0.862968884777234   0.460647387360857   0.139970779775029 1
ion Mn   0.150829259654395   0.850470723366232   0.465809890419584 1
ion Mn   0.147681570426784   0.137361431458389   0.539560353668521 1
ion Mn   0.540560972858387   0.137018727061844   0.147993680876982 1
ion Mn   0.464399343673728   0.851075105852902   0.149790292256003 1
ion Mn   0.463730490638207   0.139204912952742   0.862433540599759 1
ion Mn   0.862360387325808   0.139746692520621   0.463121459830526 1
ion Mn   0.361821476870007   0.350868696737173   0.039109894443013 1
ion Mn   0.040983048699684   0.351168856058856   0.353209701065714 1
ion Mn   0.149112247554004   0.534936448657511   0.142903206010587 1
ion Mn   0.095945065591802   0.276323592469485   0.089271686201122 1
ion Mn   0.922220984065355   0.714597155399797   0.088100455767505 1
ion Mn   0.098806257815483   0.714463101449784   0.911271669132168 1
ion Mn   0.914639093632934   0.090425252163414   0.723187989624154 1
ion Mn   0.412178704076241   0.408440684969254   0.785641333973898 1
ion Mn   0.787197675389338   0.401195959763154   0.404286085551075 1
ion Mn   0.724446142445591   0.088944578148959   0.914557537365732 1
ion Mn   0.725192971786030   0.910100801978105   0.095946080832126 1
ion Mn   0.093118372430590   0.910702248479413   0.723288825668876 1
ion Mn   0.095689364587224   0.085406962389699   0.286203357077665 1
ion Mn   0.286842458988938   0.086023588876319   0.096837532169208 1
ion Mn   0.423082629129855   0.774917467775787   0.417621079125756 1
ion Mn   0.486560838696545   0.469230960890262   0.500627423037092 1
ion Mn   0.825584977421883   0.819981891876237   0.826014909652740 1
ion Mn   0.701310150303823   0.685981317989885   0.292930822699021 1
ion Mn   0.313877586029151   0.675994829684246   0.686265896772002 1
ion Mn   0.686245848854045   0.322839306392497   0.686033506781956 1
ion Mn   0.860977492549012   0.537458640047816   0.852497436037885 1
ion Mn   0.649587549861774   0.962605235170124   0.362121004886269 1
ion Mn   0.361907139815037   0.955335174672981   0.649253455633137 1
ion Mn   0.648300180561884   0.351722335256803   0.962998829561692 1
ion Mn   0.649766538418146   0.638599734354764   0.036148302399918 1
ion Mn   0.038860547220240   0.639537703300315   0.646803663189685 1
ion Mn   0.962535900937966   0.358105023133744   0.639341968300787 1
ion Mn   0.972477739508700   0.638075252794660   0.360609339943175 1
ion Mn   0.362640077657571   0.638672242425963   0.963424596092886 1
ion Mn   0.866528708394376   0.861275070848582   0.546966989257677 1
ion Mn   0.543168209969130   0.862039774486963   0.874063287972745 1
ion Mn   0.649599297361924   0.048841346129298   0.648928258248085 1
ion Mn   0.598814617142902   0.802687680339418   0.623940123214851 1
ion Mn   0.411501625205044   0.210334408721123   0.598532757664748 1
ion Mn   0.590314460439098   0.212868206536772   0.413383643808686 1
ion Mn   0.412833218663638   0.584342592725070   0.214888033160947 1
ion Mn   0.915976870046233   0.903545030880456   0.286830131159062 1
ion Mn   0.286025512024332   0.909519587757452   0.915074607364047 1
ion Mn   0.223797272184348   0.585455024526833   0.411953747742018 1
ion Mn   0.218112031991866   0.402677876359071   0.590464874188351 1
ion Mn   0.591116240216005   0.403197176678626   0.214703806378014 1
ion Mn   0.590015495611475   0.587156815999295   0.787960468211904 1
ion Mn   0.785869867506248   0.587600480815318   0.587478861868695 1
ion Mn   0.914706033332632   0.284055239337132   0.911929735594051 1
ion O   0.598858142215134   0.648389251206559   0.475170475236759 1

# Forces in Lattice coordinates:
force Mn   0.088504288695276  -0.033048438055230   0.078252370395446 0
force Mn  -0.002056863651212  -0.001377881373097  -0.003255876496156 1
force Mn  -0.000013472764760  -0.000454082995399   0.000905539412856 1
force Mn   0.000354810627093   0.001050647396998  -0.000224911656804 1
force Mn   0.002244739802071  -0.000422010219943  -0.000643691208541 1
force Mn   0.001220645674602  -0.000311648387630   0.000873145497884 1
force Mn   0.002984541932786   0.001424492387853  -0.002733031892474 1
force Mn   0.001916230829955   0.001557527871457   0.000857844617283 1
force Mn   0.000887594883553  -0.001314801907990   0.001690633316795 1
force Mn   0.001475571104739  -0.001364024689893  -0.001294260174360 1
force Mn  -0.002498259606195   0.000355047929390  -0.000162954377801 1
force Mn   0.001383466496365   0.000116877588876   0.000773972284926 1
force Mn   0.000627072057449  -0.001574156252492   0.002765387613854 1
force Mn  -0.000459372193370  -0.001299793868185  -0.000065703429533 1
force Mn   0.002227108857000  -0.000083112359780   0.000123750526837 1
force Mn   0.002528878432797  -0.000582543062441   0.001377082162096 1
force Mn   0.000256947359963  -0.002980230809140   0.006431188230726 1
force Mn  -0.000303424151945   0.000290878788354   0.000981005074792 1
force Mn  -0.003544667058526  -0.001265664111440   0.004203691070842 1
force Mn   0.004275266223295  -0.001216641992478  -0.002168508765419 1
force Mn  -0.002379744713365  -0.000962447900555  -0.001297658995655 1
force Mn   0.000931130524437   0.000602876885735   0.001127633376576 1
force Mn  -0.001754064926760  -0.000188568945521   0.002397399104698 1
force Mn  -0.001049344148173  -0.000867770541439  -0.002243824078833 1
force Mn  -0.001629258853654  -0.003617625258336   0.003664740110725 1
force Mn   0.000631211632941  -0.003854642086708   0.000436506143416 1
force Mn   0.010342726789448   0.001900656189785   0.000260134416324 1
force Mn   0.002908670172605  -0.000037162148819  -0.002163714346365 1
force Mn   0.005597581003184  -0.003494210153607  -0.000424618562833 1
force Mn   0.011284028426805  -0.014759868761985   0.004414652370329 1
force Mn   0.000627059009943  -0.008060956799989  -0.000241174695685 1
force Mn   0.002810741624806   0.000650372317828   0.000222780633244 1
force Mn   0.000199824457086   0.000007124919318   0.001015707557041 1
force Mn   0.000792760485413  -0.001481576457097  -0.000334842824720 1
force Mn   0.000901737927951  -0.001493138532837   0.001992868310098 1
force Mn   0.000156559070526  -0.004406391405979  -0.001123735224869 1
force Mn  -0.000011414340709  -0.010300119916078  -0.000649871979466 1
force Mn   0.000676302497514  -0.002610463973317  -0.000672873488757 1
force Mn   0.000368466423588   0.001921110891031   0.001957924972864 1
force Mn   0.006927850012241  -0.000770736070967  -0.001052293095700 1
force Mn   0.000554121992163  -0.003761186864491  -0.000063982629999 1
force Mn  -0.003207952840806  -0.000247099439308   0.000260659774638 1
force Mn  -0.000761715787037   0.000636956564258  -0.004474184532059 1
force Mn   0.001223422604573  -0.000705620307148  -0.001483455369705 1
force Mn   0.002578828548360  -0.003213178992257   0.000915162109832 1
force Mn   0.000402120120086  -0.000624283538942   0.000160448561536 1
force Mn  -0.000289958349149  -0.013038932780667  -0.009811743695347 1
force Mn   0.004700801883556  -0.003424490573409  -0.001370961532451 1
force Mn  -0.000768066738797   0.000696187828903   0.001153188859459 1
force Mn   0.001423029924014   0.000388370794761  -0.001657325220453 1
force Mn   0.001505900958168  -0.000435393588148   0.001337531076027 1
force Mn   0.001297612172398  -0.002212654633987  -0.001593080659655 1
force Mn  -0.001592430695261   0.000516295454734   0.003467562796504 1
force Mn   0.011340652287725   0.000016966036597   0.000158081650050 1
force Mn   0.001552061860007  -0.000552053858536  -0.000668315950124 1
force Mn  -0.002259738532140   0.000076919469412  -0.002081439246900 1
force Mn  -0.002111052020066  -0.001025415745576  -0.005269013409855 1
force Mn  -0.001696345376414  -0.001567601215366  -0.001251832568869 1
force O  -0.000739254478767  -0.002352455059221   0.004044677844630 1

# Energy components:
   Eewald =    -4557.2384012368665935
       EH =     1384.7160025276559736
     Eloc =    -4451.9608965079896734
      Enl =     1007.0665594296463041
      Exc =     -765.9977105591542568
 Exc_core =       63.0522237236706076
       KE =     1246.3323996763183459
-------------------------------------
     Etot =    -6074.0298229467189230
       TS =        0.7239384464390436
-------------------------------------
        F =    -6074.7537613931581291

IonicMinimize: Iter:   2  F: -6074.753761393158129  |grad|_K:  1.946e-04  alpha:  1.000e+00  linmin: -3.084e-02  t[s]:  19669.20

#--- Lowdin population analysis ---
# oxidation-state Mn +0.093 +0.075 +0.079 +0.080 +0.079 +0.015 +0.017 +0.015 +0.012 +0.018 +0.017 +0.012 +0.011 +0.009 +0.013 +0.013 +0.014 -0.024 -0.025 -0.023 -0.024 -0.026 -0.012 -0.022 -0.031 -0.026 -0.020 -0.023 -0.001 +0.091 +0.077 +0.083 +0.079 +0.075 +0.012 +0.013 +0.013 +0.014 +0.005 +0.008 +0.015 +0.013 +0.011 +0.017 +0.010 +0.009 -0.007 -0.030 -0.029 -0.016 -0.025 -0.020 -0.024 -0.024 -0.022 -0.012 +0.002 -0.021
# oxidation-state O +0.001


-------- Electronic minimization -----------
Will mix electronic density at each iteration.
	FillingsUpdate:  mu: +0.760678083  nElectrons: 876.000000
	FillingsUpdate:  mu: +0.760677877  nElectrons: 876.000000
SCF: Cycle:  0   F: -6074.753391639954316   dF: +3.412e-04   |Residual|: 7.888e-03   |deigs|: 5.242e-07  t[s]:  20099.67
	FillingsUpdate:  mu: +0.760673209  nElectrons: 876.000000
SCF: Cycle:  1   F: -6074.730897284029197   dF: +2.249e-02   |Residual|: 6.819e-02   |deigs|: 1.004e-04  t[s]:  20365.71
	FillingsUpdate:  mu: +0.760675436  nElectrons: 876.000000
SCF: Cycle:  2   F: -6074.753623104896178   dF: -2.273e-02   |Residual|: 7.054e-03   |deigs|: 8.757e-05  t[s]:  20633.22
	FillingsUpdate:  mu: +0.760674670  nElectrons: 876.000000
SCF: Cycle:  3   F: -6074.753719241990439   dF: -9.614e-05   |Residual|: 4.360e-03   |deigs|: 1.505e-05  t[s]:  20899.64
	FillingsUpdate:  mu: +0.760678476  nElectrons: 876.000000
SCF: Cycle:  4   F: -6074.753628373466199   dF: +9.087e-05   |Residual|: 6.456e-03   |deigs|: 1.168e-05  t[s]:  21163.22
	FillingsUpdate:  mu: +0.760676739  nElectrons: 876.000000
SCF: Cycle:  5   F: -6074.753781864025768   dF: -1.535e-04   |Residual|: 1.120e-03   |deigs|: 1.111e-05  t[s]:  21431.66
	FillingsUpdate:  mu: +0.760676279  nElectrons: 876.000000
SCF: Cycle:  6   F: -6074.753780788307267   dF: +1.076e-06   |Residual|: 1.292e-03   |deigs|: 3.435e-06  t[s]:  21703.03
	FillingsUpdate:  mu: +0.760675424  nElectrons: 876.000000
SCF: Cycle:  7   F: -6074.753784646086388   dF: -3.858e-06   |Residual|: 6.173e-04   |deigs|: 3.056e-06  t[s]:  21980.26
	FillingsUpdate:  mu: +0.760675186  nElectrons: 876.000000
SCF: Cycle:  8   F: -6074.753785311110732   dF: -6.650e-07   |Residual|: 4.198e-04   |deigs|: 1.184e-06  t[s]:  22247.79
	FillingsUpdate:  mu: +0.760675837  nElectrons: 876.000000
SCF: Cycle:  9   F: -6074.753785208155932   dF: +1.030e-07   |Residual|: 4.555e-04   |deigs|: 1.322e-06  t[s]:  22526.36
	FillingsUpdate:  mu: +0.760675972  nElectrons: 876.000000
SCF: Cycle: 10   F: -6074.753785942653849   dF: -7.345e-07   |Residual|: 5.612e-05   |deigs|: 6.193e-07  t[s]:  22799.08
	FillingsUpdate:  mu: +0.760675684  nElectrons: 876.000000
SCF: Cycle: 11   F: -6074.753785795671320   dF: +1.470e-07   |Residual|: 2.167e-04   |deigs|: 3.626e-07  t[s]:  23071.86
	FillingsUpdate:  mu: +0.760675737  nElectrons: 876.000000
SCF: Cycle: 12   F: -6074.753785948662880   dF: -1.530e-07   |Residual|: 3.086e-05   |deigs|: 3.162e-07  t[s]:  23342.80
	FillingsUpdate:  mu: +0.760675734  nElectrons: 876.000000
SCF: Cycle: 13   F: -6074.753785950584643   dF: -1.922e-09   |Residual|: 2.257e-05   |deigs|: 7.108e-08  t[s]:  23551.59
	FillingsUpdate:  mu: +0.760675798  nElectrons: 876.000000
SCF: Cycle: 14   F: -6074.753785951070313   dF: -4.857e-10   |Residual|: 1.938e-05   |deigs|: 7.161e-08  t[s]:  23711.54
SCF: Converged (|Delta E|<1.000000e-08 for 2 iters).

Setting wave functions to eigenvectors of Hamiltonian

# Ionic positions in lattice coordinates:
ion Mn   0.000000000000000   0.000000000000000   0.000000000000000 0
ion Mn   0.324111424469689   0.312054996162015   0.323261766869095 1
ion Mn   0.186570081666532   0.175968622974406   0.823696048767768 1
ion Mn   0.825172882147796   0.175845607241855   0.184748376209103 1
ion Mn   0.187356315672596   0.813535412041341   0.187107236021114 1
ion Mn   0.362563476872151   0.027770313993867   0.362724024216461 1
ion Mn   0.148037057623380   0.459187157769753   0.860311917947334 1
ion Mn   0.862978333939090   0.460707861903419   0.140101969236570 1
ion Mn   0.150886221031940   0.850468775301337   0.465843607719504 1
ion Mn   0.147748825249684   0.137320405025863   0.539536328727199 1
ion Mn   0.540518252057636   0.137007824902543   0.148079911916809 1
ion Mn   0.464425965157834   0.851106825962922   0.149767365871132 1
ion Mn   0.463789526367479   0.139067033141081   0.862471789255285 1
ion Mn   0.862361695770043   0.139702223425091   0.463088221413685 1
ion Mn   0.361837037645553   0.350843216709690   0.039065836531929 1
ion Mn   0.041036359740750   0.351117563819997   0.353254347811614 1
ion Mn   0.149122204796177   0.534827825662214   0.143129409716718 1
ion Mn   0.095918998278831   0.276326002109888   0.089232096028513 1
ion Mn   0.922138190297342   0.714566543817338   0.088198695881699 1
ion Mn   0.098860586996432   0.714422300200065   0.911264524014031 1
ion Mn   0.914576948961116   0.090366074708922   0.723154029996863 1
ion Mn   0.412241354904098   0.408448518356366   0.785676326633055 1
ion Mn   0.787179845330700   0.401232748219743   0.404339533329710 1
ion Mn   0.724404388256758   0.088882447548636   0.914538697244205 1
ion Mn   0.725145629775015   0.910035014478697   0.096048327959738 1
ion Mn   0.093113846091628   0.910617831496953   0.723331730887921 1
ion Mn   0.096014938058281   0.085437238289040   0.286165808980688 1
ion Mn   0.286906311764979   0.086044639943070   0.096748063388228 1
ion Mn   0.423194454637219   0.774836632399584   0.417612432476687 1
ion Mn   0.486582112807726   0.468827850445341   0.500558083456038 1
ion Mn   0.825597492587284   0.819742641689890   0.826027456523735 1
ion Mn   0.701296392111115   0.686008210064238   0.292863097317150 1
ion Mn   0.313871995345403   0.675976614142481   0.686303496518639 1
ion Mn   0.686276351926891   0.322701946753319   0.686028700949951 1
ion Mn   0.861033000153583   0.537420802101127   0.852613158779825 1
ion Mn   0.649581950595492   0.962526099212083   0.362127316123408 1
ion Mn   0.361898043726973   0.955041517519822   0.649256591875459 1
ion Mn   0.648309936790272   0.351643846569040   0.962990252825000 1
ion Mn   0.649788841847001   0.638621051575921   0.036180890826895 1
ion Mn   0.038968963800659   0.639561050834386   0.646739066833041 1
ion Mn   0.962592349444586   0.357983586437224   0.639288372300805 1
ion Mn   0.972473879199774   0.638104565324722   0.360592337828140 1
ion Mn   0.362611910006275   0.638712789922002   0.963337846018187 1
ion Mn   0.866600911514371   0.861243466430694   0.546939717988937 1
ion Mn   0.543263658422989   0.861998920572527   0.874047336551164 1
ion Mn   0.649602281688852   0.048807159905443   0.648867210330124 1
ion Mn   0.598794914141553   0.802347178541278   0.623640189036764 1
ion Mn   0.411558705995353   0.210222921056709   0.598588209355801 1
ion Mn   0.590284747516786   0.212842706086767   0.413420770531756 1
ion Mn   0.412890228502629   0.584363938938988   0.214824131063732 1
ion Mn   0.916048942815628   0.903542946112319   0.286866278407317 1
ion Mn   0.286063910921113   0.909471131543791   0.915079801821581 1
ion Mn   0.223830093712731   0.585481277852606   0.412012219197624 1
ion Mn   0.218510715647659   0.402660466585933   0.590446242290122 1
ion Mn   0.591193039809334   0.403193143639222   0.214620876854548 1
ion Mn   0.590001557896966   0.587120458766298   0.787941425451522 1
ion Mn   0.785827425553790   0.587595655808255   0.587441655960696 1
ion Mn   0.914686699182292   0.283987730904629   0.911908398661271 1
ion O   0.598760935130319   0.648162208253604   0.475291311304518 1

# Forces in Lattice coordinates:
force Mn   0.087587247654970  -0.034103363117444   0.078918212658251 0
force Mn  -0.001843435196218   0.001110491736398  -0.001173073833909 1
force Mn  -0.002577695982719   0.001024651758040   0.002092096228576 1
force Mn   0.001181803973002   0.000076100817718   0.001604041281082 1
force Mn  -0.001528520809033  -0.002010128599888   0.000922090112750 1
force Mn   0.000808723834035  -0.002519485313117   0.002211614707017 1
force Mn   0.001887234073417  -0.000116070028898  -0.000247071339936 1
force Mn   0.002165632915632  -0.003239589527776  -0.001350202188686 1
force Mn  -0.002045413761954  -0.002230496540035  -0.000818762193101 1
force Mn   0.000035685077773   0.000632282611632   0.001152799794714 1
force Mn   0.001365982250990   0.001978945123436  -0.001493835573716 1
force Mn  -0.000426684237429  -0.002320765136925   0.001202535052365 1
force Mn  -0.001873269930218   0.002772414264774  -0.001365700335953 1
force Mn  -0.000081180605155  -0.000036821726177  -0.001490752584975 1
force Mn   0.000968430661544   0.002426343102462   0.000810090452660 1
force Mn   0.000667119595206   0.001309986453009   0.002474113157373 1
force Mn   0.000687709500252   0.000550062968202   0.005607378991944 1
force Mn  -0.001450916122686   0.001327382182107   0.001347927144796 1
force Mn   0.002588818854346   0.000273850933665  -0.000865169108726 1
force Mn  -0.000817020227946  -0.001512855391412   0.001778957729259 1
force Mn   0.000385994431785  -0.001238228026550   0.000013317152193 1
force Mn  -0.000431267356484  -0.001325998911075   0.001738190800058 1
force Mn   0.000590534358531  -0.003730917562644   0.001286917671240 1
force Mn   0.003128221890661  -0.001569584679143  -0.000586184634970 1
force Mn   0.004046941318980   0.000362401594313   0.002208526130386 1
force Mn  -0.001414148786499  -0.000801959969598  -0.000398154983372 1
force Mn   0.005127476074826  -0.000527857159717   0.001252640849252 1
force Mn  -0.000910224535821  -0.001366272135215  -0.002136928360855 1
force Mn  -0.002495177400192  -0.000062889114241  -0.004078161373222 1
force Mn   0.013254876312264  -0.016670392232466   0.004243923761530 1
force Mn  -0.001110378209298  -0.010803065716205  -0.002627857278482 1
force Mn  -0.001321099308336  -0.002575849205144   0.010062787829817 1
force Mn   0.001137356596603  -0.000523778043337  -0.000649724314854 1
force Mn   0.002629061132252   0.001959398848204  -0.000739295924384 1
force Mn  -0.000296708654965  -0.000663531696478  -0.003036674757043 1
force Mn   0.002640589261640  -0.000680085250433  -0.000380980249822 1
force Mn   0.003257350322535  -0.012724984769523  -0.001583736371728 1
force Mn   0.001883793549888  -0.000166666516568  -0.000202472454297 1
force Mn  -0.001289537531060  -0.000605961068944  -0.001458327196161 1
force Mn  -0.000240087749207  -0.005650883159364  -0.001043482245445 1
force Mn   0.000664939235206  -0.002448459398828   0.000870377446014 1
force Mn  -0.001795722349211  -0.002740380685951   0.002898290532179 1
force Mn   0.001137955692790  -0.002852754264866   0.002105831187926 1
force Mn  -0.000177403747370  -0.000736084011900  -0.000855683848107 1
force Mn   0.005041138278522  -0.003496158013512  -0.003364015409861 1
force Mn   0.000043937149236  -0.006813521595195   0.001011515868436 1
force Mn   0.003648725245145   0.008070826036834   0.016184290466449 1
force Mn   0.001557594245130  -0.005292387347293  -0.000366082411639 1
force Mn   0.003464316890875   0.001501475034987  -0.002865680359175 1
force Mn  -0.001596058908060  -0.001164988793325  -0.000136957123004 1
force Mn   0.003915953933899   0.002067009717636   0.000010162558655 1
force Mn  -0.000291314449757  -0.002134934681610  -0.002111935446194 1
force Mn  -0.002187582347082  -0.000663564321103  -0.000171162843769 1
force Mn   0.009331706174546  -0.001245784142511   0.000737901431633 1
force Mn   0.001940709444905  -0.000760641290077   0.003388634174165 1
force Mn   0.000346421077579   0.001256183118664  -0.001438592351836 1
force Mn   0.005713339046796  -0.004248774835044  -0.000958565252644 1
force Mn  -0.000287077076509  -0.001173505970570  -0.000341062096665 1
force O   0.003503980242154  -0.012061183561636  -0.014356269184315 1

# Energy components:
   Eewald =    -4557.2337521637173268
       EH =     1384.7192837254476672
     Eloc =    -4451.9679066230301032
      Enl =     1007.0660150069936662
      Exc =     -765.9974686648386069
 Exc_core =       63.0522307219156488
       KE =     1246.3317449307605784
-------------------------------------
     Etot =    -6074.0298530664686041
       TS =        0.7239328846017380
-------------------------------------
        F =    -6074.7537859510703129

IonicMinimize: Iter:   3  F: -6074.753785951070313  |grad|_K:  2.283e-04  alpha:  1.000e+00  linmin: -6.636e-02  t[s]:  23759.13

#--- Lowdin population analysis ---
# oxidation-state Mn +0.094 +0.075 +0.079 +0.080 +0.079 +0.015 +0.017 +0.015 +0.012 +0.018 +0.017 +0.012 +0.011 +0.009 +0.013 +0.013 +0.014 -0.024 -0.025 -0.023 -0.024 -0.026 -0.012 -0.022 -0.031 -0.026 -0.020 -0.023 -0.001 +0.091 +0.077 +0.083 +0.079 +0.075 +0.012 +0.013 +0.013 +0.014 +0.005 +0.008 +0.015 +0.013 +0.011 +0.017 +0.010 +0.009 -0.007 -0.030 -0.029 -0.015 -0.025 -0.020 -0.024 -0.024 -0.022 -0.012 +0.002 -0.021
# oxidation-state O +0.001


-------- Electronic minimization -----------
Will mix electronic density at each iteration.
	FillingsUpdate:  mu: +0.760675798  nElectrons: 876.000000
	FillingsUpdate:  mu: +0.760675942  nElectrons: 876.000000
SCF: Cycle:  0   F: -6074.753398941698833   dF: +3.442e-04   |Residual|: 8.621e-03   |deigs|: 8.946e-07  t[s]:  24196.20
	FillingsUpdate:  mu: +0.760675089  nElectrons: 876.000000
SCF: Cycle:  1   F: -6074.728873194072548   dF: +2.453e-02   |Residual|: 7.257e-02   |deigs|: 9.311e-05  t[s]:  24457.05
	FillingsUpdate:  mu: +0.760676528  nElectrons: 876.000000
SCF: Cycle:  2   F: -6074.753628260715232   dF: -2.476e-02   |Residual|: 7.740e-03   |deigs|: 8.451e-05  t[s]:  24722.01
	FillingsUpdate:  mu: +0.760674345  nElectrons: 876.000000
SCF: Cycle:  3   F: -6074.753732441599823   dF: -1.042e-04   |Residual|: 5.093e-03   |deigs|: 1.744e-05  t[s]:  24989.73
	FillingsUpdate:  mu: +0.760676595  nElectrons: 876.000000
SCF: Cycle:  4   F: -6074.753570559621949   dF: +1.619e-04   |Residual|: 8.101e-03   |deigs|: 1.344e-05  t[s]:  25263.88
	FillingsUpdate:  mu: +0.760675098  nElectrons: 876.000000
SCF: Cycle:  5   F: -6074.753817085519586   dF: -2.465e-04   |Residual|: 1.221e-03   |deigs|: 1.303e-05  t[s]:  25536.38
	FillingsUpdate:  mu: +0.760675087  nElectrons: 876.000000
SCF: Cycle:  6   F: -6074.753818507781034   dF: -1.422e-06   |Residual|: 1.072e-03   |deigs|: 3.071e-06  t[s]:  25809.14
	FillingsUpdate:  mu: +0.760675732  nElectrons: 876.000000
SCF: Cycle:  7   F: -6074.753819017541900   dF: -5.098e-07   |Residual|: 9.382e-04   |deigs|: 2.147e-06  t[s]:  26086.54
	FillingsUpdate:  mu: +0.760675561  nElectrons: 876.000000
SCF: Cycle:  8   F: -6074.753821876655820   dF: -2.859e-06   |Residual|: 1.785e-04   |deigs|: 1.231e-06  t[s]:  26359.58
	FillingsUpdate:  mu: +0.760675379  nElectrons: 876.000000
SCF: Cycle:  9   F: -6074.753821542407422   dF: +3.342e-07   |Residual|: 3.484e-04   |deigs|: 7.483e-07  t[s]:  26628.06
	FillingsUpdate:  mu: +0.760675229  nElectrons: 876.000000
SCF: Cycle: 10   F: -6074.753821976397376   dF: -4.340e-07   |Residual|: 6.909e-05   |deigs|: 5.175e-07  t[s]:  26909.41
	FillingsUpdate:  mu: +0.760675172  nElectrons: 876.000000
SCF: Cycle: 11   F: -6074.753821953172519   dF: +2.322e-08   |Residual|: 1.078e-04   |deigs|: 2.300e-07  t[s]:  27185.42
	FillingsUpdate:  mu: +0.760675367  nElectrons: 876.000000
SCF: Cycle: 12   F: -6074.753821985872491   dF: -3.270e-08   |Residual|: 4.045e-05   |deigs|: 2.611e-07  t[s]:  27458.18
	FillingsUpdate:  mu: +0.760675350  nElectrons: 876.000000
SCF: Cycle: 13   F: -6074.753821989936114   dF: -4.064e-09   |Residual|: 1.977e-05   |deigs|: 7.817e-08  t[s]:  27684.81
	FillingsUpdate:  mu: +0.760675312  nElectrons: 876.000000
SCF: Cycle: 14   F: -6074.753821988379968   dF: +1.556e-09   |Residual|: 2.509e-05   |deigs|: 6.528e-08  t[s]:  27855.30
	FillingsUpdate:  mu: +0.760675315  nElectrons: 876.000000
SCF: Cycle: 15   F: -6074.753821989905191   dF: -1.525e-09   |Residual|: 1.963e-05   |deigs|: 4.260e-08  t[s]:  28006.61
	FillingsUpdate:  mu: +0.760675310  nElectrons: 876.000000
SCF: Cycle: 16   F: -6074.753821991066616   dF: -1.161e-09   |Residual|: 1.611e-05   |deigs|: 4.484e-08  t[s]:  28154.91
SCF: Converged (|Delta E|<1.000000e-08 for 2 iters).

Setting wave functions to eigenvectors of Hamiltonian

# Ionic positions in lattice coordinates:
ion Mn   0.000000000000000   0.000000000000000   0.000000000000000 0
ion Mn   0.324102857596868   0.312027445307993   0.323155565095102 1
ion Mn   0.186591861059623   0.175947568843751   0.823652023446415 1
ion Mn   0.825196806649649   0.175845721144416   0.184725974134505 1
ion Mn   0.187381508220982   0.813514982014400   0.187078040344421 1
ion Mn   0.362621808521025   0.027717013971871   0.362751281091875 1
ion Mn   0.148075902133737   0.459214607267300   0.860198454647045 1
ion Mn   0.862999595102270   0.460737602748774   0.140252117476978 1
ion Mn   0.150930348454414   0.850440730170062   0.465867166787466 1
ion Mn   0.147830050549509   0.137286336283678   0.539530423526285 1
ion Mn   0.540496243076308   0.137012914624714   0.148172863997962 1
ion Mn   0.464447780419351   0.851116076567946   0.149747439655050 1
ion Mn   0.463840035832237   0.138932839359409   0.862480924645077 1
ion Mn   0.862361762957476   0.139650817865162   0.463024472973276 1
ion Mn   0.361853415757997   0.350844679160588   0.039025395094408 1
ion Mn   0.041098542265094   0.351075820436893   0.353338646225930 1
ion Mn   0.149141888201643   0.534716376044429   0.143456754321735 1
ion Mn   0.095869390949245   0.276341957819559   0.089194466068647 1
ion Mn   0.922090347016908   0.714535798067202   0.088285104696259 1
ion Mn   0.098889404388267   0.714357289984047   0.911296001719280 1
ion Mn   0.914519086504766   0.090272007920159   0.723113528888345 1
ion Mn   0.412310468584731   0.408440967429168   0.785730500095123 1
ion Mn   0.787182705803577   0.401236022080084   0.404407238783173 1
ion Mn   0.724391233219521   0.088780866150294   0.914522049819730 1
ion Mn   0.725143244837951   0.909973525238177   0.096188197843227 1
ion Mn   0.093086081364278   0.910520358279219   0.723377219883160 1
ion Mn   0.096441761691277   0.085455747092171   0.286131038129666 1
ion Mn   0.286955817905647   0.086048461470767   0.096618877402763 1
ion Mn   0.423271718801891   0.774745257381109   0.417550859184789 1
ion Mn   0.486704321886725   0.468173943570426   0.500501912569506 1
ion Mn   0.825598825749262   0.819331752631674   0.826009339705143 1
ion Mn   0.701261137701453   0.686008645346399   0.292898404176384 1
ion Mn   0.313880731263643   0.675947080663730   0.686333236173729 1
ion Mn   0.686341657127684   0.322559482641802   0.686013455326953 1
ion Mn   0.861092959874235   0.537382675543852   0.852706932266331 1
ion Mn   0.649604441511937   0.962447002790393   0.362140739216314 1
ion Mn   0.361931177026803   0.954546616762531   0.649243936235368 1
ion Mn   0.648342277422184   0.351561375111110   0.962984561368935 1
ion Mn   0.649800990066228   0.638628520988509   0.036201458602687 1
ion Mn   0.039063518982225   0.639520001156007   0.646648187733486 1
ion Mn   0.962679460108227   0.357818552347366   0.639227694122356 1
ion Mn   0.972455990760256   0.638110477843794   0.360607681282551 1
ion Mn   0.362596543360724   0.638727204768697   0.963278180342014 1
ion Mn   0.866682420854479   0.861192700399193   0.546901011218985 1
ion Mn   0.543433784153171   0.861925216650460   0.873982275452644 1
ion Mn   0.649600785494940   0.048673871631658   0.648799056051724 1
ion Mn   0.598817373185029   0.802093568666070   0.623516376973139 1
ion Mn   0.411614059371275   0.210023317855872   0.598663923736782 1
ion Mn   0.590300233267102   0.212807459855428   0.413417442498394 1
ion Mn   0.412937217797179   0.584373993886517   0.214759145152697 1
ion Mn   0.916185085066014   0.903567346532740   0.286906668536616 1
ion Mn   0.286106172359240   0.909390013336555   0.915066327438650 1
ion Mn   0.223867453571278   0.585501392000809   0.412071023274071 1
ion Mn   0.219088214883343   0.402623095754653   0.590428425466390 1
ion Mn   0.591309653772202   0.403186099671003   0.214564931663594 1
ion Mn   0.589998470339568   0.587085924266627   0.787912202696189 1
ion Mn   0.785866064901507   0.587547462717921   0.587411635163290 1
ion Mn   0.914672955504814   0.283895089279711   0.911892156238957 1
ion O   0.598674687566257   0.647728619600289   0.475247333017098 1

[...]
ion Mn   0.921710512196578   0.903645990090479   0.286957018912053 1
ion Mn   0.286471433138172   0.902648633157023   0.914364308532760 1
ion Mn   0.224667065819255   0.584295390937107   0.413574869043733 1
ion Mn   0.222481941383953   0.401389368112802   0.595612919375937 1
ion Mn   0.597716319990845   0.401595719374192   0.217286515924450 1
ion Mn   0.589839563836900   0.585268680940970   0.788897861790591 1
ion Mn   0.786224491373205   0.586579915317117   0.590298904073870 1
ion Mn   0.914354835541749   0.277835497697076   0.914380829190849 1
ion O   0.596153498268260   0.644486854430761   0.477473604789443 1

# Forces in Lattice coordinates:
force Mn   0.099980599811123  -0.082865140876116   0.081405992181125 0
force Mn  -0.000701126924026  -0.000692307891751  -0.000551579624277 1
force Mn  -0.002517584299385   0.000640581071747   0.000797045819310 1
force Mn   0.000093511314444  -0.000009925399477  -0.002488104333932 1
force Mn  -0.000961575352511   0.000060621022028  -0.000280013680436 1
force Mn  -0.002952980476830   0.000552015154181  -0.002722374722594 1
force Mn  -0.002044388770985   0.000259122800735  -0.000154172057814 1
force Mn   0.002764405367451  -0.000421076041858  -0.012121884501496 1
force Mn  -0.001914078834747   0.002340635969060   0.000655114571021 1
force Mn  -0.000664444438053  -0.001384516535662  -0.000121740262119 1
force Mn  -0.001392827592648  -0.000157069940864  -0.002580445721105 1
force Mn  -0.000560419763414  -0.001239501247385  -0.000868675823502 1
force Mn   0.003648662451612  -0.004471429462965   0.004998530122212 1
force Mn   0.001679246826064  -0.000928384647419   0.000300527756041 1
force Mn  -0.002647857369529  -0.004803172471735   0.000686102602206 1
force Mn   0.000113903014565  -0.000706111796346   0.003725674435469 1
force Mn  -0.003457163682270  -0.001885909003777  -0.000794292802225 1
force Mn  -0.001363028559560   0.006579935928404   0.002676199971332 1
force Mn   0.000420423359218  -0.001229404345337  -0.001192480128071 1
force Mn   0.002288097509395  -0.002509353827474  -0.001697435403042 1
force Mn   0.003617037755049   0.001290673612592  -0.000393190094667 1
force Mn   0.001077450195347   0.000496941507560  -0.003118110516273 1
force Mn  -0.002706632119533  -0.004696731534495   0.000553555363282 1
force Mn  -0.002495169236993  -0.001311946855561   0.001030677911087 1
force Mn  -0.001468647863978  -0.002531288823769  -0.002709459399881 1
force Mn  -0.000859264875962  -0.004232213754095  -0.002114053686151 1
force Mn  -0.003656578460359  -0.001740410254875   0.002427713357076 1
force Mn   0.006694262286906   0.000932159552679  -0.000824293993412 1
force Mn   0.000430307887547  -0.001827218865533   0.000461304585984 1
force Mn  -0.002753578040009  -0.000203985813869   0.002677257415986 1
force Mn   0.000411406747320   0.000813059994014   0.000298125073013 1
force Mn   0.000154684487321  -0.000668270322034   0.000293697579828 1
force Mn  -0.000822863687803   0.000918645784032   0.002555228734938 1
force Mn   0.000398358139290   0.005109952423393   0.002867907854665 1
force Mn   0.001217292864176  -0.001990371996495  -0.010779297258536 1
force Mn   0.001326244704575  -0.003817763640448  -0.000942443552596 1
force Mn  -0.001884134858758  -0.000676692134041   0.002820318605851 1
force Mn   0.002908076812891  -0.001538927852097   0.000376714479135 1
force Mn   0.001607271821536  -0.000021496164020   0.002169006082385 1
force Mn   0.000041943890262   0.001804890544157  -0.002693788424354 1
force Mn  -0.002404260415637  -0.002117952040466   0.003713202261012 1
force Mn   0.000848228791735   0.002142827352653  -0.001488580037765 1
force Mn  -0.004218289027608   0.003570519636265  -0.000801963103019 1
force Mn   0.000266064308086  -0.000902120677624   0.002454940538508 1
force Mn  -0.001074261016996   0.001554933898593   0.001990134872030 1
force Mn   0.000343309840202  -0.003176057608749   0.003274807769656 1
force Mn  -0.000124735926335  -0.007224771490179  -0.003236387537282 1
force Mn  -0.000591281267980   0.001776655468988   0.000041049731753 1
force Mn   0.001583920780883   0.005465259954198  -0.000919560867824 1
force Mn  -0.000699265918510   0.000059381912005   0.003337601406974 1
force Mn   0.001172700392363  -0.002040007899165   0.000754140528206 1
force Mn   0.002675581372785  -0.000671793412245   0.000678371866342 1
force Mn   0.001375385283856  -0.000920677987208  -0.000437547784347 1
force Mn  -0.001831020657371   0.001260329331771   0.003583272659733 1
force Mn   0.002994877736665  -0.004607282941150  -0.000327262803026 1
force Mn   0.001295786782952  -0.001245797528784  -0.001327648814504 1
force Mn  -0.002057341442282   0.000458521698640   0.003238680763685 1
force Mn   0.003101062251844   0.000849759611441  -0.001426961683769 1
force O   0.003084107708691   0.006243180347711  -0.001015324533269 1

# Energy components:
   Eewald =    -4557.2217140904185726
       EH =     1384.7430764747152807
     Eloc =    -4451.9965083079696342
      Enl =     1007.0660212612242503
      Exc =     -765.9945028789866228
 Exc_core =       63.0508849679972627
       KE =     1246.3215932655530196
-------------------------------------
     Etot =    -6074.0311493078843341
       TS =        0.7239840990000448
-------------------------------------
        F =    -6074.7551334068839424

IonicMinimize: Iter:  31  F: -6074.755133406883942  |grad|_K:  1.622e-04  alpha:  1.000e+00  linmin:  7.923e-02  t[s]: 242564.37

#--- Lowdin population analysis ---
# oxidation-state Mn +0.094 +0.074 +0.078 +0.080 +0.079 +0.015 +0.016 +0.015 +0.012 +0.018 +0.017 +0.013 +0.011 +0.011 +0.013 +0.015 +0.015 -0.023 -0.026 -0.023 -0.025 -0.027 -0.012 -0.021 -0.030 -0.025 -0.020 -0.021 +0.001 +0.090 +0.076 +0.084 +0.080 +0.074 +0.015 +0.013 +0.012 +0.015 +0.006 +0.012 +0.013 +0.009 +0.011 +0.015 +0.009 +0.006 -0.007 -0.029 -0.031 -0.014 -0.024 -0.021 -0.026 -0.025 -0.023 -0.009 +0.004 -0.023
# oxidation-state O +0.001


-------- Electronic minimization -----------
Will mix electronic density at each iteration.
	FillingsUpdate:  mu: +0.760723606  nElectrons: 876.000000
	FillingsUpdate:  mu: +0.760720114  nElectrons: 876.000000
SCF: Cycle:  0   F: -6074.754648571612051   dF: +4.536e-04   |Residual|: 8.457e-03   |deigs|: 4.018e-07  t[s]: 242991.13
	FillingsUpdate:  mu: +0.760730589  nElectrons: 876.000000
SCF: Cycle:  1   F: -6074.731216792505620   dF: +2.343e-02   |Residual|: 6.825e-02   |deigs|: 8.823e-05  t[s]: 243246.66
	FillingsUpdate:  mu: +0.760721289  nElectrons: 876.000000
SCF: Cycle:  2   F: -6074.755000018252758   dF: -2.378e-02   |Residual|: 6.576e-03   |deigs|: 7.724e-05  t[s]: 243504.22
	FillingsUpdate:  mu: +0.760723327  nElectrons: 876.000000
SCF: Cycle:  3   F: -6074.755075355792542   dF: -7.534e-05   |Residual|: 4.297e-03   |deigs|: 1.379e-05  t[s]: 243759.18
	FillingsUpdate:  mu: +0.760721204  nElectrons: 876.000000
SCF: Cycle:  4   F: -6074.754983391780115   dF: +9.196e-05   |Residual|: 6.466e-03   |deigs|: 1.158e-05  t[s]: 244024.56
	FillingsUpdate:  mu: +0.760720857  nElectrons: 876.000000
SCF: Cycle:  5   F: -6074.755140814300830   dF: -1.574e-04   |Residual|: 9.256e-04   |deigs|: 8.921e-06  t[s]: 244295.26
	FillingsUpdate:  mu: +0.760721039  nElectrons: 876.000000
SCF: Cycle:  6   F: -6074.755140936454154   dF: -1.222e-07   |Residual|: 9.636e-04   |deigs|: 2.725e-06  t[s]: 244558.93
	FillingsUpdate:  mu: +0.760722321  nElectrons: 876.000000
SCF: Cycle:  7   F: -6074.755140924454281   dF: +1.200e-08   |Residual|: 8.730e-04   |deigs|: 2.595e-06  t[s]: 244830.12
	FillingsUpdate:  mu: +0.760722410  nElectrons: 876.000000
SCF: Cycle:  8   F: -6074.755143568192580   dF: -2.644e-06   |Residual|: 2.209e-04   |deigs|: 1.197e-06  t[s]: 245097.96
	FillingsUpdate:  mu: +0.760721789  nElectrons: 876.000000
SCF: Cycle:  9   F: -6074.755143275148839   dF: +2.930e-07   |Residual|: 3.701e-04   |deigs|: 1.127e-06  t[s]: 245370.73
	FillingsUpdate:  mu: +0.760721618  nElectrons: 876.000000
SCF: Cycle: 10   F: -6074.755143771460098   dF: -4.963e-07   |Residual|: 4.684e-05   |deigs|: 6.819e-07  t[s]: 245635.84
	FillingsUpdate:  mu: +0.760721669  nElectrons: 876.000000
SCF: Cycle: 11   F: -6074.755143684100403   dF: +8.736e-08   |Residual|: 1.590e-04   |deigs|: 3.217e-07  t[s]: 245906.74
	FillingsUpdate:  mu: +0.760721728  nElectrons: 876.000000
SCF: Cycle: 12   F: -6074.755143776207660   dF: -9.211e-08   |Residual|: 2.695e-05   |deigs|: 2.768e-07  t[s]: 246183.45
	FillingsUpdate:  mu: +0.760721729  nElectrons: 876.000000
SCF: Cycle: 13   F: -6074.755143777256308   dF: -1.049e-09   |Residual|: 1.758e-05   |deigs|: 7.107e-08  t[s]: 246377.00
	FillingsUpdate:  mu: +0.760721704  nElectrons: 876.000000
SCF: Cycle: 14   F: -6074.755143776699697   dF: +5.566e-10   |Residual|: 2.387e-05   |deigs|: 4.372e-08  t[s]: 246529.14
	FillingsUpdate:  mu: +0.760721704  nElectrons: 876.000000
SCF: Cycle: 15   F: -6074.755143777872945   dF: -1.173e-09   |Residual|: 1.214e-05   |deigs|: 4.059e-08  t[s]: 246679.60
	FillingsUpdate:  mu: +0.760721705  nElectrons: 876.000000
SCF: Cycle: 16   F: -6074.755143777384546   dF: +4.884e-10   |Residual|: 1.622e-05   |deigs|: 3.230e-08  t[s]: 246832.97
	FillingsUpdate:  mu: +0.760721707  nElectrons: 876.000000
SCF: Cycle: 17   F: -6074.755143778906131   dF: -1.522e-09   |Residual|: 7.422e-06   |deigs|: 3.125e-08  t[s]: 246982.17
	FillingsUpdate:  mu: +0.760721703  nElectrons: 876.000000
SCF: Cycle: 18   F: -6074.755143778635102   dF: +2.710e-10   |Residual|: 7.612e-06   |deigs|: 1.758e-08  t[s]: 247137.65
	FillingsUpdate:  mu: +0.760721704  nElectrons: 876.000000
SCF: Cycle: 19   F: -6074.755143778919773   dF: -2.847e-10   |Residual|: 7.273e-06   |deigs|: 1.242e-08  t[s]: 247290.28
	FillingsUpdate:  mu: +0.760721713  nElectrons: 876.000000
SCF: Cycle: 20   F: -6074.755143778080310   dF: +8.395e-10   |Residual|: 3.216e-06   |deigs|: 1.567e-08  t[s]: 247436.38
	FillingsUpdate:  mu: +0.760721715  nElectrons: 876.000000
SCF: Cycle: 21   F: -6074.755143778314050   dF: -2.337e-10   |Residual|: 3.128e-06   |deigs|: 1.015e-08  t[s]: 247585.71
	FillingsUpdate:  mu: +0.760721713  nElectrons: 876.000000
SCF: Cycle: 22   F: -6074.755143778363163   dF: -4.911e-11   |Residual|: 1.074e-06   |deigs|: 6.162e-09  t[s]: 247734.97
SCF: Converged (|Delta E|<1.000000e-08 for 2 iters).

Setting wave functions to eigenvectors of Hamiltonian

# Ionic positions in lattice coordinates:
ion Mn   0.000000000000000   0.000000000000000   0.000000000000000 0
ion Mn   0.324563187222951   0.311135575810739   0.323894731855386 1
ion Mn   0.186322963057810   0.174373494307804   0.824443669066116 1
ion Mn   0.825275265050183   0.175193183283054   0.186361739914065 1
ion Mn   0.187812643781897   0.812335652083422   0.187259442266771 1
ion Mn   0.362737584522261   0.026597033122050   0.362473324315514 1
ion Mn   0.148062818450161   0.453589941583198   0.861823023430913 1
ion Mn   0.863802177512171   0.459446375247072   0.147497495911690 1
ion Mn   0.151081297203870   0.849872058543282   0.466747748655066 1
ion Mn   0.147960234134750   0.136146424128244   0.542548590846434 1
ion Mn   0.540456675419242   0.136628167945360   0.148193309956115 1
ion Mn   0.464630817949019   0.850088673388973   0.149817756410502 1
ion Mn   0.463912335161702   0.137495289481799   0.863021456455179 1
ion Mn   0.863017367586765   0.138605430883801   0.463461478360669 1
ion Mn   0.362300890851462   0.349880510628749   0.040332780623222 1
ion Mn   0.045814184388005   0.350827957366838   0.362133858704638 1
ion Mn   0.149462761044162   0.529434816327713   0.147857527859575 1
ion Mn   0.095730354112248   0.275394669646210   0.092467677063943 1
ion Mn   0.922835409689592   0.713512741132238   0.089565248141764 1
ion Mn   0.098801287885048   0.711731368456908   0.912515884583771 1
ion Mn   0.914493232153509   0.087043044463607   0.723789403115283 1
ion Mn   0.413384504525642   0.402443955540938   0.786585293366600 1
ion Mn   0.788658056103148   0.400401027217892   0.411608142620203 1
ion Mn   0.724447865027409   0.087207864994364   0.915913026768846 1
ion Mn   0.726038071236455   0.907494613824980   0.098068008278647 1
ion Mn   0.090660743105236   0.903836997226427   0.723769920920757 1
ion Mn   0.098618553697704   0.085725368162159   0.286688784070303 1
ion Mn   0.287186681302307   0.083426924917023   0.093270892996390 1
ion Mn   0.423185336203793   0.773750267928881   0.415506811656602 1
ion Mn   0.487356149989855   0.463146600740340   0.501645144994664 1
ion Mn   0.825584591708068   0.813439956592777   0.826107640311290 1
ion Mn   0.701990249026160   0.685700146812765   0.298053802227505 1
ion Mn   0.314239095125539   0.674479098484052   0.687138042931776 1
ion Mn   0.686795309927070   0.315858834914775   0.687064484270944 1
ion Mn   0.861577935412320   0.535522844843733   0.859834908487906 1
ion Mn   0.650186923615865   0.961925242786196   0.361917431591719 1
ion Mn   0.361782059502634   0.950692158953760   0.649891512688174 1
ion Mn   0.648926449160657   0.350990073628756   0.963804560235769 1
ion Mn   0.649966040449855   0.638007274039481   0.037795872804993 1
ion Mn   0.038790997200664   0.636996385222263   0.647335117515474 1
ion Mn   0.963311069109986   0.351851827447183   0.647482472594046 1
ion Mn   0.973035846500941   0.637716136892434   0.361554971466005 1
ion Mn   0.363034025684984   0.636980759580596   0.964264346502842 1
ion Mn   0.865216165183056   0.859677491922928   0.545052829629294 1
ion Mn   0.547073276858799   0.861230643908478   0.874371045464257 1
ion Mn   0.649915140589553   0.046588389124944   0.649081495472810 1
ion Mn   0.598696382349678   0.800744327566280   0.623736505745270 1
ion Mn   0.411568810731761   0.202838091280589   0.598483773174821 1
ion Mn   0.591017574415165   0.211834511899644   0.413644422636703 1
ion Mn   0.414042598740247   0.577734418002662   0.215497708055936 1
ion Mn   0.921694269027797   0.903577131150300   0.286931444189660 1
ion Mn   0.286451730541080   0.902588764832267   0.914375800156622 1
ion Mn   0.224666911717203   0.584254651704103   0.413558576739226 1
ion Mn   0.222408755639738   0.401398948213625   0.595725683807020 1
ion Mn   0.597740319179719   0.401530930568559   0.217221751360888 1
ion Mn   0.589853260941705   0.585310083141950   0.788870369251725 1
ion Mn   0.786196019228346   0.586614330516885   0.590272463766227 1
ion Mn   0.914461388523281   0.277798619841096   0.914348848541221 1
ion O   0.596190251594245   0.644598664821412   0.477357751237259 1

# Forces in Lattice coordinates:
force Mn   0.100211723155070  -0.082977846189666   0.081170189761690 0
force Mn   0.000805243041681  -0.000496669643766   0.000499825456585 1
force Mn  -0.000079822291260   0.000733361831890  -0.000739031311698 1
force Mn  -0.001604937394545   0.000215087815146   0.000800512809107 1
force Mn   0.000605227044748  -0.000724988546219   0.000376908104204 1
force Mn   0.000757356222264  -0.000547752503269  -0.000053006828495 1
force Mn  -0.000358268468185  -0.001121502201472  -0.001217623125294 1
force Mn  -0.000236429484769  -0.001332564572776  -0.001479313422339 1
force Mn  -0.000002220724991   0.000510135631168   0.000192992220886 1
force Mn   0.000248715414948  -0.000198296969698   0.000753390302098 1
force Mn   0.000699224977266  -0.000736822821772   0.000444598455515 1
force Mn  -0.000424790976871  -0.001581760692008   0.000040560259306 1
force Mn   0.001539741082453  -0.000964027277846  -0.001380110056779 1
force Mn  -0.002378901106424  -0.000071736561072  -0.000009641253891 1
force Mn   0.000956730562984   0.000611231144234   0.000346732747245 1
force Mn  -0.000015475906734  -0.000659894431864  -0.000740297152457 1
force Mn  -0.000605151599231  -0.000330437279006   0.000646860367268 1
force Mn  -0.000470757152534  -0.001198505838521   0.002267231650237 1
force Mn  -0.000576253824120  -0.000476400838783  -0.000862439368688 1
force Mn   0.002818016154903  -0.001287289427646   0.000423616301669 1
force Mn   0.000671340086682   0.001906458663352  -0.001557338702241 1
force Mn  -0.000278883161725   0.000747628606049  -0.001247614234657 1
force Mn  -0.000851142693891  -0.002456242882747   0.000451088684077 1
force Mn  -0.002414061439961  -0.000120917966651  -0.000310461321027 1
force Mn  -0.002398622637610  -0.001888722967277   0.000703152183381 1
force Mn   0.000872414920014  -0.002083703455967  -0.002954170855033 1
force Mn  -0.001626730253670   0.001209534195230   0.001720847398940 1
force Mn   0.000680022565263   0.001351205180491   0.000655019599672 1
force Mn   0.001439549629080  -0.001247905537872  -0.000075878373645 1
force Mn  -0.000728588204443   0.000998855914510   0.000945193945257 1
force Mn  -0.002088450661608   0.001067951796959  -0.000251109805114 1
force Mn  -0.002866257840374  -0.001640217336693   0.001949851084621 1
force Mn   0.000289108938748   0.000247067069076   0.000458821129840 1
force Mn   0.000542017245605  -0.006434271725745  -0.001827367583354 1
force Mn   0.000461703710984  -0.000206772966986  -0.002178895458230 1
force Mn  -0.000054451540850   0.001823074989940   0.000003289051413 1
force Mn   0.000176311126263   0.001797954769483   0.000012397322090 1
force Mn   0.000939652767824  -0.000249836875629   0.001366156505771 1
force Mn  -0.001243706012930  -0.000170651855381   0.000436844825070 1
force Mn   0.001667990794046  -0.001442902107591  -0.000606821663689 1
force Mn   0.000238037961841  -0.000682087995125   0.001533296736037 1
force Mn  -0.000482038321640  -0.000348992568529  -0.000750482306344 1
force Mn   0.000326089320327   0.001805193717862   0.000034237969022 1
force Mn   0.000194324746992   0.000205955318190   0.001616468150864 1
force Mn  -0.001588444646064  -0.000119284612282   0.001781291925189 1
force Mn  -0.000726186306900   0.000436954004465   0.000890005455906 1
force Mn  -0.001679016874215  -0.003707171328276  -0.003804982828302 1
force Mn   0.001325555638231  -0.001450893214586   0.000470615534687 1
force Mn   0.000732014752199  -0.001695965684950  -0.000212870646372 1
force Mn  -0.000956520162882   0.001122218193103   0.000945141710021 1
force Mn   0.000186765146268  -0.000869832600769   0.000885420108745 1
force Mn   0.003530652194668  -0.000432993150191  -0.001691163643657 1
force Mn   0.001643429503511  -0.000955745226543   0.000854423016300 1
force Mn   0.000346874076601   0.000838831787389   0.001732305944021 1
force Mn   0.002582408745058  -0.000815327105084  -0.000625172063010 1
force Mn  -0.001557519625366  -0.001232481084368   0.000721346250895 1
force Mn  -0.001644401652941  -0.000347281407904  -0.001050427554852 1
force Mn  -0.000290340666099   0.000609798214315   0.000433507130034 1
force O   0.001125472612040   0.002261046757808  -0.000469367033639 1

# Energy components:
   Eewald =    -4557.2375084305467681
       EH =     1384.7279210544159014
     Eloc =    -4451.9650934049341231
      Enl =     1007.0656752390948441
      Exc =     -765.9943106928947145
 Exc_core =       63.0509570089225164
       KE =     1246.3212117481136829
-------------------------------------
     Etot =    -6074.0311474778291085
       TS =        0.7239963005338594
-------------------------------------
        F =    -6074.7551437783631627

IonicMinimize: Iter:  32  F: -6074.755143778363163  |grad|_K:  8.274e-05  alpha:  1.000e+00  linmin:  1.824e-02  t[s]: 247783.49
IonicMinimize: Converged (|grad|_K<1.000000e-04).

#--- Lowdin population analysis ---
# oxidation-state Mn +0.094 +0.074 +0.078 +0.080 +0.079 +0.015 +0.016 +0.015 +0.012 +0.018 +0.017 +0.013 +0.011 +0.011 +0.013 +0.015 +0.014 -0.023 -0.026 -0.023 -0.025 -0.026 -0.012 -0.021 -0.030 -0.025 -0.020 -0.021 +0.001 +0.090 +0.076 +0.084 +0.080 +0.074 +0.015 +0.014 +0.012 +0.015 +0.006 +0.012 +0.013 +0.009 +0.011 +0.015 +0.009 +0.007 -0.007 -0.029 -0.031 -0.013 -0.024 -0.021 -0.026 -0.025 -0.023 -0.009 +0.004 -0.023
# oxidation-state O +0.001


Dumping '/data/rc652/Mn/int1/Mn_int1.Ecomponents' ... done
End date and time: Fri Jul 12 23:22:37 2024  (Duration: 2-20:50:22.23)
Done!
