--------------------------------------------------------------------------
[[34256,1],3]: A high-performance Open MPI point-to-point messaging module
was unable to find any relevant network interfaces:

Module: OpenFabrics (openib)
  Host: node3212

Another transport will be used instead, although this may result in
lower performance.
--------------------------------------------------------------------------

*************** JDFTx 1.7.0 (git hash 3664913) ***************

Start date and time: Mon Jul 15 02:52:55 2024
Executable jdftx with command-line: -i ZnO_ion.in
Running on hosts (process indices):  node3212.physics.cornell.edu (0-15)
Divided in process groups (process indices):  0 (0)  1 (1)  2 (2)  3 (3)  4 (4)  5 (5)  6 (6)  7 (7)  8 (8)  9 (9)  10 (10)  11 (11)  12 (12)  13 (13)  14 (14)  15 (15)
Resource initialization completed at t[s]:      0.01
Run totals: 16 processes, 32 threads, 0 GPUs


Input parsed successfully to the following command list (including defaults):

basis kpoint-dependent
coords-type Lattice
core-overlap-check vector
coulomb-interaction Periodic
davidson-band-ratio 1.1
dump End Ecomponents
dump-name /data/rc652/ZnO/ion/ZnO_ion.$VAR
elec-cutoff 20 100
elec-eigen-algo Davidson
elec-ex-corr gga-PBEsol
elec-smearing Fermi 0.01
electronic-minimize  \
	dirUpdateScheme      FletcherReeves \
	linminMethod         DirUpdateRecommended \
	nIterations          100 \
	history              15 \
	knormThreshold       0 \
	maxThreshold         no \
	energyDiffThreshold  1e-08 \
	nEnergyDiff          2 \
	alphaTstart          1 \
	alphaTmin            1e-10 \
	updateTestStepSize   yes \
	alphaTreduceFactor   0.1 \
	alphaTincreaseFactor 3 \
	nAlphaAdjustMax      3 \
	wolfeEnergy          0.0001 \
	wolfeGradient        0.9 \
	fdTest               no
electronic-scf  \
	nIterations	50 \
	energyDiffThreshold	1e-08 \
	residualThreshold	1e-07 \
	mixFraction	0.5 \
	qMetric	0.8 \
	history	10 \
	nEigSteps	2 \
	eigDiffThreshold	1e-08 \
	mixedVariable	Density \
	qKerker	0.8 \
	qKappa	-1 \
	verbose	no \
	mixFractionMag	1.5
exchange-regularization WignerSeitzTruncated
fluid None
fluid-ex-corr lda-TF lda-PZ
fluid-gummel-loop 10 1.000000e-05
fluid-minimize  \
	dirUpdateScheme      PolakRibiere \
	linminMethod         DirUpdateRecommended \
	nIterations          100 \
	history              15 \
	knormThreshold       0 \
	maxThreshold         no \
	energyDiffThreshold  0 \
	nEnergyDiff          2 \
	alphaTstart          1 \
	alphaTmin            1e-10 \
	updateTestStepSize   yes \
	alphaTreduceFactor   0.1 \
	alphaTincreaseFactor 3 \
	nAlphaAdjustMax      3 \
	wolfeEnergy          0.0001 \
	wolfeGradient        0.9 \
	fdTest               no
fluid-solvent H2O 55.338 ScalarEOS \
	epsBulk 78.4 \
	pMol 0.92466 \
	epsInf 1.77 \
	Pvap 1.06736e-10 \
	sigmaBulk 4.62e-05 \
	Rvdw 2.61727 \
	Res 1.42 \
	tauNuc 343133 \
	poleEl 15 7 1
forces-output-coords Positions
ion Zn   0.217210000000000   0.111550000000000   0.250030000000000 1
ion Zn   0.119130000000000   0.216040000000000   0.006920000000000 1
ion Zn   0.213120000000000   0.093200000000000   0.740220000000000 1
ion Zn   0.087200000000000   0.230200000000000   0.512500000000000 1
ion Zn   0.228650000000000   0.445400000000000   0.249870000000000 1
ion Zn   0.124100000000000   0.559040000000000  -0.000190000000000 1
ion Zn   0.239310000000000   0.453560000000000   0.744220000000000 1
ion Zn   0.126500000000000   0.554220000000000   0.496700000000000 1
ion Zn   0.232480000000000   0.798660000000000   0.253090000000000 1
ion Zn   0.129290000000000   0.905980000000000   0.004020000000000 1
ion Zn   0.213240000000000   0.774440000000000   0.740630000000000 1
ion Zn   0.093870000000000   0.886860000000000   0.498410000000000 1
ion Zn   0.555620000000000   0.099890000000000   0.240300000000000 1
ion Zn   0.454560000000000   0.210500000000000  -0.009070000000000 1
ion Zn   0.571140000000000   0.112590000000000   0.747470000000000 1
ion Zn   0.421270000000000   0.223970000000000   0.497700000000000 1
ion Zn   0.571690000000000   0.437700000000000   0.251950000000000 1
ion Zn   0.437530000000000   0.557600000000000  -0.010620000000000 1
ion Zn   0.560230000000000   0.460120000000000   0.768300000000000 1
ion Zn   0.437880000000000   0.547070000000000   0.513720000000000 1
ion Zn   0.546030000000000   0.780730000000000   0.257920000000000 1
ion Zn   0.464450000000000   0.890050000000000   0.008680000000000 1
ion Zn   0.563160000000000   0.788650000000000   0.753760000000000 1
ion Zn   0.434490000000000   0.883660000000000   0.503390000000000 1
ion Zn   0.878410000000000   0.124130000000000   0.244300000000000 1
ion Zn   0.756940000000000   0.228200000000000   0.000220000000000 1
ion Zn   0.889450000000000   0.114780000000000   0.749800000000000 1
ion Zn   0.769220000000000   0.229130000000000   0.498300000000000 1
ion Zn   0.903060000000000   0.450850000000000   0.252990000000000 1
ion Zn   0.754590000000000   0.580860000000000  -0.003590000000000 1
ion Zn   0.891480000000000   0.452850000000000   0.776170000000000 1
ion Zn   0.763870000000000   0.554180000000000   0.495810000000000 1
ion Zn   0.893520000000000   0.787770000000000   0.265720000000000 1
ion Zn   0.779260000000000   0.895030000000000   0.008570000000000 1
ion Zn   0.889240000000000   0.773320000000000   0.749860000000000 1
ion Zn   0.782330000000000   0.869260000000000   0.498790000000000 1
ion O   0.210360000000000   0.122320000000000   0.437310000000000 1
ion O   0.123880000000000   0.222190000000000   0.204160000000000 1
ion O   0.209950000000000   0.096930000000000   0.942270000000000 1
ion O   0.111970000000000   0.206730000000000   0.698190000000000 1
ion O   0.232580000000000   0.455070000000000   0.430720000000000 1
ion O   0.108670000000000   0.564700000000000   0.201220000000000 1
ion O   0.226520000000000   0.438460000000000   0.936070000000000 1
ion O   0.098330000000000   0.560880000000000   0.699550000000000 1
ion O   0.216810000000000   0.798860000000000   0.441670000000000 1
ion O   0.119530000000000   0.872610000000000   0.194220000000000 1
ion O   0.221000000000000   0.785980000000000   0.944070000000000 1
ion O   0.109240000000000   0.900060000000000   0.698570000000000 1
ion O   0.568520000000000   0.118490000000000   0.445430000000000 1
ion O   0.445210000000000   0.229780000000000   0.204970000000000 1
ion O   0.548060000000000   0.113030000000000   0.957550000000000 1
ion O   0.461080000000000   0.217230000000000   0.683010000000000 1
ion O   0.560930000000000   0.433040000000000   0.458290000000000 1
ion O   0.410340000000000   0.566500000000000   0.188190000000000 1
ion O   0.557690000000000   0.448720000000000   0.945530000000000 1
ion O   0.435980000000000   0.554130000000000   0.701980000000000 1
ion O   0.553810000000000   0.771030000000000   0.426250000000000 1
ion O   0.461380000000000   0.888100000000000   0.191120000000000 1
ion O   0.557650000000000   0.766180000000000   0.946510000000000 1
ion O   0.447110000000000   0.879510000000000   0.680680000000000 1
ion O   0.893840000000000   0.096810000000000   0.430930000000000 1
ion O   0.783270000000000   0.222340000000000   0.189890000000000 1
ion O   0.873850000000000   0.104200000000000   0.922790000000000 1
ion O   0.764370000000000   0.222270000000000   0.675400000000000 1
ion O   0.874120000000000   0.439290000000000   0.427040000000000 1
ion O   0.788100000000000   0.552560000000000   0.181160000000000 1
ion O   0.889670000000000   0.447020000000000   0.925570000000000 1
ion O   0.773510000000000   0.559320000000000   0.692190000000000 1
ion O   0.887940000000000   0.770080000000000   0.445820000000000 1
ion O   0.779510000000000   0.877050000000000   0.199610000000000 1
ion O   0.893120000000000   0.768230000000000   0.946610000000000 1
ion O   0.778870000000000   0.905130000000000   0.691720000000000 1
ion-species GBRV/$ID_pbesol.uspp
ion-width 0
ionic-minimize  \
	dirUpdateScheme      L-BFGS \
	linminMethod         DirUpdateRecommended \
	nIterations          30 \
	history              15 \
	knormThreshold       0.0001 \
	maxThreshold         no \
	energyDiffThreshold  1e-06 \
	nEnergyDiff          2 \
	alphaTstart          1 \
	alphaTmin            1e-10 \
	updateTestStepSize   yes \
	alphaTreduceFactor   0.1 \
	alphaTincreaseFactor 3 \
	nAlphaAdjustMax      3 \
	wolfeEnergy          0.0001 \
	wolfeGradient        0.9 \
	fdTest               no
kpoint   0.500000000000   0.500000000000   0.500000000000  1.00000000000000
kpoint-folding 3 3 3 
latt-move-scale 1 1 1
latt-scale 1 1 1 
lattice  \
	   9.171042196668017    9.171042196668017    0.000000000000000  \
	 -15.884716943984428   15.884716943984428   -0.000000000000000  \
	   0.000000000000000   -0.000000000000000   19.742696924199336 
lattice-minimize  \
	dirUpdateScheme      L-BFGS \
	linminMethod         DirUpdateRecommended \
	nIterations          0 \
	history              15 \
	knormThreshold       0 \
	maxThreshold         no \
	energyDiffThreshold  1e-06 \
	nEnergyDiff          2 \
	alphaTstart          1 \
	alphaTmin            1e-10 \
	updateTestStepSize   yes \
	alphaTreduceFactor   0.1 \
	alphaTincreaseFactor 3 \
	nAlphaAdjustMax      3 \
	wolfeEnergy          0.0001 \
	wolfeGradient        0.9 \
	fdTest               no
lcao-params -1 1e-06 0.01
pcm-variant GLSSA13
perturb-minimize  \
	nIterations            0 \
	algorithm              MINRES \
	residualTol            0.0001 \
	residualDiffThreshold  0.0001 \
	CGBypass               no \
	recomputeResidual      no
spintype no-spin
subspace-rotation-factor 1 yes
symmetries automatic
symmetry-threshold 0.0001



---------- Setting up symmetries ----------

Found 24 point-group symmetries of the bravais lattice
Found 1 space-group symmetries with basis
Applied RMS atom displacement 0 bohrs to make symmetries exact.

---------- Initializing the Grid ----------
R = 
[      9.17104      9.17104            0  ]
[     -15.8847      15.8847            0  ]
[            0            0      19.7427  ]
unit cell volume = 5752.21
G =
[   0.342556  -0.197775         -0  ]
[   0.342556   0.197775          0  ]
[          0          0   0.318254  ]
Minimum fftbox size, Smin = [  84  84  92  ]
Chosen fftbox size, S = [  84  84  96  ]

---------- Initializing tighter grid for wavefunction operations ----------
R = 
[      9.17104      9.17104            0  ]
[     -15.8847      15.8847            0  ]
[            0            0      19.7427  ]
unit cell volume = 5752.21
G =
[   0.342556  -0.197775         -0  ]
[   0.342556   0.197775          0  ]
[          0          0   0.318254  ]
Minimum fftbox size, Smin = [  76  76  80  ]
Chosen fftbox size, S = [  80  80  80  ]

---------- Exchange Correlation functional ----------
Initalized PBEsol GGA exchange.
Initalized PBEsol GGA correlation.

---------- Setting up pseudopotentials ----------
Width of ionic core gaussian charges (only for fluid interactions / plotting) set to 0

Reading pseudopotential file '/home/rc652/build/pseudopotentials/GBRV/zn_pbesol.uspp':
  Title: Zn.  Created by USPP 7.3.6 on 23-7-2013
  Reference state energy: -230.565303.  20 valence electrons in orbitals:
    |300>  occupation: 2  eigenvalue: -4.737806
    |310>  occupation: 6  eigenvalue: -3.059602
    |320>  occupation: 10  eigenvalue: -0.373701
    |400>  occupation: 2  eigenvalue: -0.220431
    |410>  occupation: 0  eigenvalue: -0.039521
  lMax: 2  lLocal: 3  QijEcut: 5
  6 projectors sampled on a log grid with 687 points:
    l: 0  eig: -4.737806  rCut: 1.35
    l: 0  eig: -0.220431  rCut: 1.35
    l: 1  eig: -3.059602  rCut: 1.4
    l: 1  eig: -0.039521  rCut: 1.4
    l: 2  eig: -0.373701  rCut: 1.6
    l: 2  eig: 1.000000  rCut: 1.6
  Transforming local potential to a uniform radial grid of dG=0.02 with 1634 points.
  Transforming nonlocal projectors to a uniform radial grid of dG=0.02 with 432 points.
  Transforming density augmentations to a uniform radial grid of dG=0.02 with 1634 points.
  Transforming atomic orbitals to a uniform radial grid of dG=0.02 with 432 points.
  Core radius for overlap checks: 1.80 bohrs.

Reading pseudopotential file '/home/rc652/build/pseudopotentials/GBRV/o_pbesol.uspp':
  Title: O.  Created by USPP 7.3.6 on 3-2-2014
  Reference state energy: -15.849885.  6 valence electrons in orbitals:
    |200>  occupation: 2  eigenvalue: -0.873214
    |210>  occupation: 4  eigenvalue: -0.330058
  lMax: 2  lLocal: 2  QijEcut: 6
  5 projectors sampled on a log grid with 511 points:
    l: 0  eig: -0.873214  rCut: 1.25
    l: 0  eig: 0.000000  rCut: 1.25
    l: 1  eig: -0.330058  rCut: 1.25
    l: 1  eig: 0.000000  rCut: 1.25
    l: 2  eig: 1.000000  rCut: 1.25
  Partial core density with radius 0.7
  Transforming core density to a uniform radial grid of dG=0.02 with 1634 points.
  Transforming local potential to a uniform radial grid of dG=0.02 with 1634 points.
  Transforming nonlocal projectors to a uniform radial grid of dG=0.02 with 432 points.
  Transforming density augmentations to a uniform radial grid of dG=0.02 with 1634 points.
  Transforming atomic orbitals to a uniform radial grid of dG=0.02 with 432 points.
  Core radius for overlap checks: 1.25 bohrs.

Initialized 2 species with 72 total atoms.

Folded 1 k-points by 3x3x3 to 27 k-points.

---------- Setting up k-points, bands, fillings ----------
Adding inversion symmetry to k-mesh for non-inversion-symmetric unit cell.
Reduced to 14 k-points under symmetry. 
Computing the number of bands and number of electrons
Calculating initial fillings.
nElectrons: 936.000000   nBands: 612   nStates: 14

----- Setting up reduced wavefunction bases (one per k-point) -----
average nbasis = 24571.704 , ideal nbasis = 24573.875

---------- Setting up ewald sum ----------
Optimum gaussian width for ewald sums = 3.504555 bohr.
Real space sum over 567 unit cells with max indices [  4  4  3  ]
Reciprocal space sum over 7581 terms with max indices [  9  9  10  ]

---------- Allocating electronic variables ----------
Initializing wave functions:  linear combination of atomic orbitals
Zn pseudo-atom occupations:   s ( 2 2 )  p ( 6 0 )  d ( 10 )
O pseudo-atom occupations:   s ( 2 )  p ( 4 )
	FillingsUpdate:  mu: +0.546094011  nElectrons: 936.000000
LCAOMinimize: Iter:   0  F: -8875.5739348599618097  |grad|_K:  2.017e-03  alpha:  1.000e+00
	FillingsUpdate:  mu: +0.419605063  nElectrons: 936.000000
LCAOMinimize: Iter:   1  F: -8879.4806247429878567  |grad|_K:  6.238e-04  alpha:  2.575e-01  linmin: -4.958e-01  cgtest:  8.907e-01  t[s]:    170.69
LCAOMinimize: Encountered beta<0, resetting CG.
	FillingsUpdate:  mu: +0.374908888  nElectrons: 936.000000
LCAOMinimize: Iter:   2  F: -8879.8294815997796832  |grad|_K:  5.264e-05  alpha:  3.461e-01  linmin:  2.114e-01  cgtest: -5.015e-01  t[s]:    229.80
	FillingsUpdate:  mu: +0.376184035  nElectrons: 936.000000
LCAOMinimize: Iter:   3  F: -8879.8309654412969394  |grad|_K:  3.533e-05  alpha:  2.944e-01  linmin: -2.764e-04  cgtest:  4.868e-01  t[s]:    288.21
	FillingsUpdate:  mu: +0.377489311  nElectrons: 936.000000
LCAOMinimize: Iter:   4  F: -8879.8321755287379347  |grad|_K:  8.051e-06  alpha:  3.683e-01  linmin: -7.827e-04  cgtest: -5.703e-02  t[s]:    348.01
	FillingsUpdate:  mu: +0.377307310  nElectrons: 936.000000
LCAOMinimize: Iter:   5  F: -8879.8322612956435478  |grad|_K:  4.907e-06  alpha:  5.030e-01  linmin:  1.076e-03  cgtest: -3.874e-03  t[s]:    407.69
	FillingsUpdate:  mu: +0.377177467  nElectrons: 936.000000
LCAOMinimize: Iter:   6  F: -8879.8322808447337593  |grad|_K:  1.069e-06  alpha:  3.091e-01  linmin: -2.810e-04  cgtest:  1.840e-02  t[s]:    466.32
	FillingsUpdate:  mu: +0.377221872  nElectrons: 936.000000
LCAOMinimize: Iter:   7  F: -8879.8322818683045625  |grad|_K:  5.803e-07  alpha:  3.407e-01  linmin: -3.498e-05  cgtest: -8.786e-04  t[s]:    525.53
	FillingsUpdate:  mu: +0.377227939  nElectrons: 936.000000
LCAOMinimize: Iter:   8  F: -8879.8322822740410629  |grad|_K:  2.204e-07  alpha:  4.580e-01  linmin:  1.557e-05  cgtest: -9.458e-05  t[s]:    585.01
	FillingsUpdate:  mu: +0.377221568  nElectrons: 936.000000
LCAOMinimize: Iter:   9  F: -8879.8322823184753361  |grad|_K:  7.604e-08  alpha:  3.480e-01  linmin:  1.936e-04  cgtest: -1.336e-03  t[s]:    643.68
LCAOMinimize: Converged (|Delta F|<1.000000e-06 for 2 iters).


---- Citations for features of the code used in this run ----

   Software package:
      R. Sundararaman, K. Letchworth-Weaver, K.A. Schwarz, D. Gunceler, Y. Ozhabes and T.A. Arias, 'JDFTx: software for joint density-functional theory', SoftwareX 6, 278 (2017)

   gga-PBEsol exchange-correlation functional:
      J.P. Perdew et al., Phys. Rev. Lett. 100, 136406 (2008)

   Pseudopotentials:
      KF Garrity, JW Bennett, KM Rabe and D Vanderbilt, Comput. Mater. Sci. 81, 446 (2014)

This list may not be complete. Please suggest additional citations or
report any other bugs at https://github.com/shankar1729/jdftx/issues

Initialization completed successfully at t[s]:    671.17


-------- Electronic minimization -----------
Will mix electronic density at each iteration.
	FillingsUpdate:  mu: +0.377221568  nElectrons: 936.000000
	FillingsUpdate:  mu: +0.368866331  nElectrons: 936.000000
SCF: Cycle:  0   F: -8880.720995860856419   dF: -8.887e-01   |Residual|: 5.050e-01   |deigs|: 2.418e-02  t[s]:    922.75
	FillingsUpdate:  mu: +0.356485301  nElectrons: 936.000000
SCF: Cycle:  1   F: -8880.833469982244424   dF: -1.125e-01   |Residual|: 1.258e-01   |deigs|: 8.213e-03  t[s]:   1133.57
	FillingsUpdate:  mu: +0.360618026  nElectrons: 936.000000
SCF: Cycle:  2   F: -8880.847296808369720   dF: -1.383e-02   |Residual|: 7.599e-02   |deigs|: 2.558e-03  t[s]:   1330.65
	FillingsUpdate:  mu: +0.360978629  nElectrons: 936.000000
SCF: Cycle:  3   F: -8880.848509802694025   dF: -1.213e-03   |Residual|: 2.446e-02   |deigs|: 1.455e-03  t[s]:   1527.29
	FillingsUpdate:  mu: +0.361344002  nElectrons: 936.000000
SCF: Cycle:  4   F: -8880.848811005076641   dF: -3.012e-04   |Residual|: 8.004e-03   |deigs|: 2.978e-04  t[s]:   1653.50
	FillingsUpdate:  mu: +0.361507069  nElectrons: 936.000000
SCF: Cycle:  5   F: -8880.848829670265332   dF: -1.867e-05   |Residual|: 3.567e-03   |deigs|: 1.873e-04  t[s]:   1781.11
	FillingsUpdate:  mu: +0.361565761  nElectrons: 936.000000
SCF: Cycle:  6   F: -8880.848840031654618   dF: -1.036e-05   |Residual|: 1.343e-03   |deigs|: 9.227e-05  t[s]:   1908.86
	FillingsUpdate:  mu: +0.361599282  nElectrons: 936.000000
SCF: Cycle:  7   F: -8880.848841281531350   dF: -1.250e-06   |Residual|: 5.844e-04   |deigs|: 4.494e-05  t[s]:   2035.59
	FillingsUpdate:  mu: +0.361602914  nElectrons: 936.000000
SCF: Cycle:  8   F: -8880.848841572025776   dF: -2.905e-07   |Residual|: 2.127e-04   |deigs|: 1.144e-05  t[s]:   2163.61
	FillingsUpdate:  mu: +0.361605505  nElectrons: 936.000000
SCF: Cycle:  9   F: -8880.848841627335787   dF: -5.531e-08   |Residual|: 1.065e-04   |deigs|: 3.846e-06  t[s]:   2292.64
	FillingsUpdate:  mu: +0.361605436  nElectrons: 936.000000
SCF: Cycle: 10   F: -8880.848841647242807   dF: -1.991e-08   |Residual|: 5.467e-05   |deigs|: 2.393e-06  t[s]:   2419.42
	FillingsUpdate:  mu: +0.361605216  nElectrons: 936.000000
SCF: Cycle: 11   F: -8880.848841653576528   dF: -6.334e-09   |Residual|: 1.860e-05   |deigs|: 1.250e-06  t[s]:   2550.79
	FillingsUpdate:  mu: +0.361605141  nElectrons: 936.000000
SCF: Cycle: 12   F: -8880.848841655002616   dF: -1.426e-09   |Residual|: 1.279e-05   |deigs|: 5.512e-07  t[s]:   2683.59
SCF: Converged (|Delta E|<1.000000e-08 for 2 iters).

Setting wave functions to eigenvectors of Hamiltonian

# Ionic positions in lattice coordinates:
ion Zn   0.217210000000000   0.111550000000000   0.250030000000000 1
ion Zn   0.119130000000000   0.216040000000000   0.006920000000000 1
ion Zn   0.213120000000000   0.093200000000000   0.740220000000000 1
ion Zn   0.087200000000000   0.230200000000000   0.512500000000000 1
ion Zn   0.228650000000000   0.445400000000000   0.249870000000000 1
ion Zn   0.124100000000000   0.559040000000000  -0.000190000000000 1
ion Zn   0.239310000000000   0.453560000000000   0.744220000000000 1
ion Zn   0.126500000000000   0.554220000000000   0.496700000000000 1
ion Zn   0.232480000000000   0.798660000000000   0.253090000000000 1
ion Zn   0.129290000000000   0.905980000000000   0.004020000000000 1
ion Zn   0.213240000000000   0.774440000000000   0.740630000000000 1
ion Zn   0.093870000000000   0.886860000000000   0.498410000000000 1
ion Zn   0.555620000000000   0.099890000000000   0.240300000000000 1
ion Zn   0.454560000000000   0.210500000000000  -0.009070000000000 1
ion Zn   0.571140000000000   0.112590000000000   0.747470000000000 1
ion Zn   0.421270000000000   0.223970000000000   0.497700000000000 1
ion Zn   0.571690000000000   0.437700000000000   0.251950000000000 1
ion Zn   0.437530000000000   0.557600000000000  -0.010620000000000 1
ion Zn   0.560230000000000   0.460120000000000   0.768300000000000 1
ion Zn   0.437880000000000   0.547070000000000   0.513720000000000 1
ion Zn   0.546030000000000   0.780730000000000   0.257920000000000 1
ion Zn   0.464450000000000   0.890050000000000   0.008680000000000 1
ion Zn   0.563160000000000   0.788650000000000   0.753760000000000 1
ion Zn   0.434490000000000   0.883660000000000   0.503390000000000 1
ion Zn   0.878410000000000   0.124130000000000   0.244300000000000 1
ion Zn   0.756940000000000   0.228200000000000   0.000220000000000 1
ion Zn   0.889450000000000   0.114780000000000   0.749800000000000 1
ion Zn   0.769220000000000   0.229130000000000   0.498300000000000 1
ion Zn   0.903060000000000   0.450850000000000   0.252990000000000 1
ion Zn   0.754590000000000   0.580860000000000  -0.003590000000000 1
ion Zn   0.891480000000000   0.452850000000000   0.776170000000000 1
ion Zn   0.763870000000000   0.554180000000000   0.495810000000000 1
ion Zn   0.893520000000000   0.787770000000000   0.265720000000000 1
ion Zn   0.779260000000000   0.895030000000000   0.008570000000000 1
ion Zn   0.889240000000000   0.773320000000000   0.749860000000000 1
ion Zn   0.782330000000000   0.869260000000000   0.498790000000000 1
ion O   0.210360000000000   0.122320000000000   0.437310000000000 1
ion O   0.123880000000000   0.222190000000000   0.204160000000000 1
ion O   0.209950000000000   0.096930000000000   0.942270000000000 1
ion O   0.111970000000000   0.206730000000000   0.698190000000000 1
ion O   0.232580000000000   0.455070000000000   0.430720000000000 1
ion O   0.108670000000000   0.564700000000000   0.201220000000000 1
ion O   0.226520000000000   0.438460000000000   0.936070000000000 1
ion O   0.098330000000000   0.560880000000000   0.699550000000000 1
ion O   0.216810000000000   0.798860000000000   0.441670000000000 1
ion O   0.119530000000000   0.872610000000000   0.194220000000000 1
ion O   0.221000000000000   0.785980000000000   0.944070000000000 1
ion O   0.109240000000000   0.900060000000000   0.698570000000000 1
ion O   0.568520000000000   0.118490000000000   0.445430000000000 1
ion O   0.445210000000000   0.229780000000000   0.204970000000000 1
ion O   0.548060000000000   0.113030000000000   0.957550000000000 1
ion O   0.461080000000000   0.217230000000000   0.683010000000000 1
ion O   0.560930000000000   0.433040000000000   0.458290000000000 1
ion O   0.410340000000000   0.566500000000000   0.188190000000000 1
ion O   0.557690000000000   0.448720000000000   0.945530000000000 1
ion O   0.435980000000000   0.554130000000000   0.701980000000000 1
ion O   0.553810000000000   0.771030000000000   0.426250000000000 1
ion O   0.461380000000000   0.888100000000000   0.191120000000000 1
ion O   0.557650000000000   0.766180000000000   0.946510000000000 1
ion O   0.447110000000000   0.879510000000000   0.680680000000000 1
ion O   0.893840000000000   0.096810000000000   0.430930000000000 1
ion O   0.783270000000000   0.222340000000000   0.189890000000000 1
ion O   0.873850000000000   0.104200000000000   0.922790000000000 1
ion O   0.764370000000000   0.222270000000000   0.675400000000000 1
ion O   0.874120000000000   0.439290000000000   0.427040000000000 1
ion O   0.788100000000000   0.552560000000000   0.181160000000000 1
ion O   0.889670000000000   0.447020000000000   0.925570000000000 1
ion O   0.773510000000000   0.559320000000000   0.692190000000000 1
ion O   0.887940000000000   0.770080000000000   0.445820000000000 1
ion O   0.779510000000000   0.877050000000000   0.199610000000000 1
ion O   0.893120000000000   0.768230000000000   0.946610000000000 1
ion O   0.778870000000000   0.905130000000000   0.691720000000000 1

# Forces in Lattice coordinates:
force Zn   0.607285475011945  -0.719392437004768   0.255082086477907 1
force Zn  -0.386808193259029   0.321374248924446   0.015596461067179 1
force Zn   0.583139281415296   1.189074663242382   0.618869547040768 1
force Zn   0.414745094229540  -0.253108765903686  -0.163873527175098 1
force Zn  -1.145319068010078  -0.103243221560946   0.243569621107797 1
force Zn  -0.279088677982276   0.194935895034249   0.190889222332078 1
force Zn  -1.479690202806776  -0.054542900211180   0.506625497533594 1
force Zn  -0.761476655854899   0.627859969807968   0.165754585319991 1
force Zn   1.250008016673135  -1.334535848918840   0.443562748932862 1
force Zn  -0.170524138562186  -0.979336739326275   0.505043382412645 1
force Zn   0.175094550863829   0.293724616568380   0.387145118860468 1
force Zn   0.419517413741062   0.387972372764320   0.327538663029120 1
force Zn  -0.221356033612331   0.628555111185218   0.655385916571584 1
force Zn  -2.263492944581457   2.179067638309061   0.694073766860338 1
force Zn  -0.572810309641381  -0.056723583751388   0.054180383399425 1
force Zn   0.431236240170970  -0.672173612566365   0.203418026011194 1
force Zn  -0.033543090883690   0.421097759105406   0.167836202308794 1
force Zn   0.042063717477832  -0.355113383113164   0.765936707260980 1
force Zn   0.229042426756212  -0.467378918977527  -0.786178443711474 1
force Zn   0.295659653827713   0.045405938413448  -0.355314456964393 1
force Zn   0.889591399696847  -0.966268588742102  -0.504728232538731 1
force Zn  -0.412747205501283  -0.036044468311561  -0.334648599679386 1
force Zn   0.087576534070520  -0.104005987678327   0.059174427321878 1
force Zn   0.241112103627021   0.166962188789427  -0.517995510780601 1
force Zn   1.313429194391609  -1.332777633191423   0.595641726980257 1
force Zn   0.996288614098781  -0.065800133124736   0.049972898235398 1
force Zn  -0.147477768483589   0.414224621049417  -0.502935580202367 1
force Zn   0.622009074674892  -0.166899289361158  -0.142105109219465 1
force Zn  -0.397761876560820   0.080277690696150  -0.363454875713546 1
force Zn   0.713996898777153  -0.895950236887924   0.830829727475887 1
force Zn  -0.269049115160808   0.051220196963175  -4.106971229931077 1
force Zn   0.904647393767714  -0.437707064958044   0.497059151110877 1
force Zn   0.417512391236238  -0.489340588933656  -0.644707178428654 1
force Zn   0.288430772971598  -0.131681466864945  -0.000671350544295 1
force Zn  -0.225633403300959   0.282095630209550   0.259747275433366 1
force Zn  -0.993777882427425   1.055372201992148   0.255026229031802 1
force O  -0.061222530521972  -0.245326393943283   0.284558005565573 1
force O  -1.010040350576720   0.653244442112456  -0.762014589714946 1
force O   0.256615405307365   0.956499469070518  -0.475724403975989 1
force O  -0.384086556748093   0.852253252137956  -0.274019072396469 1
force O  -0.025708143998020  -0.268536364974218   0.668405365334546 1
force O   0.653320299522524  -0.182338467646659  -0.504763839102907 1
force O  -0.432816084694104   0.003459599590985  -0.044856929634898 1
force O   0.558939531889115  -0.620802098451786  -0.667485777528768 1
force O   0.457693847397284  -0.649967553768554   0.101005817771029 1
force O  -1.607480621997030   1.638499606368141  -0.497580178593817 1
force O   0.629980637709229  -0.499608624964327  -0.225735747109355 1
force O   0.098994153754879  -1.588304195254848  -0.764356937422897 1
force O  -0.931926923008392  -0.203814126130244  -0.677346908930081 1
force O   0.178673813670119  -0.582343822523741  -0.490736103944536 1
force O   1.444108009237646  -1.940932841881873  -0.955159327286951 1
force O  -0.607799123969386   0.413189998815098   0.469118502148178 1
force O  -1.011873495244194   0.690884446787889  -0.694982847939420 1
force O   1.722579885879868  -0.153662283153606  -0.954355320963287 1
force O  -0.607383021416374  -0.437537793072491   0.145437085203582 1
force O   1.179610363266107   0.061797653371574  -0.524182617842708 1
force O   0.099660701209974  -0.161179700171183   1.552770753788088 1
force O  -0.975429545008223   0.780381997933915  -0.379773829117693 1
force O   0.009021021951213   0.591431553311302  -0.380899823658589 1
force O  -0.323891868400452   0.243946910374594   0.645257688076931 1
force O  -0.403084905330591   0.190249192172604   0.077519431733145 1
force O  -1.000475508067483   0.958978782025835  -0.633624109498133 1
force O  -0.011449331463231   0.131405604172388   1.220323816324195 1
force O   0.923427556506083  -0.091542380807498   0.571585770013391 1
force O   0.327913548848006   0.117263002106354   0.749828765751247 1
force O  -0.430489381925826   0.344147939318491   0.260340416619070 1
force O   0.052344170234683  -0.276290184658814   4.331878610245202 1
force O   0.005023014595865  -0.057136866646468  -0.087730367378395 1
force O   0.086465778496245  -0.356112683427327  -0.154275788874434 1
force O  -0.378297662996034   0.536249548664102  -0.379231601685846 1
force O   0.082712573623583   1.194463165445494  -0.533351678223986 1
force O   0.274002661902014  -0.759597024209485  -0.341166000872517 1

# Energy components:
   Eewald =    -4540.6622032355653573
       EH =     3839.9829088989135926
     Eloc =    -8638.8591977154592314
      Enl =      346.6893665832964189
      Exc =     -882.9154063432849853
 Exc_core =        2.2641808385266113
       KE =      992.6719753827212571
-------------------------------------
     Etot =    -8880.8283755908505555
       TS =        0.0204660641515638
-------------------------------------
        F =    -8880.8488416550026159

IonicMinimize: Iter:   0  F: -8880.848841655002616  |grad|_K:  3.975e-02  t[s]:   2716.96

#--- Lowdin population analysis ---
# oxidation-state Zn +0.589 +0.609 +0.601 +0.579 +0.590 +0.617 +0.601 +0.601 +0.609 +0.598 +0.599 +0.614 +0.597 +0.630 +0.604 +0.594 +0.614 +0.591 +0.604 +0.602 +0.593 +0.611 +0.598 +0.588 +0.600 +0.601 +0.586 +0.592 +0.583 +0.609 +0.602 +0.607 +0.618 +0.580 +0.592 +0.605
# oxidation-state O -0.579 -0.577 -0.584 -0.577 -0.566 -0.581 -0.581 -0.576 -0.578 -0.581 -0.581 -0.586 -0.583 -0.580 -0.584 -0.576 -0.579 -0.590 -0.584 -0.581 -0.579 -0.584 -0.579 -0.580 -0.577 -0.582 -0.578 -0.581 -0.582 -0.575 -0.585 -0.580 -0.585 -0.579 -0.582 -0.578


-------- Electronic minimization -----------
Will mix electronic density at each iteration.
	FillingsUpdate:  mu: +0.361605141  nElectrons: 936.000000
	FillingsUpdate:  mu: +0.360626918  nElectrons: 936.000000
SCF: Cycle:  0   F: -8880.638090015752823   dF: -9.442e-01   |Residual|: 5.269e-01   |deigs|: 1.807e-03  t[s]:   3007.59
	FillingsUpdate:  mu: +0.359531294  nElectrons: 936.000000
SCF: Cycle:  1   F: -8880.907705695060940   dF: -2.696e-01   |Residual|: 2.609e-01   |deigs|: 3.904e-03  t[s]:   3221.04
	FillingsUpdate:  mu: +0.360689586  nElectrons: 936.000000
SCF: Cycle:  2   F: -8880.961633160452038   dF: -5.393e-02   |Residual|: 1.030e-01   |deigs|: 1.460e-03  t[s]:   3434.23
	FillingsUpdate:  mu: +0.360542056  nElectrons: 936.000000
SCF: Cycle:  3   F: -8880.980004011007622   dF: -1.837e-02   |Residual|: 2.847e-02   |deigs|: 1.055e-03  t[s]:   3642.16
	FillingsUpdate:  mu: +0.360450640  nElectrons: 936.000000
SCF: Cycle:  4   F: -8880.980631165190061   dF: -6.272e-04   |Residual|: 1.423e-02   |deigs|: 3.294e-04  t[s]:   3767.18
	FillingsUpdate:  mu: +0.360526788  nElectrons: 936.000000
SCF: Cycle:  5   F: -8880.980979278307132   dF: -3.481e-04   |Residual|: 5.607e-03   |deigs|: 3.103e-04  t[s]:   3893.72
	FillingsUpdate:  mu: +0.360622680  nElectrons: 936.000000
SCF: Cycle:  6   F: -8880.981085445548160   dF: -1.062e-04   |Residual|: 3.356e-03   |deigs|: 1.563e-04  t[s]:   4027.95
	FillingsUpdate:  mu: +0.360607650  nElectrons: 936.000000
SCF: Cycle:  7   F: -8880.981113133611871   dF: -2.769e-05   |Residual|: 1.328e-03   |deigs|: 1.028e-04  t[s]:   4158.93
	FillingsUpdate:  mu: +0.360607038  nElectrons: 936.000000
SCF: Cycle:  8   F: -8880.981119632246191   dF: -6.499e-06   |Residual|: 6.474e-04   |deigs|: 4.832e-05  t[s]:   4293.76
	FillingsUpdate:  mu: +0.360610496  nElectrons: 936.000000
SCF: Cycle:  9   F: -8880.981120953547361   dF: -1.321e-06   |Residual|: 3.630e-04   |deigs|: 2.289e-05  t[s]:   4423.18
	FillingsUpdate:  mu: +0.360611938  nElectrons: 936.000000
SCF: Cycle: 10   F: -8880.981121485039694   dF: -5.315e-07   |Residual|: 1.592e-04   |deigs|: 1.580e-05  t[s]:   4555.15
	FillingsUpdate:  mu: +0.360613020  nElectrons: 936.000000
SCF: Cycle: 11   F: -8880.981121551587421   dF: -6.655e-08   |Residual|: 8.668e-05   |deigs|: 4.838e-06  t[s]:   4689.62
	FillingsUpdate:  mu: +0.360613754  nElectrons: 936.000000
SCF: Cycle: 12   F: -8880.981121575687212   dF: -2.410e-08   |Residual|: 4.960e-05   |deigs|: 2.856e-06  t[s]:   4819.91
	FillingsUpdate:  mu: +0.360614094  nElectrons: 936.000000
SCF: Cycle: 13   F: -8880.981121585416986   dF: -9.730e-09   |Residual|: 2.083e-05   |deigs|: 2.179e-06  t[s]:   4949.85
	FillingsUpdate:  mu: +0.360614142  nElectrons: 936.000000
SCF: Cycle: 14   F: -8880.981121587175949   dF: -1.759e-09   |Residual|: 1.046e-05   |deigs|: 8.430e-07  t[s]:   5086.71
SCF: Converged (|Delta E|<1.000000e-08 for 2 iters).

Setting wave functions to eigenvectors of Hamiltonian

# Ionic positions in lattice coordinates:
ion Zn   0.217656022278869   0.110801048959757   0.250327485866875 1
ion Zn   0.118722665245152   0.216270523509457   0.006938203574956 1
ion Zn   0.215241513575703   0.095867276261485   0.740941725925472 1
ion Zn   0.087719163325680   0.230117603469912   0.512308910054474 1
ion Zn   0.226493798255167   0.444182399700973   0.250154060310712 1
ion Zn   0.123772829573167   0.559139778063134   0.000032625715278 1
ion Zn   0.236595316172129   0.452128956264977   0.744810829654154 1
ion Zn   0.125693781945073   0.554665166782876   0.496893314314983 1
ion Zn   0.233529773847164   0.797381820349505   0.253607287415726 1
ion Zn   0.128100713845348   0.904062190175452   0.004608984630110 1
ion Zn   0.213819991063436   0.775126829981152   0.741081494552358 1
ion Zn   0.094975193119379   0.887936766893223   0.498791982958210 1
ion Zn   0.555787399347502   0.100822914943128   0.241064310424469 1
ion Zn   0.452445199136269   0.212386672101006  -0.008260572748667 1
ion Zn   0.570057035634630   0.111971870184981   0.747533199203573 1
ion Zn   0.421441412129361   0.223147539956954   0.497937236500374 1
ion Zn   0.572008871441667   0.438428360699262   0.252145741845916 1
ion Zn   0.437285925373649   0.556998168446550  -0.009726767941323 1
ion Zn   0.560221635553635   0.459484344502230   0.767383193247611 1
ion Zn   0.438453516162168   0.547418095500866   0.513305656314101 1
ion Zn   0.546762211988629   0.779790595827150   0.257331413615337 1
ion Zn   0.463674004675042   0.889613293815761   0.008289756332534 1
ion Zn   0.563224090415627   0.788541515845982   0.753829023135721 1
ion Zn   0.435074740188459   0.884177939064360   0.502785941639227 1
ion Zn   0.879575606523901   0.122912112200539   0.244994638208572 1
ion Zn   0.758675487288194   0.228978833702847   0.000278292537055 1
ion Zn   0.889557434965701   0.115393356280975   0.749213504162743 1
ion Zn   0.770190185916931   0.229389590314503   0.498134295852255 1
ion Zn   0.902415773109608   0.450636337969728   0.252566163156415 1
ion Zn   0.755069227152532   0.579889108668966  -0.002621091284805 1
ion Zn   0.891041467981500   0.452699926624879   0.771380565741333 1
ion Zn   0.765105418788925   0.554206325351021   0.496389673614414 1
ion Zn   0.893831370371457   0.787264540148507   0.264968173584702 1
ion Zn   0.779660988151842   0.895052573174428   0.008569232450056 1
ion Zn   0.889087631953780   0.773624938595630   0.750162926296385 1
ion Zn   0.781490374380014   0.870266063855910   0.499087420727285 1
ion O   0.210028749111116   0.121822910689805   0.437641859964381 1
ion O   0.122648875257067   0.222457009633091   0.203271372544444 1
ion O   0.211273818124110   0.098884201904955   0.941715237172394 1
ion O   0.112045739916441   0.207919318050520   0.697870461007642 1
ion O   0.232291820290704   0.454563087892162   0.431499493387889 1
ion O   0.109682684667419   0.564959980221884   0.200631372091831 1
ion O   0.225743433919299   0.438076381375552   0.936017704306031 1
ion O   0.098777732295958   0.560265106858729   0.698771609738324 1
ion O   0.217049075122213   0.798101373511475   0.441787805882404 1
ion O   0.118110062682484   0.874113756397482   0.193639749501406 1
ion O   0.221684869150346   0.785647416760620   0.943806767843280 1
ion O   0.107987725639465   0.897287935668840   0.697678640955710 1
ion O   0.566657624032929   0.117283433889577   0.444640109927535 1
ion O   0.445007348995907   0.228891875022474   0.204397730894238 1
ion O   0.548913239864520   0.110834265804208   0.956436131865014 1
ion O   0.460357264843750   0.217426873137007   0.683557089911460 1
ion O   0.559729475967083   0.433373164446200   0.457479543325852 1
ion O   0.413304713627345   0.567774738906638   0.187077069477568 1
ion O   0.556201749309616   0.447384718551430   0.945699620542178 1
ion O   0.438160658707398   0.555303813648948   0.701368726385962 1
ion O   0.553844361893181   0.770829405632857   0.428060818721748 1
ion O   0.460325739292254   0.888627214006511   0.190677132391205 1
ion O   0.558198970422316   0.767253543895364   0.946065819283850 1
ion O   0.446746264676085   0.879657713136250   0.681432499131569 1
ion O   0.893285237246087   0.096789649751572   0.431020416632171 1
ion O   0.782331485847284   0.223166384872669   0.189151098389217 1
ion O   0.873947741182492   0.104426399831778   0.924213127216351 1
ion O   0.765951046468480   0.222936833556174   0.676066584738622 1
ion O   0.874816342292686   0.439796592844987   0.427914447370388 1
ion O   0.787634489150750   0.552792204397852   0.181463618003161 1
ion O   0.889515442330561   0.446569422961456   0.930621746482278 1
ion O   0.773467591577631   0.559221590070427   0.692087706349223 1
ion O   0.887775012638165   0.769516361971695   0.445640102702656 1
ion O   0.779311538266140   0.877675272611042   0.199167764723603 1
ion O   0.894344881754830   0.770456240369020   0.945988033651509 1
ion O   0.778679422558595   0.904008429530682   0.691322155898314 1

# Forces in Lattice coordinates:
force Zn   0.476706825049998  -0.574669916314464   0.209478261953315 1
force Zn  -0.397182187665216   0.310360939251943   0.002324504879610 1
force Zn   0.536817412892916   0.773437668994537   0.484297409879257 1
force Zn   0.399329419629432  -0.244050373286781  -0.177885539687964 1
force Zn  -0.819760706502150   0.002661922551836   0.085606895941548 1
force Zn  -0.284548374252903   0.181238163291627   0.168023432412306 1
force Zn  -1.116597711542759  -0.040710012239437   0.387696708925862 1
force Zn  -0.708066285407614   0.584517116348037   0.140657987171647 1
force Zn   0.868851560165851  -0.999095626273803   0.269339876087832 1
force Zn  -0.176397917145135  -0.747925427247882   0.359020091544665 1
force Zn   0.184035518377037   0.236725707206533   0.380764722722223 1
force Zn   0.366215356785361   0.353592939966186   0.297140044543063 1
force Zn  -0.196399618290332   0.571193480368098   0.603151619841134 1
force Zn  -1.537976333242659   1.443235176697000   0.528882354504839 1
force Zn  -0.497058143282853  -0.057691714519366   0.063115574718193 1
force Zn   0.431501769543235  -0.631101394163428   0.182240806243753 1
force Zn  -0.075722487307083   0.378691130010946   0.161478100068777 1
force Zn   0.034967648096550  -0.275806789782111   0.701647151360834 1
force Zn   0.204444122776135  -0.448768482790641  -0.704796767940074 1
force Zn   0.277570988056734   0.047499511257019  -0.327532383391958 1
force Zn   0.765628719016043  -0.802580932912558  -0.400429808252719 1
force Zn  -0.396509169242876  -0.037377561954686  -0.325145602786746 1
force Zn   0.075056373860315  -0.102341598248515   0.062649861575654 1
force Zn   0.246145957893429   0.141793186198459  -0.441049484633756 1
force Zn   1.006646927116961  -1.034193878536042   0.434223425293526 1
force Zn   0.885618548714712  -0.077819609111280   0.026666202164520 1
force Zn  -0.150919793214943   0.350161480894002  -0.370052990591622 1
force Zn   0.495209600494498  -0.190096027880390  -0.164957266535828 1
force Zn  -0.345864213759050   0.069324569604587  -0.340257609927540 1
force Zn   0.725325315580448  -0.785457195327240   0.684615690008052 1
force Zn  -0.273997340185026  -0.020692913747062  -2.129560087149422 1
force Zn   0.761511690530970  -0.433659706206686   0.450286430328835 1
force Zn   0.361724040303224  -0.444130605644943  -0.598533364342661 1
force Zn   0.266232490908219  -0.121821041300903  -0.018377542389729 1
force Zn  -0.236313335519418   0.281646346718254   0.253644300891828 1
force Zn  -0.863018720043060   0.917079540086021   0.210353296781378 1
force O  -0.055178380686797  -0.231594901015409   0.266432453717042 1
force O  -0.847055326833090   0.492484787444872  -0.689134830211006 1
force O   0.279328404400456   0.703198226171119  -0.375410839745345 1
force O  -0.349926121626864   0.785040443795731  -0.261003362185517 1
force O  -0.051548899417359  -0.237159041109297   0.627212505945294 1
force O   0.578573798003456  -0.174194970937316  -0.446682157432108 1
force O  -0.399612082435268   0.017301835122249  -0.036794899042579 1
force O   0.560983892500324  -0.568944693483630  -0.620529470852783 1
force O   0.415396825086213  -0.616276269626719   0.094639303485993 1
force O  -1.187287050431416   1.266950807147351  -0.296092317647227 1
force O   0.587842373559501  -0.462613773667924  -0.220880307938459 1
force O   0.113239427763748  -1.104239553300332  -0.618969547352678 1
force O  -0.781703182638512  -0.166483008695507  -0.578897432206946 1
force O   0.160893673367846  -0.493320980986090  -0.469444830162987 1
force O   0.810544327510842  -1.221693998922609  -0.790546351395822 1
force O  -0.583061610117550   0.398548492688034   0.442525139502439 1
force O  -0.866451226591259   0.651691758915175  -0.652986129615293 1
force O   1.373550207437128  -0.276326136819646  -0.721859569444888 1
force O  -0.511936441415980  -0.375799427546067   0.111468006364821 1
force O   0.825501352270612   0.051384818202933  -0.401339357740753 1
force O   0.064249566188752  -0.118028873494571   1.311743411736519 1
force O  -0.827583272023318   0.638070720910854  -0.259620102735439 1
force O   0.012679317555033   0.488658418845602  -0.349388269382378 1
force O  -0.315777741273326   0.247314287468901   0.564808849243622 1
force O  -0.393277930581072   0.208387811998954   0.110609128929053 1
force O  -0.710942900754605   0.677907858517627  -0.447953303349408 1
force O   0.025357495429870   0.121318839987141   1.046489496360203 1
force O   0.814388755703494  -0.074546117762778   0.552315088925176 1
force O   0.337625735336609   0.107110813873157   0.672173487646207 1
force O  -0.405129807343418   0.340432202249394   0.267996497249176 1
force O   0.032737942008868  -0.140470277955632   2.297858324130462 1
force O   0.019165051256604  -0.068966645364547  -0.072019480021054 1
force O   0.041508465638944  -0.246631539507772  -0.133663665618268 1
force O  -0.331210834176642   0.488302355005003  -0.330092384410261 1
force O  -0.002797588762783   1.001691776661695  -0.443209390880970 1
force O   0.274046539893307  -0.680873032974565  -0.299448102592456 1

# Energy components:
   Eewald =    -4547.5710468391816903
       EH =     3833.9774116653570672
     Eloc =    -8625.7812971310850116
      Enl =      346.6063022058048091
      Exc =     -882.8276904743972864
 Exc_core =        2.2641797353737854
       KE =      992.3704235702205096
-------------------------------------
     Etot =    -8880.9617172679081705
       TS =        0.0194043192675182
-------------------------------------
        F =    -8880.9811215871759487

IonicMinimize: Iter:   1  F: -8880.981121587175949  |grad|_K:  2.925e-02  alpha:  4.545e-01  linmin: -9.793e-01  t[s]:   5119.48

#--- Lowdin population analysis ---
# oxidation-state Zn +0.590 +0.608 +0.600 +0.580 +0.590 +0.614 +0.600 +0.602 +0.608 +0.598 +0.600 +0.612 +0.597 +0.625 +0.604 +0.594 +0.614 +0.590 +0.605 +0.601 +0.592 +0.610 +0.598 +0.588 +0.598 +0.596 +0.586 +0.591 +0.585 +0.608 +0.597 +0.607 +0.616 +0.580 +0.594 +0.604
# oxidation-state O -0.579 -0.577 -0.582 -0.576 -0.567 -0.581 -0.581 -0.575 -0.578 -0.580 -0.581 -0.586 -0.583 -0.579 -0.583 -0.576 -0.579 -0.589 -0.583 -0.581 -0.579 -0.583 -0.579 -0.580 -0.577 -0.582 -0.578 -0.580 -0.581 -0.575 -0.586 -0.580 -0.585 -0.578 -0.581 -0.578


-------- Electronic minimization -----------
Will mix electronic density at each iteration.
	FillingsUpdate:  mu: +0.360614142  nElectrons: 936.000000
	FillingsUpdate:  mu: +0.357781559  nElectrons: 936.000000
SCF: Cycle:  0   F: -8879.974298835952141   dF: -3.083e+00   |Residual|: 9.678e-01   |deigs|: 5.742e-03  t[s]:   5414.74
	FillingsUpdate:  mu: +0.357624358  nElectrons: 936.000000
SCF: Cycle:  1   F: -8880.899233117099357   dF: -9.249e-01   |Residual|: 4.780e-01   |deigs|: 1.227e-02  t[s]:   5628.13
	FillingsUpdate:  mu: +0.359194244  nElectrons: 936.000000
SCF: Cycle:  2   F: -8881.081579160463662   dF: -1.823e-01   |Residual|: 1.948e-01   |deigs|: 3.677e-03  t[s]:   5844.36
	FillingsUpdate:  mu: +0.359305370  nElectrons: 936.000000
SCF: Cycle:  3   F: -8881.146727075991294   dF: -6.515e-02   |Residual|: 5.341e-02   |deigs|: 2.453e-03  t[s]:   6056.75
	FillingsUpdate:  mu: +0.358944338  nElectrons: 936.000000
SCF: Cycle:  4   F: -8881.148466734786780   dF: -1.740e-03   |Residual|: 2.509e-02   |deigs|: 5.832e-04  t[s]:   6223.31
	FillingsUpdate:  mu: +0.359112094  nElectrons: 936.000000
SCF: Cycle:  5   F: -8881.149427204483800   dF: -9.605e-04   |Residual|: 1.025e-02   |deigs|: 5.165e-04  t[s]:   6354.33
	FillingsUpdate:  mu: +0.359206230  nElectrons: 936.000000
SCF: Cycle:  6   F: -8881.149709653722311   dF: -2.824e-04   |Residual|: 5.456e-03   |deigs|: 2.393e-04  t[s]:   6484.76
	FillingsUpdate:  mu: +0.359137561  nElectrons: 936.000000
SCF: Cycle:  7   F: -8881.149755143465882   dF: -4.549e-05   |Residual|: 2.330e-03   |deigs|: 1.349e-04  t[s]:   6616.78
	FillingsUpdate:  mu: +0.359154014  nElectrons: 936.000000
SCF: Cycle:  8   F: -8881.149773841161732   dF: -1.870e-05   |Residual|: 8.746e-04   |deigs|: 7.808e-05  t[s]:   6751.55
	FillingsUpdate:  mu: +0.359150586  nElectrons: 936.000000
SCF: Cycle:  9   F: -8881.149775898777079   dF: -2.058e-06   |Residual|: 5.852e-04   |deigs|: 3.251e-05  t[s]:   6881.71
	FillingsUpdate:  mu: +0.359150955  nElectrons: 936.000000
SCF: Cycle: 10   F: -8881.149776648475381   dF: -7.497e-07   |Residual|: 1.700e-04   |deigs|: 1.572e-05  t[s]:   7022.24
	FillingsUpdate:  mu: +0.359150824  nElectrons: 936.000000
SCF: Cycle: 11   F: -8881.149776762238616   dF: -1.138e-07   |Residual|: 1.034e-04   |deigs|: 6.012e-06  t[s]:   7153.61
	FillingsUpdate:  mu: +0.359151123  nElectrons: 936.000000
SCF: Cycle: 12   F: -8881.149776794927675   dF: -3.269e-08   |Residual|: 6.409e-05   |deigs|: 3.651e-06  t[s]:   7288.07
	FillingsUpdate:  mu: +0.359151022  nElectrons: 936.000000
SCF: Cycle: 13   F: -8881.149776809626928   dF: -1.470e-08   |Residual|: 2.426e-05   |deigs|: 2.379e-06  t[s]:   7422.54
	FillingsUpdate:  mu: +0.359150887  nElectrons: 936.000000
SCF: Cycle: 14   F: -8881.149776812340860   dF: -2.714e-09   |Residual|: 1.500e-05   |deigs|: 1.070e-06  t[s]:   7555.33
	FillingsUpdate:  mu: +0.359150863  nElectrons: 936.000000
SCF: Cycle: 15   F: -8881.149776813314020   dF: -9.732e-10   |Residual|: 7.811e-06   |deigs|: 7.553e-07  t[s]:   7687.59
SCF: Converged (|Delta E|<1.000000e-08 for 2 iters).

Setting wave functions to eigenvectors of Hamiltonian

# Ionic positions in lattice coordinates:
ion Zn   0.218511664277412   0.109198146956881   0.250982489973431 1
ion Zn   0.117316166598624   0.216838413521570   0.006916885154363 1
ion Zn   0.219517937503784   0.100164510743567   0.742390616108559 1
ion Zn   0.089229832947437   0.229874318562466   0.511634484561393 1
ion Zn   0.223235035494779   0.442839331491353   0.250109243586620 1
ion Zn   0.122647150049216   0.559300324397284   0.000588777531979 1
ion Zn   0.231528424690011   0.449460903441295   0.745945604759326 1
ion Zn   0.123481734018232   0.555894454256689   0.497345537944525 1
ion Zn   0.234852338135136   0.794730479796600   0.254190179471862 1
ion Zn   0.125407899180444   0.900184734126640   0.005579319549239 1
ion Zn   0.215440741201727   0.776780448743250   0.742443670330183 1
ion Zn   0.097763071570588   0.890722182777916   0.499797985511178 1
ion Zn   0.556272475200463   0.103308532995078   0.243127543978697 1
ion Zn   0.449125546920299   0.214858921459292  -0.006719193675881 1
ion Zn   0.567381026107982   0.110389673786599   0.747781449613990 1
ion Zn   0.422160866681577   0.220970841317446   0.498548570817460 1
ion Zn   0.572423626820458   0.440111466914398   0.252715261424140 1
ion Zn   0.436823824739055   0.555818058057239  -0.007334521117657 1
ion Zn   0.560057189198994   0.457570947891761   0.765017998851218 1
ion Zn   0.440076968571639   0.548434137692846   0.512184016740903 1
ion Zn   0.548650667913120   0.777798876405468   0.256117890023040 1
ion Zn   0.461409340253417   0.888320899023163   0.007135742681837 1
ion Zn   0.563316864130279   0.788163555651486   0.754063343145218 1
ion Zn   0.436818872456334   0.885578382018383   0.501364226025026 1
ion Zn   0.881763493698427   0.120450657476362   0.246202295231191 1
ion Zn   0.762999200944006   0.230783483638005   0.000322458588309 1
ion Zn   0.889569329233115   0.116699266997206   0.748173908354827 1
ion Zn   0.771945075126169   0.229410557044687   0.497486775697824 1
ion Zn   0.900838729272474   0.450109631012969   0.251388238490777 1
ion Zn   0.757157061368191   0.577930553663854  -0.000474178317472 1
ion Zn   0.889311816480537   0.451561494089264   0.768117966894407 1
ion Zn   0.767657920652678   0.553676834387272   0.497912560878287 1
ion Zn   0.894496152182343   0.785854307719849   0.262908138765696 1
ion Zn   0.780747588354703   0.895111244537170   0.008463131024352 1
ion Zn   0.888516512884237   0.774517712932778   0.751066192695601 1
ion Zn   0.779445101841419   0.872724786182002   0.499747676126418 1
ion O   0.209118626329223   0.120433537781883   0.438564386605014 1
ion O   0.119579989552174   0.222567299788899   0.200943724184518 1
ion O   0.214436737538933   0.102752387998591   0.940583216935937 1
ion O   0.112285404327862   0.211152238595591   0.696956196619274 1
ion O   0.231306519188492   0.453158680129477   0.433674472654238 1
ion O   0.112182148067512   0.565501275221896   0.199146979797443 1
ion O   0.223699189538667   0.437162635769751   0.935902826555131 1
ion O   0.100418624278100   0.558837472915850   0.696633815715473 1
ion O   0.217559722562903   0.795863178801897   0.442115688893502 1
ion O   0.115829677785750   0.877314034464553   0.193021406211949 1
ion O   0.223593780720039   0.784760491263820   0.943019241112362 1
ion O   0.106424867453632   0.893139771748100   0.695767278489980 1
ion O   0.562412771958399   0.114560719472398   0.442768318148456 1
ion O   0.444620934259895   0.226863890010612   0.202748527860045 1
ion O   0.549079040980776   0.107669685976530   0.953947656195657 1
ion O   0.458274395327787   0.218016485633030   0.685097185320026 1
ion O   0.557146557617940   0.434709135017711   0.455213295749722 1
ion O   0.418781236970828   0.569036892804985   0.184989160926717 1
ion O   0.552731363606316   0.444236031404932   0.946026422357354 1
ion O   0.441668678917986   0.557245911011336   0.700193513090171 1
ion O   0.553825547362121   0.770437765261985   0.432262078260709 1
ion O   0.457751578223644   0.889642535894111   0.190008191609524 1
ion O   0.559468649784544   0.769667786136921   0.944873537836672 1
ion O   0.445707284383924   0.880182689772690   0.683293837632555 1
ion O   0.891736259095663   0.096934986968197   0.431494534414879 1
ion O   0.780770429407616   0.224494496569237   0.187948308457075 1
ion O   0.874538024010977   0.105203364682587   0.927606233795767 1
ion O   0.769942067075993   0.224664251700852   0.678019988976821 1
ion O   0.877016700301891   0.441318921295449   0.430170168014150 1
ion O   0.786404031676105   0.553593020739137   0.182449629799837 1
ion O   0.889473320361207   0.446312967779039   0.934365849437635 1
ion O   0.773410452906352   0.558873382563004   0.691862651425560 1
ion O   0.887351983364739   0.768556392343706   0.445203202296751 1
ion O   0.778905368932015   0.879392578699467   0.198084777515610 1
ion O   0.896495661621001   0.775225775724511   0.944588110895002 1
ion O   0.778445127809687   0.901244256347175   0.690333298787615 1

# Forces in Lattice coordinates:
force Zn   0.252850851896897  -0.306101858839737   0.135673254503516 1
force Zn  -0.370803793511673   0.247309316840370  -0.044016989324021 1
force Zn   0.381545090661437   0.371604698365482   0.318715246285237 1
force Zn   0.353166439979733  -0.210298659809403  -0.193666441161401 1
force Zn  -0.420505596724061   0.096543452549286  -0.010096791474383 1
force Zn  -0.240333077873686   0.137830985617071   0.118319350013819 1
force Zn  -0.635985083449061  -0.004645599918638   0.212804813738973 1
force Zn  -0.574492274614375   0.470627879794375   0.108848280180375 1
force Zn   0.401446596804501  -0.564794821016719   0.086764326806901 1
force Zn  -0.140158574391197  -0.411582053684146   0.123777489327273 1
force Zn   0.180762428370116   0.103481531586244   0.331176760158394 1
force Zn   0.257438076764700   0.246968917964713   0.216440981612035 1
force Zn  -0.149863386274877   0.426212656874213   0.469623324102583 1
force Zn  -0.823636125736719   0.712296714209208   0.382711426095000 1
force Zn  -0.332408222756683  -0.045589371788501   0.058551273006474 1
force Zn   0.410741305033685  -0.503168052802090   0.130499314419689 1
force Zn  -0.174930146395798   0.289253892949217   0.150556785502507 1
force Zn   0.021649610690144  -0.145408691398179   0.523347086846542 1
force Zn   0.139258643008052  -0.390321263206264  -0.526532122232240 1
force Zn   0.211163886129722   0.053301015469406  -0.250060515532027 1
force Zn   0.516639280653614  -0.483041625296512  -0.204585186842039 1
force Zn  -0.349955254827854  -0.025124454400641  -0.276931518581200 1
force Zn   0.044758037841401  -0.097996102786606   0.046524861231871 1
force Zn   0.233877413177201   0.073655694811378  -0.275064511259183 1
force Zn   0.581976914273767  -0.624647439422167   0.205611990286434 1
force Zn   0.622377580450188  -0.148603345348509  -0.027650091629777 1
force Zn  -0.132282241100689   0.212386101734118  -0.154446123244012 1
force Zn   0.297920393076772  -0.220965978379656  -0.142103222357613 1
force Zn  -0.232006301731748   0.048637516873942  -0.245038317137893 1
force Zn   0.622799690675597  -0.593099756604987   0.388767666867835 1
force Zn  -0.192649809697995  -0.044903123736081  -1.287051755492996 1
force Zn   0.498821544480123  -0.380200980254955   0.365809190916292 1
force Zn   0.229455120860240  -0.331303660533679  -0.457422019056747 1
force Zn   0.203007018562946  -0.095932121447726  -0.049051825808412 1
force Zn  -0.226071986100316   0.255313167902651   0.192050266279745 1
force Zn  -0.586817866838057   0.629720377091775   0.120583390447011 1
force O  -0.021165879414314  -0.197650032279665   0.210018973613436 1
force O  -0.548533877980598   0.235833519354315  -0.526527213542080 1
force O   0.251786695728900   0.344725691159549  -0.208432386104478 1
force O  -0.237464995070162   0.579492275170066  -0.203464999465120 1
force O  -0.103121336362733  -0.168282115195495   0.480097360448121 1
force O   0.389436697758345  -0.151798720039251  -0.351291814503121 1
force O  -0.331042137194072   0.061199113340412   0.005509854609275 1
force O   0.446196293024657  -0.427719291239272  -0.477573848042239 1
force O   0.317365304569315  -0.516365594722180   0.072964386784749 1
force O  -0.639218972078679   0.761837300488539  -0.067353171856076 1
force O   0.454450204896944  -0.359067214467212  -0.182315151992316 1
force O   0.110151828497885  -0.532578931872875  -0.416994424481099 1
force O  -0.513918131284398  -0.076913634522938  -0.384339893855920 1
force O   0.115534720868030  -0.303582169942161  -0.401259308535943 1
force O   0.358037216146240  -0.533755994714911  -0.601412628071285 1
force O  -0.494989793270143   0.348653010351731   0.362511629077537 1
force O  -0.582006672077436   0.504674921554460  -0.563081260869208 1
force O   0.941442342101326  -0.421958578126883  -0.389954419847190 1
force O  -0.282711642853855  -0.224144780547688   0.053389084045737 1
force O   0.382189723649176   0.026003280330529  -0.233974661395659 1
force O  -0.005404936697354  -0.030518299721118   0.831167134431007 1
force O  -0.533010973372363   0.383852308481084  -0.071632291221650 1
force O   0.019513210995963   0.294081380208116  -0.262990413614350 1
force O  -0.269557354023228   0.241353879802386   0.393546698268971 1
force O  -0.375098982708096   0.251210918667470   0.159591801345477 1
force O  -0.328913308479306   0.320762138057345  -0.190258431750547 1
force O   0.077365336462323   0.120718209938266   0.722304838710071 1
force O   0.556733571937236  -0.053927991473312   0.453193889668227 1
force O   0.345196822985498   0.064555227394060   0.468787551599886 1
force O  -0.320567490307934   0.305785687209019   0.256163022882592 1
force O   0.004441359652614   0.013229938942861   1.353898576544917 1
force O   0.051191837501328  -0.078454406715068  -0.037449478651429 1
force O  -0.026455697674133  -0.052621922069162  -0.108432473332331 1
force O  -0.222358753034218   0.368433989851566  -0.226917349313060 1
force O  -0.120899356733474   0.655461759699799  -0.273109256358446 1
force O   0.256707896781612  -0.499072726944048  -0.189135412955507 1

# Energy components:
   Eewald =    -4558.2410594311068053
       EH =     3824.6341166476850049
     Eloc =    -8605.5548993443153449
      Enl =      346.5076098514928162
      Exc =     -882.7158782027663619
 Exc_core =        2.2641772769962518
       KE =      991.9736419028828323
-------------------------------------
     Etot =    -8881.1322912991327030
       TS =        0.0174855141806417
-------------------------------------
        F =    -8881.1497768133140198

IonicMinimize: Iter:   2  F: -8881.149776813314020  |grad|_K:  1.880e-02  alpha:  5.037e-01  linmin: -9.817e-01  t[s]:   7720.35

#--- Lowdin population analysis ---
# oxidation-state Zn +0.592 +0.606 +0.599 +0.584 +0.590 +0.611 +0.599 +0.602 +0.606 +0.598 +0.600 +0.607 +0.595 +0.616 +0.603 +0.595 +0.615 +0.589 +0.604 +0.599 +0.589 +0.607 +0.598 +0.589 +0.597 +0.592 +0.588 +0.592 +0.588 +0.608 +0.595 +0.606 +0.613 +0.582 +0.596 +0.603
# oxidation-state O -0.579 -0.577 -0.581 -0.576 -0.569 -0.580 -0.581 -0.575 -0.578 -0.580 -0.581 -0.585 -0.582 -0.579 -0.581 -0.576 -0.580 -0.588 -0.581 -0.580 -0.580 -0.583 -0.580 -0.579 -0.577 -0.581 -0.578 -0.579 -0.581 -0.576 -0.585 -0.580 -0.584 -0.578 -0.580 -0.579


-------- Electronic minimization -----------
Will mix electronic density at each iteration.
	FillingsUpdate:  mu: +0.359150863  nElectrons: 936.000000
	FillingsUpdate:  mu: +0.359816907  nElectrons: 936.000000
SCF: Cycle:  0   F: -8880.049182553359060   dF: -3.028e+00   |Residual|: 9.649e-01   |deigs|: 5.744e-03  t[s]:   8013.67
	FillingsUpdate:  mu: +0.357063877  nElectrons: 936.000000
SCF: Cycle:  1   F: -8881.007729638266028   dF: -9.585e-01   |Residual|: 4.849e-01   |deigs|: 1.378e-02  t[s]:   8230.88
	FillingsUpdate:  mu: +0.358732953  nElectrons: 936.000000
SCF: Cycle:  2   F: -8881.177285449586634   dF: -1.696e-01   |Residual|: 2.077e-01   |deigs|: 3.462e-03  t[s]:   8447.47
	FillingsUpdate:  mu: +0.358425947  nElectrons: 936.000000
SCF: Cycle:  3   F: -8881.255179725823837   dF: -7.789e-02   |Residual|: 5.518e-02   |deigs|: 2.243e-03  t[s]:   8659.38
	FillingsUpdate:  mu: +0.358124312  nElectrons: 936.000000
SCF: Cycle:  4   F: -8881.257454580198100   dF: -2.275e-03   |Residual|: 2.683e-02   |deigs|: 7.812e-04  t[s]:   8788.19
	FillingsUpdate:  mu: +0.358226595  nElectrons: 936.000000
SCF: Cycle:  5   F: -8881.258554129204640   dF: -1.100e-03   |Residual|: 1.126e-02   |deigs|: 4.582e-04  t[s]:   8922.85
	FillingsUpdate:  mu: +0.358295544  nElectrons: 936.000000
SCF: Cycle:  6   F: -8881.258883379898180   dF: -3.293e-04   |Residual|: 5.797e-03   |deigs|: 2.580e-04  t[s]:   9057.11
	FillingsUpdate:  mu: +0.358225172  nElectrons: 936.000000
SCF: Cycle:  7   F: -8881.258941524427428   dF: -5.814e-05   |Residual|: 2.584e-03   |deigs|: 1.515e-04  t[s]:   9184.35
	FillingsUpdate:  mu: +0.358244930  nElectrons: 936.000000
SCF: Cycle:  8   F: -8881.258963121385023   dF: -2.160e-05   |Residual|: 9.083e-04   |deigs|: 7.613e-05  t[s]:   9318.59
	FillingsUpdate:  mu: +0.358244491  nElectrons: 936.000000
SCF: Cycle:  9   F: -8881.258965763430751   dF: -2.642e-06   |Residual|: 5.614e-04   |deigs|: 2.775e-05  t[s]:   9450.34
	FillingsUpdate:  mu: +0.358241679  nElectrons: 936.000000
SCF: Cycle: 10   F: -8881.258966780314950   dF: -1.017e-06   |Residual|: 2.003e-04   |deigs|: 1.955e-05  t[s]:   9581.74
	FillingsUpdate:  mu: +0.358240985  nElectrons: 936.000000
SCF: Cycle: 11   F: -8881.258966949180831   dF: -1.689e-07   |Residual|: 1.188e-04   |deigs|: 7.136e-06  t[s]:   9713.90
	FillingsUpdate:  mu: +0.358241106  nElectrons: 936.000000
SCF: Cycle: 12   F: -8881.258967002979261   dF: -5.380e-08   |Residual|: 7.179e-05   |deigs|: 4.791e-06  t[s]:   9852.72
	FillingsUpdate:  mu: +0.358240822  nElectrons: 936.000000
SCF: Cycle: 13   F: -8881.258967023182777   dF: -2.020e-08   |Residual|: 2.874e-05   |deigs|: 2.668e-06  t[s]:   9990.32
	FillingsUpdate:  mu: +0.358240768  nElectrons: 936.000000
SCF: Cycle: 14   F: -8881.258967027066319   dF: -3.884e-09   |Residual|: 1.822e-05   |deigs|: 1.292e-06  t[s]:  10122.35
	FillingsUpdate:  mu: +0.358240772  nElectrons: 936.000000
SCF: Cycle: 15   F: -8881.258967028221377   dF: -1.155e-09   |Residual|: 8.149e-06   |deigs|: 6.624e-07  t[s]:  10262.09
SCF: Converged (|Delta E|<1.000000e-08 for 2 iters).

Setting wave functions to eigenvectors of Hamiltonian

# Ionic positions in lattice coordinates:
ion Zn   0.219053304956843   0.108159588360905   0.251601195011387 1
ion Zn   0.114935194394271   0.217230570681851   0.006534357980798 1
ion Zn   0.223239185625100   0.103088847822695   0.743826533329110 1
ion Zn   0.091456443285344   0.229592926814641   0.510400269476119 1
ion Zn   0.221883980750117   0.443226448283434   0.249652820325861 1
ion Zn   0.121077822138419   0.559366806937076   0.001179884500880 1
ion Zn   0.227818448190274   0.447680275129685   0.746733694789725 1
ion Zn   0.120587055351619   0.557441934346410   0.497913552525880 1
ion Zn   0.234760454474451   0.792217103603672   0.254123670069009 1
ion Zn   0.123011624554136   0.897218210420561   0.005663209015237 1
ion Zn   0.217372754923081   0.778074290349169   0.744356607873547 1
ion Zn   0.100701287990948   0.893632348854201   0.500914684688234 1
ion Zn   0.556778466913777   0.106146221784131   0.245654444003568 1
ion Zn   0.446519762879312   0.215777194520860  -0.004888893548164 1
ion Zn   0.564722522940895   0.108765463296883   0.748140930557011 1
ion Zn   0.423843385620769   0.218617524716182   0.499211940466083 1
ion Zn   0.571550582062765   0.441445869046032   0.253605113520229 1
ion Zn   0.436571518941269   0.555091733325186  -0.004587926777208 1
ion Zn   0.559383585551461   0.454637975119609   0.762273092540998 1
ion Zn   0.442084625092321   0.549832487913682   0.510852037581599 1
ion Zn   0.550879700833945   0.776501649956885   0.255406297538938 1
ion Zn   0.458185943553687   0.886559042122391   0.005555639260784 1
ion Zn   0.563163398472411   0.787405554572366   0.754318334108259 1
ion Zn   0.439210810225143   0.887094500023582   0.500125496417667 1
ion Zn   0.883298454165815   0.118214146918111   0.246781503551970 1
ion Zn   0.766985784872485   0.231534937292468   0.000010935415340 1
ion Zn   0.889092680495632   0.117539082145049   0.747845423081118 1
ion Zn   0.772763058154257   0.228146297682504   0.496638018379833 1
ion Zn   0.899300852309213   0.449619221694529   0.250118574894420 1
ion Zn   0.760343810625843   0.575947760360827   0.001102364828217 1
ion Zn   0.887427168776363   0.450139852110335   0.764445811022975 1
ion Zn   0.769540837250440   0.552060956743496   0.499914412521982 1
ion Zn   0.894789792712344   0.783993030156970   0.260464547901022 1
ion Zn   0.782015971939491   0.895142824111311   0.008077253644714 1
ion Zn   0.887556827939052   0.775781503792914   0.752103702262793 1
ion Zn   0.777423103846701   0.875278636964609   0.500241768407560 1
ion O   0.208175109528012   0.118663790320842   0.439707857644119 1
ion O   0.116221554463374   0.221705716577807   0.198155551647641 1
ion O   0.217574882591629   0.105531172330739   0.939782636335125 1
ion O   0.112811521551702   0.214924407068866   0.695849124150841 1
ion O   0.229463129963471   0.451257040654275   0.436250455990322 1
ion O   0.114432252091034   0.565617077529424   0.197270915754846 1
ion O   0.221231262332349   0.436488467473843   0.936035308903968 1
ion O   0.102522606298475   0.557276952314684   0.694071854104576 1
ion O   0.217914439124379   0.792673853566946   0.442508589896603 1
ion O   0.114792818007826   0.880434975351006   0.193337188275764 1
ion O   0.225880599270274   0.783664903388119   0.941991636538256 1
ion O   0.106352908299824   0.891409945044888   0.693820408635473 1
ion O   0.558529647380498   0.112345153105936   0.440947879426684 1
ion O   0.444489647912843   0.225235820744559   0.200464709932885 1
ion O   0.549068357585289   0.106579448191347   0.950869976109877 1
ion O   0.455483625199821   0.218948384685916   0.687113025162853 1
ion O   0.554955529776802   0.436774962879359   0.452011154808672 1
ion O   0.423264462303105   0.567761098396810   0.183587230022449 1
ion O   0.550231398084744   0.441854869774627   0.946189356899021 1
ion O   0.443241011345092   0.558139644408246   0.699265253671816 1
ion O   0.553520115220205   0.770342939685024   0.436039231509734 1
ion O   0.455218609880392   0.890274267603406   0.190112414684262 1
ion O   0.560657754304124   0.771725957907805   0.943485820129557 1
ion O   0.444459926930674   0.881258730028210   0.685241798115796 1
ion O   0.889544101258497   0.097748060523386   0.432613773058916 1
ion O   0.780120893221123   0.225173420739882   0.187554024747235 1
ion O   0.876066484605635   0.106806739107465   0.931128533747265 1
ion O   0.773952630222199   0.226361776159294   0.680559127403220 1
ion O   0.880545860031176   0.443422750914249   0.432514147734532 1
ion O   0.785082971254724   0.555008762781568   0.184000420693387 1
ion O   0.889826678593009   0.447150171222547   0.938164520295566 1
ion O   0.773627412537436   0.558386178371005   0.691725656607189 1
ion O   0.886966269554239   0.768618154118165   0.444618662381843 1
ion O   0.778747493949850   0.881563533806909   0.196974452741211 1
ion O   0.897159851204421   0.779084412589436   0.943386176372926 1
ion O   0.778825981311759   0.898453642658198   0.689459824698074 1

# Forces in Lattice coordinates:
force Zn   0.123560446635481  -0.124293914226458   0.093349679157452 1
force Zn  -0.294993843446861   0.162593956487893  -0.102616289196966 1
force Zn   0.191865175266397   0.271621482934684   0.235014096552545 1
force Zn   0.287714765118282  -0.167678100366560  -0.180308574640225 1
force Zn  -0.241324772826678   0.067456564728324   0.035106474308575 1
force Zn  -0.185925035569355   0.083372103722000   0.065979674456952 1
force Zn  -0.395192969721084   0.017468572709874   0.129988640574023 1
force Zn  -0.414394971884850   0.331659393334061   0.069806967115220 1
force Zn   0.202306455412072  -0.355816810309335   0.049984323522118 1
force Zn  -0.074365984411717  -0.258069383729882   0.015498797274871 1
force Zn   0.131652470150218   0.013502609092577   0.249717863119845 1
force Zn   0.178579451673283   0.107696463754070   0.127671105963870 1
force Zn  -0.100276387174166   0.276306193344536   0.299657579073589 1
force Zn  -0.492329053899400   0.400548905688034   0.318814306608516 1
force Zn  -0.220581884372855  -0.008027258558442   0.063740811689342 1
force Zn   0.339942842993612  -0.341759527069814   0.077730760708092 1
force Zn  -0.245127388231843   0.238010672909482   0.109704114698563 1
force Zn   0.015911720561355  -0.091524047711758   0.308149496722546 1
force Zn   0.057722348682136  -0.306823747971475  -0.346957986287666 1
force Zn   0.104788409603987   0.059766604364219  -0.166698334870961 1
force Zn   0.320367724516672  -0.273066777975408  -0.109399758043324 1
force Zn  -0.281379416705484   0.013137356796154  -0.190607678163631 1
force Zn   0.016877074837911  -0.088765594475019   0.005735543677044 1
force Zn   0.177445591867087   0.003073957944521  -0.142952930473308 1
force Zn   0.366175380776479  -0.414386309175879   0.107030986109221 1
force Zn   0.417670088946320  -0.190303627299914  -0.043917628023218 1
force Zn  -0.055839979342933   0.083548347299949  -0.031985617106393 1
force Zn   0.215675465105186  -0.212337679464323  -0.088023059142416 1
force Zn  -0.146787256444719   0.037338449059005  -0.153740045926782 1
force Zn   0.497337553078935  -0.496389687047465   0.173984516708437 1
force Zn  -0.082062751199890  -0.058049886908389  -0.683987841573025 1
force Zn   0.311379932844993  -0.252999500174464   0.253358563742871 1
force Zn   0.112049021563317  -0.224584376598701  -0.298471717974671 1
force Zn   0.126314220060344  -0.063181520839024  -0.063975423715530 1
force Zn  -0.160641165563904   0.204521584820344   0.100897510367790 1
force Zn  -0.354714369716213   0.400019311047095   0.050124034741580 1
force O   0.045630516510568  -0.153778907736493   0.139741438792018 1
force O  -0.339108101453365   0.127859294911132  -0.359925427018501 1
force O   0.149160961923240   0.194266783356792  -0.104440730340646 1
force O  -0.140425389113544   0.357915013131359  -0.131168358970748 1
force O  -0.122310405402858  -0.095990781486166   0.309520516552749 1
force O   0.221746580919566  -0.118907297246447  -0.263059660149470 1
force O  -0.242692328644252   0.093499212088020   0.046070686937600 1
force O   0.293641862222832  -0.265374750432930  -0.307073416504596 1
force O   0.228121276679380  -0.381181094563442   0.053245137296881 1
force O  -0.372271579573493   0.488241183606711  -0.035562958616059 1
force O   0.287747164538990  -0.230517842362952  -0.125789384410597 1
force O   0.086286559180463  -0.309114942992061  -0.258278601952007 1
force O  -0.337937761508556   0.008846359300992  -0.210910970786809 1
force O   0.063787475433234  -0.162588837085792  -0.316512085392871 1
force O   0.252935578941289  -0.290671194681667  -0.474274183664139 1
force O  -0.349607338971851   0.270401603917962   0.249114471165551 1
force O  -0.345736189467580   0.304247579964637  -0.447179233683357 1
force O   0.743456346336078  -0.437039573479646  -0.141236862576900 1
force O  -0.118230380009167  -0.096492613385310  -0.003531715263919 1
force O   0.219169576547362   0.000394786594793  -0.157343214707712 1
force O  -0.052491392722425   0.036860285471445   0.484377723011118 1
force O  -0.308904662949421   0.223727350941063  -0.006177236601269 1
force O   0.015761381785070   0.172839189917406  -0.164727285806944 1
force O  -0.179058813362788   0.201206144530192   0.245607858860836 1
force O  -0.353430550503425   0.285355807203237   0.171209486104640 1
force O  -0.176807211233192   0.176333721787540  -0.061222244239535 1
force O   0.106695730226213   0.105082748830368   0.476397147809035 1
force O   0.313593390971163  -0.027913638773142   0.301372127137701 1
force O   0.305853015998453  -0.001680519074396   0.300885497499211 1
force O  -0.233120184652417   0.244536330017084   0.234041861507754 1
force O  -0.042104404937564   0.128655663170050   0.678294631118961 1
force O   0.062516207514864  -0.063240908737296  -0.002561160794209 1
force O  -0.053398545449368   0.024728195042307  -0.080467506112506 1
force O  -0.130081270824442   0.248723275679358  -0.143592948369523 1
force O  -0.142967140420164   0.422176379590820  -0.153231784673148 1
force O   0.195174366765481  -0.324231401773577  -0.079854454649790 1

# Energy components:
   Eewald =    -4565.9004598334749971
       EH =     3817.9382269339180311
     Eloc =    -8591.0763687072503672
      Enl =      346.4518849940201335
      Exc =     -882.6519485605199407
 Exc_core =        2.2641772849823774
       KE =      991.7316398242354580
-------------------------------------
     Etot =    -8881.2428480640919588
       TS =        0.0161189641297066
-------------------------------------
        F =    -8881.2589670282213774

IonicMinimize: Iter:   3  F: -8881.258967028221377  |grad|_K:  1.208e-02  alpha:  4.425e-01  linmin: -9.812e-01  t[s]:  10294.60

#--- Lowdin population analysis ---
# oxidation-state Zn +0.595 +0.603 +0.599 +0.587 +0.592 +0.606 +0.597 +0.600 +0.604 +0.599 +0.601 +0.603 +0.594 +0.609 +0.601 +0.597 +0.615 +0.589 +0.602 +0.598 +0.590 +0.604 +0.597 +0.591 +0.596 +0.591 +0.590 +0.593 +0.592 +0.606 +0.594 +0.604 +0.610 +0.584 +0.600 +0.601
# oxidation-state O -0.578 -0.578 -0.581 -0.577 -0.573 -0.580 -0.581 -0.577 -0.578 -0.580 -0.580 -0.583 -0.581 -0.579 -0.579 -0.577 -0.580 -0.586 -0.580 -0.580 -0.580 -0.582 -0.580 -0.579 -0.577 -0.581 -0.578 -0.578 -0.581 -0.578 -0.583 -0.580 -0.583 -0.578 -0.579 -0.580


-------- Electronic minimization -----------
Will mix electronic density at each iteration.
	FillingsUpdate:  mu: +0.358240772  nElectrons: 936.000000
	FillingsUpdate:  mu: +0.359452463  nElectrons: 936.000000
SCF: Cycle:  0   F: -8880.702642861218919   dF: -1.789e+00   |Residual|: 7.054e-01   |deigs|: 3.208e-03  t[s]:  10595.54
	FillingsUpdate:  mu: +0.357496375  nElectrons: 936.000000
SCF: Cycle:  1   F: -8881.183893143876048   dF: -4.813e-01   |Residual|: 3.509e-01   |deigs|: 9.613e-03  t[s]:  10813.78
	FillingsUpdate:  mu: +0.358379240  nElectrons: 936.000000
SCF: Cycle:  2   F: -8881.270987864072595   dF: -8.709e-02   |Residual|: 1.461e-01   |deigs|: 2.296e-03  t[s]:  11027.22
	FillingsUpdate:  mu: +0.358009255  nElectrons: 936.000000
SCF: Cycle:  3   F: -8881.311133171377151   dF: -4.015e-02   |Residual|: 4.198e-02   |deigs|: 1.824e-03  t[s]:  11238.75
	FillingsUpdate:  mu: +0.357832634  nElectrons: 936.000000
SCF: Cycle:  4   F: -8881.312907170829931   dF: -1.774e-03   |Residual|: 2.011e-02   |deigs|: 7.718e-04  t[s]:  11368.43
	FillingsUpdate:  mu: +0.357875532  nElectrons: 936.000000
SCF: Cycle:  5   F: -8881.313711544775288   dF: -8.044e-04   |Residual|: 8.353e-03   |deigs|: 3.070e-04  t[s]:  11497.72
	FillingsUpdate:  mu: +0.357902234  nElectrons: 936.000000
SCF: Cycle:  6   F: -8881.313991024131610   dF: -2.795e-04   |Residual|: 4.432e-03   |deigs|: 2.132e-04  t[s]:  11627.49
	FillingsUpdate:  mu: +0.357861456  nElectrons: 936.000000
SCF: Cycle:  7   F: -8881.314036334615594   dF: -4.531e-05   |Residual|: 1.973e-03   |deigs|: 1.166e-04  t[s]:  11760.59
	FillingsUpdate:  mu: +0.357871506  nElectrons: 936.000000
SCF: Cycle:  8   F: -8881.314049051326947   dF: -1.272e-05   |Residual|: 8.020e-04   |deigs|: 6.063e-05  t[s]:  11898.72
	FillingsUpdate:  mu: +0.357873069  nElectrons: 936.000000
SCF: Cycle:  9   F: -8881.314051812889375   dF: -2.762e-06   |Residual|: 4.562e-04   |deigs|: 2.957e-05  t[s]:  12033.88
	FillingsUpdate:  mu: +0.357869415  nElectrons: 936.000000
SCF: Cycle: 10   F: -8881.314052601564981   dF: -7.887e-07   |Residual|: 1.864e-04   |deigs|: 1.759e-05  t[s]:  12168.73
	FillingsUpdate:  mu: +0.357868759  nElectrons: 936.000000
SCF: Cycle: 11   F: -8881.314052756495585   dF: -1.549e-07   |Residual|: 1.072e-04   |deigs|: 7.433e-06  t[s]:  12305.17
	FillingsUpdate:  mu: +0.357869089  nElectrons: 936.000000
SCF: Cycle: 12   F: -8881.314052798976263   dF: -4.248e-08   |Residual|: 6.107e-05   |deigs|: 4.191e-06  t[s]:  12441.26
	FillingsUpdate:  mu: +0.357868885  nElectrons: 936.000000
SCF: Cycle: 13   F: -8881.314052815239847   dF: -1.626e-08   |Residual|: 2.249e-05   |deigs|: 2.565e-06  t[s]:  12576.68
	FillingsUpdate:  mu: +0.357868853  nElectrons: 936.000000
SCF: Cycle: 14   F: -8881.314052817237098   dF: -1.997e-09   |Residual|: 1.529e-05   |deigs|: 8.646e-07  t[s]:  12715.31
	FillingsUpdate:  mu: +0.357868869  nElectrons: 936.000000
SCF: Cycle: 15   F: -8881.314052818013806   dF: -7.767e-10   |Residual|: 8.243e-06   |deigs|: 5.051e-07  t[s]:  12852.52
SCF: Converged (|Delta E|<1.000000e-08 for 2 iters).

Setting wave functions to eigenvectors of Hamiltonian

# Ionic positions in lattice coordinates:
ion Zn   0.219446575918889   0.108146549622072   0.252104748655463 1
ion Zn   0.112586793953027   0.217151990805128   0.005588998619316 1
ion Zn   0.225440695014733   0.105596365908359   0.745158229035662 1
ion Zn   0.093584555034476   0.229372044098981   0.509072230215644 1
ion Zn   0.221013161369414   0.443453371473548   0.249855055827515 1
ion Zn   0.119548226750495   0.559118162662694   0.001491349064206 1
ion Zn   0.225280387213931   0.446667755710739   0.747285714454243 1
ion Zn   0.118196192802703   0.558577531106103   0.498300607659081 1
ion Zn   0.234185961619289   0.790085742281063   0.254156588905560 1
ion Zn   0.121567261192116   0.895182932113397   0.005237034417266 1
ion Zn   0.218507813441646   0.778339552563525   0.745971169951421 1
ion Zn   0.102547658405812   0.894974780110711   0.501566804307120 1
ion Zn   0.557080799656926   0.108081431713308   0.247335835628495 1
ion Zn   0.444554891199100   0.216219369950181  -0.002883954929082 1
ion Zn   0.562919601842400   0.107907108034884   0.748624330946064 1
ion Zn   0.425894374355265   0.217299214616278   0.499608185839844 1
ion Zn   0.569507562520548   0.442209973168040   0.254312492584709 1
ion Zn   0.436404835621308   0.554552857516921  -0.002995917224734 1
ion Zn   0.558083050669368   0.451648080794723   0.760319796951480 1
ion Zn   0.443156850307945   0.550906565375080   0.509894184114681 1
ion Zn   0.552500695763398   0.775966861506853   0.255050244673118 1
ion Zn   0.455436963307735   0.885411284097685   0.004390349050127 1
ion Zn   0.562715929417693   0.786449352683760   0.754253796968657 1
ion Zn   0.440863073489347   0.887670570265260   0.499563083042290 1
ion Zn   0.884291516027855   0.116320671096331   0.247056317380379 1
ion Zn   0.769353137992532   0.230886381855233  -0.000415555507206 1
ion Zn   0.888873166937446   0.117618223039126   0.748156506920302 1
ion Zn   0.773327058458645   0.226580091585974   0.496121652561592 1
ion Zn   0.898301815048240   0.449381415552662   0.249290771934017 1
ion Zn   0.762959271479269   0.573521690435151   0.001549035157655 1
ion Zn   0.886600637251462   0.449131423208196   0.762389285366130 1
ion Zn   0.770769704602924   0.550899990492395   0.501434327875658 1
ion Zn   0.894424267688142   0.782313846401717   0.258772360158446 1
ion Zn   0.782800829127054   0.895113184562890   0.007531186558828 1
ion Zn   0.887016744704000   0.777103958094354   0.752581024606799 1
ion Zn   0.776305955124350   0.877153359990281   0.500345484073130 1
ion O   0.208214644009564   0.117523698728900   0.440520746345009 1
ion O   0.113929941173102   0.220999972839813   0.196057547044521 1
ion O   0.219386958319982   0.107174016706717   0.939452579752222 1
ion O   0.113220111518076   0.217350497035462   0.695103579798967 1
ion O   0.227538928327527   0.449754995352078   0.437994370416495 1
ion O   0.115441024060012   0.565216239979261   0.195640005150714 1
[...]
ion O   0.777025330128392   0.556586771155906   0.691036588018906 1
ion O   0.888290393585052   0.778911152638740   0.441186421674193 1
ion O   0.777983626327324   0.889919762136385   0.191118483153518 1
ion O   0.889107985521513   0.778644020291219   0.941224755310574 1
ion O   0.777446176113851   0.889618216507123   0.691194047959727 1

# Forces in Lattice coordinates:
force Zn  -0.000288455951911  -0.000035706259611   0.003613383556448 1
force Zn  -0.000708493442849  -0.001128088257522  -0.003096939658503 1
force Zn   0.003237863451379   0.000277911903580   0.001165088569330 1
force Zn   0.000368494953334   0.001877336125924   0.000735696906669 1
force Zn  -0.002632340542768  -0.000501770181860   0.001787770782968 1
force Zn  -0.001172434021720   0.000520410379046  -0.000394084297194 1
force Zn   0.000422730922432  -0.001559406214785   0.000619510238189 1
force Zn   0.001253768483461   0.001615614226275   0.002785829797501 1
force Zn  -0.003478177627059  -0.002416277817330   0.002689603813388 1
force Zn  -0.001325704908460  -0.001034062006844  -0.001228445644240 1
force Zn  -0.003020729383487  -0.001318515845480  -0.001209937050243 1
force Zn  -0.000838550367822   0.000260306146890   0.000682259183849 1
force Zn   0.000592990767673   0.000496813298800   0.001317361793367 1
force Zn  -0.003243141716713   0.004061156507394   0.000203236904365 1
force Zn   0.001557732977563  -0.002166609758730  -0.001387863761826 1
force Zn   0.004378271753533  -0.000292765716348   0.001552924447046 1
force Zn   0.002261941755370  -0.000082470021171   0.000434737997362 1
force Zn  -0.001199798238284   0.001853639377381  -0.002728475151297 1
force Zn  -0.000395168259161   0.001106415519777  -0.000554734305171 1
force Zn   0.001026866012405   0.003005515956610   0.002351968186195 1
force Zn  -0.002797229388491   0.003549199552166   0.000721785780840 1
force Zn  -0.002080658022130  -0.000249194783944   0.000487368383168 1
force Zn  -0.002121452798927   0.004468917849431  -0.000364598338457 1
force Zn   0.000270232489974   0.000066850519680   0.000766451484423 1
force Zn   0.001379800282485  -0.002576233077481   0.001876922642229 1
force Zn  -0.000770287770220  -0.000698858675432   0.000572677678522 1
force Zn   0.003602602691624  -0.001680666834476   0.000537809398179 1
force Zn   0.002029523782211  -0.001615960149377  -0.000098607721586 1
force Zn   0.000586415459185  -0.000205193441023  -0.001942595325874 1
force Zn   0.001047725702316  -0.002541090679992  -0.000375438380595 1
force Zn  -0.001151576267481  -0.000610955843185  -0.002266258184767 1
force Zn   0.007213205277168  -0.006540685383775   0.003512016885955 1
force Zn  -0.000428845131815  -0.000262442669917   0.000445805093139 1
force Zn  -0.000943209346432  -0.000330863876277  -0.000252297022659 1
force Zn  -0.001961230645889   0.001701184860761  -0.000508724887520 1
force Zn   0.001491392506115  -0.000084286337252   0.000862162253232 1
force O   0.002585717951266   0.001538307818066   0.001257026769697 1
force O   0.001470112965463  -0.001687797495156  -0.002865842626330 1
force O   0.002066413526415  -0.000784358595706   0.001034542175794 1
force O   0.003923832777289   0.000466899103761  -0.000527522661554 1
force O   0.002445570994072  -0.000498551026491   0.001735949111679 1
force O   0.002426548798385  -0.003838307939723  -0.001432550716910 1
force O  -0.001821023864760  -0.000225774390699   0.000469173235857 1
force O   0.001767323663701  -0.005878264141021   0.002301389605206 1
force O  -0.000472712386678   0.000259983331242   0.001095164967170 1
force O  -0.002987712792029   0.005808040297013   0.000502346233565 1
force O  -0.000321157064769  -0.001199920907135  -0.001738174519160 1
force O  -0.001668164332986  -0.001017052207938  -0.001119696091704 1
force O  -0.001772058832347   0.003201216232769  -0.002517611811698 1
force O  -0.000513551645807   0.000831133277960  -0.000471940268364 1
force O   0.002314213197627  -0.003740512294270  -0.002451652833507 1
force O   0.000494847213691   0.002133987774676   0.000180333542526 1
force O   0.003574010734455  -0.000556174624628  -0.003626366390001 1
force O  -0.002866909864826   0.005871568608914  -0.006050849337287 1
force O   0.000034210577295  -0.000869273607162   0.002490584895043 1
force O   0.000873404949044   0.000508335221896   0.001580208085988 1
force O  -0.000459460942017   0.000419996575727   0.003109442822293 1
force O  -0.004855019133271   0.002777166651957   0.000423319673008 1
force O  -0.003275759310056   0.003291619282762   0.001473808286714 1
force O  -0.003388964388265   0.003390326783945   0.002496768387986 1
force O   0.000734404588379   0.001525035329502  -0.000144389085344 1
force O  -0.001432299369468  -0.001310662979478   0.001279625860478 1
force O  -0.002306939397166   0.003692808092532   0.002799536754012 1
force O   0.001981182576110  -0.002056608706529   0.002105927423790 1
force O   0.003969414071890  -0.003312844415977  -0.001012856583509 1
force O  -0.003119379649614  -0.001489795400274   0.001456729158967 1
force O  -0.000816827112279  -0.001597248856364   0.004726417854466 1
force O   0.000409540481643  -0.002164551910606   0.002156863675714 1
force O   0.001740525822196  -0.004684454600318  -0.000559817230447 1
force O  -0.001380734699367   0.000744967800038   0.000130246191686 1
force O  -0.000546431396133   0.003020984643292  -0.001487541932406 1
force O  -0.000755422776280   0.000301650850997   0.001220116521319 1

# Energy components:
   Eewald =    -4574.9269423030063990
       EH =     3810.3572561275727821
     Eloc =    -8574.4401583179569570
      Enl =      346.4301418881698851
      Exc =     -882.6396434098553527
 Exc_core =        2.2641552407015624
       KE =      991.5775419132801289
-------------------------------------
     Etot =    -8881.3776488610928936
       TS =        0.0147248943007663
-------------------------------------
        F =    -8881.3923737553941464

IonicMinimize: Iter:  15  F: -8881.392373755394146  |grad|_K:  1.154e-04  alpha:  1.000e+00  linmin: -5.679e-01  t[s]:  36649.27

#--- Lowdin population analysis ---
# oxidation-state Zn +0.599 +0.598 +0.599 +0.599 +0.599 +0.599 +0.599 +0.599 +0.599 +0.599 +0.598 +0.599 +0.599 +0.599 +0.599 +0.599 +0.599 +0.599 +0.599 +0.599 +0.599 +0.599 +0.599 +0.599 +0.599 +0.599 +0.599 +0.599 +0.598 +0.599 +0.599 +0.599 +0.599 +0.599 +0.599 +0.599
# oxidation-state O -0.581 -0.581 -0.581 -0.581 -0.581 -0.581 -0.581 -0.581 -0.581 -0.581 -0.581 -0.581 -0.581 -0.581 -0.581 -0.581 -0.581 -0.581 -0.581 -0.581 -0.581 -0.581 -0.581 -0.581 -0.581 -0.581 -0.581 -0.581 -0.581 -0.581 -0.581 -0.581 -0.581 -0.581 -0.581 -0.581


-------- Electronic minimization -----------
Will mix electronic density at each iteration.
	FillingsUpdate:  mu: +0.357794973  nElectrons: 936.000000
	FillingsUpdate:  mu: +0.357796337  nElectrons: 936.000000
SCF: Cycle:  0   F: -8881.392390102411809   dF: -3.417e-05   |Residual|: 2.632e-03   |deigs|: 6.317e-07  t[s]:  36863.67
	FillingsUpdate:  mu: +0.357795536  nElectrons: 936.000000
SCF: Cycle:  1   F: -8881.392399800797648   dF: -9.698e-06   |Residual|: 1.418e-03   |deigs|: 5.614e-05  t[s]:  36988.61
	FillingsUpdate:  mu: +0.357795622  nElectrons: 936.000000
SCF: Cycle:  2   F: -8881.392401296048774   dF: -1.495e-06   |Residual|: 5.615e-04   |deigs|: 7.354e-06  t[s]:  37117.90
	FillingsUpdate:  mu: +0.357795857  nElectrons: 936.000000
SCF: Cycle:  3   F: -8881.392402441144441   dF: -1.145e-06   |Residual|: 2.177e-04   |deigs|: 1.330e-05  t[s]:  37246.55
	FillingsUpdate:  mu: +0.357795581  nElectrons: 936.000000
SCF: Cycle:  4   F: -8881.392402587862307   dF: -1.467e-07   |Residual|: 1.390e-04   |deigs|: 4.924e-06  t[s]:  37378.59
	FillingsUpdate:  mu: +0.357795581  nElectrons: 936.000000
SCF: Cycle:  5   F: -8881.392402697812940   dF: -1.100e-07   |Residual|: 5.474e-05   |deigs|: 4.575e-06  t[s]:  37505.97
	FillingsUpdate:  mu: +0.357795671  nElectrons: 936.000000
SCF: Cycle:  6   F: -8881.392402721083272   dF: -2.327e-08   |Residual|: 3.707e-05   |deigs|: 1.929e-06  t[s]:  37638.71
	FillingsUpdate:  mu: +0.357795663  nElectrons: 936.000000
SCF: Cycle:  7   F: -8881.392402727566150   dF: -6.483e-09   |Residual|: 1.684e-05   |deigs|: 1.139e-06  t[s]:  37771.30
	FillingsUpdate:  mu: +0.357795639  nElectrons: 936.000000
SCF: Cycle:  8   F: -8881.392402728677553   dF: -1.111e-09   |Residual|: 6.904e-06   |deigs|: 5.404e-07  t[s]:  37904.94
SCF: Converged (|Delta E|<1.000000e-08 for 2 iters).

Setting wave functions to eigenvectors of Hamiltonian

# Ionic positions in lattice coordinates:
ion Zn   0.221869452159350   0.111893628926508   0.251576420405289 1
ion Zn   0.110787468029527   0.223261287171401   0.001804640726946 1
ion Zn   0.221276132805076   0.111949425278007   0.751754369183490 1
ion Zn   0.109798733887608   0.222576487626817   0.501722226475197 1
ion Zn   0.221843906637816   0.445368912507725   0.251637180838040 1
ion Zn   0.111326783020177   0.556907554715686   0.001735278059219 1
ion Zn   0.221359026726940   0.445232148613663   0.751662934927838 1
ion Zn   0.110141518400050   0.556281311418257   0.501688956924444 1
ion Zn   0.222616839296663   0.778952913621421   0.251626812786147 1
ion Zn   0.111238243858614   0.889983711081436   0.001628157058137 1
ion Zn   0.222363727814671   0.779004124095352   0.751827842515663 1
ion Zn   0.110569361681264   0.889406728362927   0.501732468033396 1
ion Zn   0.555453642626971   0.111873382902222   0.251722974413386 1
ion Zn   0.444217811859512   0.222867204067439   0.001703025120664 1
ion Zn   0.555013481691150   0.111893083305496   0.751769592867651 1
ion Zn   0.443206797882080   0.222290614869323   0.501758700374485 1
ion Zn   0.555167395695848   0.444833376670514   0.251765151649495 1
ion Zn   0.444289604217041   0.556031902690767   0.001833131430412 1
ion Zn   0.554781792159380   0.444820594208404   0.751628674757178 1
ion Zn   0.443080523278521   0.555650157165565   0.501602901464170 1
ion Zn   0.555686831720203   0.778162920214165   0.251687482320568 1
ion Zn   0.445062547792840   0.889804911412342   0.001611520371578 1
ion Zn   0.555158698381051   0.777988156308874   0.751719865229328 1
ion Zn   0.444044738712040   0.889324119688418   0.501732248429565 1
ion Zn   0.888363934304281   0.112112892512119   0.251701269863551 1
ion Zn   0.777933814840487   0.223597802375769   0.001613841694109 1
ion Zn   0.887698390246840   0.111872560593194   0.751694687699592 1
ion Zn   0.776870838904125   0.223343508098581   0.501749413286035 1
ion Zn   0.888739981667298   0.445736758589147   0.251891836595568 1
ion Zn   0.777619731433662   0.556314529617965   0.001711168921429 1
ion Zn   0.888602090552932   0.445833426011065   0.751793668680914 1
ion Zn   0.776411937036445   0.556493332015888   0.501631029947084 1
ion Zn   0.888843029679398   0.778678896022005   0.251657022061375 1
ion Zn   0.778061307075928   0.889850658074609   0.001666530511790 1
ion Zn   0.888635473963838   0.778562108168535   0.751747747515275 1
ion Zn   0.776969374679140   0.889602430801438   0.501776477520677 1
ion O   0.221105099740037   0.111655992652917   0.441043158291196 1
ion O   0.110700246789814   0.223010570412933   0.191251503086786 1
ion O   0.221955693676111   0.112188735865340   0.941230946255081 1
ion O   0.110059971039064   0.222942302147087   0.691200157105804 1
ion O   0.220914013001305   0.444813354602575   0.441080127071822 1
ion O   0.110922169751484   0.556619987951448   0.191150229739476 1
ion O   0.222079712095452   0.445463174267271   0.941195438162266 1
ion O   0.110761400234110   0.556821190997726   0.691119712282094 1
ion O   0.221834548549113   0.778495359944890   0.441097353710774 1
ion O   0.111092914641739   0.889655654509674   0.191133306054547 1
ion O   0.222694402629079   0.779114511759230   0.941250780026057 1
ion O   0.110893046181644   0.889778460012151   0.691213120456199 1
ion O   0.554683756922172   0.111627679087200   0.441159345361210 1
ion O   0.444130246500401   0.222762046045730   0.191119565640610 1
ion O   0.555611549338302   0.112148751715413   0.941198579766090 1
ion O   0.443540245828945   0.222624248369544   0.691158530665189 1
ion O   0.554271019855104   0.444529864974301   0.441112425204104 1
ion O   0.444084893459871   0.555861190691230   0.191288017888000 1
ion O   0.555458287251366   0.445084969834286   0.941105829873554 1
ion O   0.443525614624316   0.555831625872343   0.691047204143462 1
ion O   0.554778039582895   0.777909636642335   0.441105183325074 1
ion O   0.444878549911405   0.889611822528562   0.191122568259527 1
ion O   0.555738060588920   0.778258045428743   0.941229174226102 1
ion O   0.444535321461104   0.889709847149038   0.691208949263486 1
ion O   0.887564469144287   0.111832630736399   0.441166589421608 1
ion O   0.777650767359064   0.223541353415963   0.191100279293488 1
ion O   0.888636119784294   0.112090660914701   0.941160000428851 1
ion O   0.777202562057307   0.223558262562246   0.691198533310232 1
ion O   0.887897664120659   0.445567429090775   0.441267751710109 1
ion O   0.777277022240144   0.556408280507145   0.191178188226823 1
ion O   0.889167102300069   0.445793863741542   0.940953950363137 1
ion O   0.777019650959694   0.556391651409164   0.691055741503242 1
ion O   0.888309424985964   0.778730463920020   0.441103873759026 1
ion O   0.777824630479671   0.889889443101468   0.191112018893090 1
ion O   0.888965228706942   0.778556845985771   0.941204421086267 1
ion O   0.777421589489385   0.889632531349794   0.691230195485930 1

# Forces in Lattice coordinates:
force Zn  -0.001049395031572   0.001158792669019   0.002598778309403 1
force Zn   0.001239947266068  -0.000552923806082  -0.000022692850266 1
force Zn   0.000903446333565   0.001112679219232   0.000490171116126 1
force Zn   0.002092427781962  -0.000346501818479  -0.000465074474598 1
force Zn   0.000016741323784  -0.003308367239213   0.002003326052267 1
force Zn  -0.000550420622910  -0.000448916867527   0.000191865505400 1
force Zn   0.000872706290431  -0.001976571478264   0.002521484105183 1
force Zn   0.001626937694066  -0.000344526076080   0.000248961749936 1
force Zn  -0.000079034042036  -0.000757428505736   0.000404357009177 1
force Zn   0.000983801383570  -0.002363334210568   0.002702711533701 1
force Zn  -0.001525092624999  -0.000019651870837  -0.001432666426843 1
force Zn  -0.001647020225770   0.002032696483818  -0.000476505294974 1
force Zn  -0.000534375053358  -0.000843050590722  -0.000860121955573 1
force Zn  -0.001963422899803   0.001787744486810   0.000404592904101 1
force Zn  -0.000461379125429   0.000982982623728  -0.000593231037006 1
force Zn  -0.000214516405781   0.002283400681393  -0.000805817013190 1
force Zn  -0.000092494144557  -0.000670745567865   0.000445735028514 1
force Zn  -0.001085448261195   0.001312116347987  -0.001005388233401 1
force Zn  -0.000117444507135   0.001739491651651   0.000985313240981 1
force Zn   0.002021056624344  -0.001019446534871   0.000468599090471 1
force Zn  -0.003380534527978   0.002530564544091  -0.000618789824751 1
force Zn  -0.002613127175550   0.002049666813175   0.002917410666572 1
force Zn  -0.001426220263923   0.001673501205384   0.001256030176956 1
force Zn  -0.001151580179759   0.002309139989455   0.000159112328369 1
force Zn   0.002703016830088  -0.001646537565749   0.000905999396685 1
force Zn  -0.001910267861028   0.000101570925651   0.002665259849149 1
force Zn   0.004443689970316  -0.000966280420668  -0.000016183846311 1
force Zn   0.000780227008471  -0.000661818946447   0.001194116285629 1
force Zn   0.001133762916194  -0.002227175300547  -0.001889138686676 1
force Zn  -0.002212557222499   0.002555060423509   0.001626533965755 1
force Zn  -0.000335410553430  -0.001708087081899  -0.008656268080065 1
force Zn   0.004849712296068  -0.003125344206235   0.001122580311902 1
force Zn   0.000450525315515   0.000739652561869   0.000610320487036 1
force Zn  -0.002818753323058   0.000989850739330   0.000555878323513 1
force Zn  -0.000831430515542   0.000672860454897  -0.000792538334515 1
force Zn   0.001719844769570  -0.000278568732954  -0.000600840304085 1
force O   0.000635464426282  -0.000881899488430   0.003182794226586 1
force O  -0.001642930917002   0.001376795735118  -0.001449904200122 1
force O   0.000265952103874  -0.000344247646204  -0.001458195076496 1
force O   0.002132009667424  -0.001046293780247  -0.000515462174621 1
force O   0.000999036330171   0.000856933559933   0.002281754237770 1
force O  -0.001171303295775   0.000608034231001   0.000929422974646 1
force O   0.000598786786359  -0.001038488091476  -0.001534444771718 1
force O   0.000690694299449  -0.001901267099333   0.001171016860853 1
force O  -0.000804688242646   0.001770057520648   0.001049630348121 1
force O  -0.001654811425590   0.000573224222824  -0.001255935815015 1
force O  -0.000954638826594   0.000187689069073  -0.000846843718460 1
force O  -0.001218451533834  -0.001637695206211  -0.000679202360467 1
force O   0.001389820443795  -0.002166405365146   0.000592526011303 1
force O  -0.000984940262166  -0.001529442837786   0.000351643659359 1
force O   0.001996440401103  -0.004014304131641  -0.000592118480874 1
force O   0.000183184206016   0.000245698142519   0.001651051826598 1
force O   0.001109916635236   0.002594819153929   0.004031416313633 1
force O  -0.003777295645572   0.006359984679280  -0.003357462921301 1
force O  -0.001344203771248   0.000548139990863  -0.000627530793078 1
force O   0.002114710469365   0.001513429966215   0.001839493351949 1
force O   0.001029414296096   0.001255740150133   0.002463384194417 1
force O  -0.005037379218980   0.003255722487173  -0.000036994501906 1
force O  -0.002368242289953   0.002558997056974  -0.002620789357537 1
force O  -0.001108114228377  -0.000911001593841  -0.000111841656797 1
force O   0.003799666615396  -0.002584186708121   0.001024494962138 1
force O   0.000058509194659  -0.000527946646989  -0.000141082054158 1
force O  -0.000451869226655  -0.001103541241243  -0.000530713626446 1
force O   0.002676852400807  -0.003420864810758   0.000064763353239 1
force O   0.003151581284569  -0.002783052555380  -0.000238697783679 1
force O   0.002759430408124   0.000041132514023  -0.001295934662281 1
force O  -0.000649226656550  -0.002196788676159   0.009102259293258 1
force O  -0.000388313672114   0.001366624806738   0.002121295468551 1
force O   0.000571607181491  -0.001987044514666   0.002108659788190 1
force O  -0.000362358134257  -0.000457220692117   0.000426868096633 1
force O  -0.000158691151056   0.001527804278838  -0.001425166290210 1
force O  -0.001566054980869   0.000805663974042  -0.000326476733691 1

# Energy components:
   Eewald =    -4574.9242452057851551
       EH =     3810.3603397565316300
     Eloc =    -8574.4461351584050135
      Enl =      346.4301873454901965
      Exc =     -882.6397455483485146
 Exc_core =        2.2641550807952759
       KE =      991.5777657220008905
-------------------------------------
     Etot =    -8881.3776780077223520
       TS =        0.0147247209544570
-------------------------------------
        F =    -8881.3924027286775527

IonicMinimize: Iter:  16  F: -8881.392402728677553  |grad|_K:  9.823e-05  alpha:  1.000e+00  linmin: -2.868e-01  t[s]:  37938.30
IonicMinimize: Converged (|grad|_K<1.000000e-04).

#--- Lowdin population analysis ---
# oxidation-state Zn +0.599 +0.599 +0.599 +0.599 +0.599 +0.599 +0.599 +0.599 +0.599 +0.599 +0.598 +0.599 +0.599 +0.599 +0.599 +0.599 +0.599 +0.599 +0.599 +0.599 +0.599 +0.599 +0.599 +0.599 +0.599 +0.599 +0.599 +0.599 +0.599 +0.599 +0.599 +0.599 +0.599 +0.599 +0.599 +0.599
# oxidation-state O -0.581 -0.581 -0.581 -0.581 -0.581 -0.581 -0.581 -0.581 -0.581 -0.581 -0.581 -0.581 -0.581 -0.581 -0.581 -0.581 -0.581 -0.581 -0.581 -0.581 -0.581 -0.581 -0.581 -0.581 -0.581 -0.581 -0.581 -0.581 -0.581 -0.581 -0.581 -0.581 -0.581 -0.581 -0.581 -0.581


Dumping '/data/rc652/ZnO/ion/ZnO_ion.Ecomponents' ... done
End date and time: Mon Jul 15 13:25:34 2024  (Duration: 0-10:32:38.83)
Done!
