--------------------------------------------------------------------------
[[37259,1],8]: A high-performance Open MPI point-to-point messaging module
was unable to find any relevant network interfaces:

Module: OpenFabrics (openib)
  Host: node3215

Another transport will be used instead, although this may result in
lower performance.
--------------------------------------------------------------------------

*************** JDFTx 1.7.0 (git hash 3664913) ***************

Start date and time: Sun Jun 16 19:57:14 2024
Executable jdftx with command-line: -i Co_ion.in
Running on hosts (process indices):  node3215.physics.cornell.edu (0-15)
Divided in process groups (process indices):  0 (0)  1 (1)  2 (2)  3 (3)  4 (4)  5 (5)  6 (6)  7 (7)  8 (8)  9 (9)  10 (10)  11 (11)  12 (12)  13 (13)  14 (14)  15 (15)
Resource initialization completed at t[s]:      0.00
Run totals: 16 processes, 32 threads, 0 GPUs


Input parsed successfully to the following command list (including defaults):

basis kpoint-dependent
coords-type Lattice
core-overlap-check vector
coulomb-interaction Periodic
davidson-band-ratio 1.1
dump End Ecomponents
dump-name $INPUT.$VAR
elec-cutoff 20 100
elec-eigen-algo Davidson
elec-ex-corr gga-PBEsol
elec-smearing Fermi 0.01
electronic-minimize  \
	dirUpdateScheme      FletcherReeves \
	linminMethod         DirUpdateRecommended \
	nIterations          100 \
	history              15 \
	knormThreshold       0 \
	maxThreshold         no \
	energyDiffThreshold  1e-08 \
	nEnergyDiff          2 \
	alphaTstart          1 \
	alphaTmin            1e-10 \
	updateTestStepSize   yes \
	alphaTreduceFactor   0.1 \
	alphaTincreaseFactor 3 \
	nAlphaAdjustMax      3 \
	wolfeEnergy          0.0001 \
	wolfeGradient        0.9 \
	fdTest               no
electronic-scf  \
	nIterations	50 \
	energyDiffThreshold	1e-08 \
	residualThreshold	1e-07 \
	mixFraction	0.5 \
	qMetric	0.8 \
	history	10 \
	nEigSteps	2 \
	eigDiffThreshold	1e-08 \
	mixedVariable	Density \
	qKerker	0.8 \
	qKappa	-1 \
	verbose	no \
	mixFractionMag	1.5
exchange-regularization WignerSeitzTruncated
fluid None
fluid-ex-corr lda-TF lda-PZ
fluid-gummel-loop 10 1.000000e-05
fluid-minimize  \
	dirUpdateScheme      PolakRibiere \
	linminMethod         DirUpdateRecommended \
	nIterations          100 \
	history              15 \
	knormThreshold       0 \
	maxThreshold         no \
	energyDiffThreshold  0 \
	nEnergyDiff          2 \
	alphaTstart          1 \
	alphaTmin            1e-10 \
	updateTestStepSize   yes \
	alphaTreduceFactor   0.1 \
	alphaTincreaseFactor 3 \
	nAlphaAdjustMax      3 \
	wolfeEnergy          0.0001 \
	wolfeGradient        0.9 \
	fdTest               no
fluid-solvent H2O 55.338 ScalarEOS \
	epsBulk 78.4 \
	pMol 0.92466 \
	epsInf 1.77 \
	Pvap 1.06736e-10 \
	sigmaBulk 4.62e-05 \
	Rvdw 2.61727 \
	Res 1.42 \
	tauNuc 343133 \
	poleEl 15 7 1
forces-output-coords Positions
ion Co  -0.000000000000000  -0.000000000000000  -0.000000000000000 0
ion Co   0.009510000000000   0.254700000000000   0.258030000000000 1
ion Co   0.257030000000000  -0.007030000000000   0.256020000000000 1
ion Co   0.262270000000000   0.250370000000000   0.009270000000000 1
ion Co   0.019660000000000  -0.011190000000000   0.506060000000000 1
ion Co  -0.002110000000000   0.249180000000000   0.740950000000000 1
ion Co   0.261600000000000   0.003040000000000   0.743700000000000 1
ion Co   0.251440000000000   0.235770000000000   0.492030000000000 1
ion Co   0.018740000000000   0.497500000000000   0.002630000000000 1
ion Co  -0.005220000000000   0.758980000000000   0.247900000000000 1
ion Co   0.253270000000000   0.503550000000000   0.228490000000000 1
ion Co   0.250660000000000   0.767500000000000  -0.013290000000000 1
ion Co   0.003900000000000   0.498810000000000   0.496990000000000 1
ion Co  -0.015780000000000   0.758850000000000   0.767870000000000 1
ion Co   0.244710000000000   0.487920000000000   0.763040000000000 1
ion Co   0.256090000000000   0.750360000000000   0.514910000000000 1
ion Co   0.494220000000000   0.013930000000000   0.000390000000000 1
ion Co   0.505280000000000   0.252500000000000   0.259650000000000 1
ion Co   0.749660000000000  -0.012140000000000   0.257780000000000 1
ion Co   0.757820000000000   0.263820000000000  -0.004430000000000 1
ion Co   0.490770000000000  -0.003920000000000   0.486480000000000 1
ion Co   0.494500000000000   0.270000000000000   0.758860000000000 1
ion Co   0.751430000000000  -0.005650000000000   0.761420000000000 1
ion Co   0.749620000000000   0.243930000000000   0.495180000000000 1
ion Co   0.499590000000000   0.498830000000000   0.024680000000000 1
ion Co   0.504080000000000   0.733640000000000   0.259640000000000 1
ion Co   0.755420000000000   0.495410000000000   0.249930000000000 1
ion Co   0.736350000000000   0.739660000000000  -0.010470000000000 1
ion Co   0.499310000000000   0.485250000000000   0.508600000000000 1
ion Co   0.502450000000000   0.741490000000000   0.753960000000000 1
ion Co   0.744420000000000   0.493230000000000   0.737490000000000 1
ion Co   0.739000000000000   0.764100000000000   0.493650000000000 1
ion-species GBRV/$ID_pbesol.uspp
ion-width 0
ionic-minimize  \
	dirUpdateScheme      L-BFGS \
	linminMethod         DirUpdateRecommended \
	nIterations          30 \
	history              15 \
	knormThreshold       0.0001 \
	maxThreshold         no \
	energyDiffThreshold  1e-06 \
	nEnergyDiff          2 \
	alphaTstart          1 \
	alphaTmin            1e-10 \
	updateTestStepSize   yes \
	alphaTreduceFactor   0.1 \
	alphaTincreaseFactor 3 \
	nAlphaAdjustMax      3 \
	wolfeEnergy          0.0001 \
	wolfeGradient        0.9 \
	fdTest               no
kpoint   0.000000000000   0.000000000000   0.000000000000  1.00000000000000
kpoint-folding 4 4 4 
latt-move-scale 1 1 1
latt-scale 1 1 1 
lattice  \
	  12.935042626558744    0.000000000000000    0.000000000000000  \
	   0.000000000000000   12.935042626558744    0.000000000000000  \
	   0.000000000000000    0.000000000000000   12.935042626558744 
lattice-minimize  \
	dirUpdateScheme      L-BFGS \
	linminMethod         DirUpdateRecommended \
	nIterations          0 \
	history              15 \
	knormThreshold       0 \
	maxThreshold         no \
	energyDiffThreshold  1e-06 \
	nEnergyDiff          2 \
	alphaTstart          1 \
	alphaTmin            1e-10 \
	updateTestStepSize   yes \
	alphaTreduceFactor   0.1 \
	alphaTincreaseFactor 3 \
	nAlphaAdjustMax      3 \
	wolfeEnergy          0.0001 \
	wolfeGradient        0.9 \
	fdTest               no
lcao-params -1 1e-06 0.01
pcm-variant GLSSA13
perturb-minimize  \
	nIterations            0 \
	algorithm              MINRES \
	residualTol            0.0001 \
	residualDiffThreshold  0.0001 \
	CGBypass               no \
	recomputeResidual      no
spintype no-spin
subspace-rotation-factor 1 yes
symmetries automatic
symmetry-threshold 0.0001



---------- Setting up symmetries ----------

Found 48 point-group symmetries of the bravais lattice
Found 1 space-group symmetries with basis
Applied RMS atom displacement 0 bohrs to make symmetries exact.

---------- Initializing the Grid ----------
R = 
[       12.935            0            0  ]
[            0       12.935            0  ]
[            0            0       12.935  ]
unit cell volume = 2164.23
G =
[   0.485749          0          0  ]
[          0   0.485749          0  ]
[          0          0   0.485749  ]
Minimum fftbox size, Smin = [  60  60  60  ]
Chosen fftbox size, S = [  60  60  60  ]

---------- Initializing tighter grid for wavefunction operations ----------
R = 
[       12.935            0            0  ]
[            0       12.935            0  ]
[            0            0       12.935  ]
unit cell volume = 2164.23
G =
[   0.485749          0          0  ]
[          0   0.485749          0  ]
[          0          0   0.485749  ]
Minimum fftbox size, Smin = [  56  56  56  ]
Chosen fftbox size, S = [  56  56  56  ]

---------- Exchange Correlation functional ----------
Initalized PBEsol GGA exchange.
Initalized PBEsol GGA correlation.

---------- Setting up pseudopotentials ----------
Width of ionic core gaussian charges (only for fluid interactions / plotting) set to 0

Reading pseudopotential file '/home/rc652/build/pseudopotentials/GBRV/co_pbesol.uspp':
  Title: Co.  Created by USPP 7.3.6 on 3-2-2014
  Reference state energy: -148.473209.  17 valence electrons in orbitals:
    |300>  occupation: 2  eigenvalue: -4.077719
    |310>  occupation: 6  eigenvalue: -2.732332
    |320>  occupation: 7  eigenvalue: -0.624325
    |400>  occupation: 1  eigenvalue: -0.468864
    |410>  occupation: 0  eigenvalue: -0.272586
  lMax: 2  lLocal: 3  QijEcut: 6
  6 projectors sampled on a log grid with 609 points:
    l: 0  eig: -4.077719  rCut: 1.5
    l: 0  eig: -0.468864  rCut: 1.5
    l: 1  eig: -2.732332  rCut: 1.5
    l: 1  eig: -0.272586  rCut: 1.5
    l: 2  eig: -0.624325  rCut: 1.55
    l: 2  eig: -1.000000  rCut: 1.55
  Partial core density with radius 0.65
  Transforming core density to a uniform radial grid of dG=0.02 with 1268 points.
  Transforming local potential to a uniform radial grid of dG=0.02 with 1268 points.
  Transforming nonlocal projectors to a uniform radial grid of dG=0.02 with 432 points.
  Transforming density augmentations to a uniform radial grid of dG=0.02 with 1268 points.
  Transforming atomic orbitals to a uniform radial grid of dG=0.02 with 432 points.
  Core radius for overlap checks: 1.55 bohrs.

Initialized 1 species with 32 total atoms.

Folded 1 k-points by 4x4x4 to 64 k-points.

---------- Setting up k-points, bands, fillings ----------
Adding inversion symmetry to k-mesh for non-inversion-symmetric unit cell.
Reduced to 36 k-points under symmetry. 
Computing the number of bands and number of electrons
Calculating initial fillings.
nElectrons: 544.000000   nBands: 416   nStates: 36

----- Setting up reduced wavefunction bases (one per k-point) -----
average nbasis = 9243.766 , ideal nbasis = 9245.759

---------- Setting up ewald sum ----------
Optimum gaussian width for ewald sums = 2.896140 bohr.
Real space sum over 729 unit cells with max indices [  4  4  4  ]
Reciprocal space sum over 4913 terms with max indices [  8  8  8  ]

---------- Allocating electronic variables ----------
Initializing wave functions:  linear combination of atomic orbitals
Co pseudo-atom occupations:   s ( 2 0 )  p ( 6 0 )  d ( 9 )
	FillingsUpdate:  mu: +0.002729556  nElectrons: 544.000000
LCAOMinimize: Iter:   0  F: -4700.5070428670023830  |grad|_K:  6.316e-03  alpha:  1.000e+00
	FillingsUpdate:  mu: +1.005911001  nElectrons: 544.000000
LCAOMinimize: Iter:   1  F: -4734.5042650797740862  |grad|_K:  1.512e-02  alpha:  3.917e-01  linmin:  3.605e-02  cgtest: -7.876e-02  t[s]:     93.21
LCAOMinimize: 	Step increased F by 7.828601e+01, reducing alpha to 1.445398e-02.
	FillingsUpdate:  mu: +1.084699846  nElectrons: 544.000000
LCAOMinimize: Iter:   2  F: -4742.4418846186772498  |grad|_K:  1.177e-02  alpha:  1.445e-02  linmin: -1.616e-02  cgtest:  8.587e-01  t[s]:    147.12
LCAOMinimize: Encountered beta<0, resetting CG.
	FillingsUpdate:  mu: +0.989504681  nElectrons: 544.000000
LCAOMinimize: Iter:   3  F: -4751.9528232672200829  |grad|_K:  3.439e-03  alpha:  2.261e-02  linmin:  6.130e-02  cgtest: -3.555e-01  t[s]:    178.13
	FillingsUpdate:  mu: +0.946788936  nElectrons: 544.000000
LCAOMinimize: Iter:   4  F: -4752.7410783344766969  |grad|_K:  2.503e-03  alpha:  2.374e-02  linmin:  1.219e-02  cgtest:  5.121e-01  t[s]:    209.41
	FillingsUpdate:  mu: +0.918397640  nElectrons: 544.000000
LCAOMinimize: Iter:   5  F: -4753.2846018000082040  |grad|_K:  1.596e-03  alpha:  2.812e-02  linmin:  1.642e-02  cgtest: -6.465e-02  t[s]:    240.55
	FillingsUpdate:  mu: +0.886693297  nElectrons: 544.000000
LCAOMinimize: Iter:   6  F: -4753.8310098181200374  |grad|_K:  2.009e-03  alpha:  7.199e-02  linmin:  4.755e-03  cgtest:  1.399e-01  t[s]:    271.78
	FillingsUpdate:  mu: +0.822771033  nElectrons: 544.000000
LCAOMinimize: Iter:   7  F: -4754.4644254746544902  |grad|_K:  1.427e-03  alpha:  5.355e-02  linmin: -3.929e-03  cgtest:  2.481e-02  t[s]:    303.51
	FillingsUpdate:  mu: +0.786170132  nElectrons: 544.000000
LCAOMinimize: Iter:   8  F: -4754.6229182163933729  |grad|_K:  3.303e-04  alpha:  2.443e-02  linmin:  1.409e-03  cgtest: -1.428e-01  t[s]:    334.21
	FillingsUpdate:  mu: +0.782393877  nElectrons: 544.000000
LCAOMinimize: Iter:   9  F: -4754.6342246077811069  |grad|_K:  1.602e-04  alpha:  3.331e-02  linmin:  5.893e-03  cgtest:  6.212e-03  t[s]:    365.98
	FillingsUpdate:  mu: +0.780819703  nElectrons: 544.000000
LCAOMinimize: Iter:  10  F: -4754.6366607212821691  |grad|_K:  1.088e-04  alpha:  3.063e-02  linmin: -1.289e-04  cgtest:  1.706e-02  t[s]:    396.78
	FillingsUpdate:  mu: +0.778294293  nElectrons: 544.000000
LCAOMinimize: Iter:  11  F: -4754.6390398658222693  |grad|_K:  1.075e-04  alpha:  6.408e-02  linmin: -4.594e-04  cgtest: -8.824e-03  t[s]:    427.45
	FillingsUpdate:  mu: +0.775645261  nElectrons: 544.000000
LCAOMinimize: Iter:  12  F: -4754.6407889274796617  |grad|_K:  9.158e-05  alpha:  4.828e-02  linmin: -9.058e-05  cgtest: -6.351e-03  t[s]:    458.88
	FillingsUpdate:  mu: +0.774018827  nElectrons: 544.000000
LCAOMinimize: Iter:  13  F: -4754.6416966591496021  |grad|_K:  3.900e-05  alpha:  3.455e-02  linmin:  4.984e-05  cgtest: -1.825e-03  t[s]:    490.09
	FillingsUpdate:  mu: +0.773685305  nElectrons: 544.000000
LCAOMinimize: Iter:  14  F: -4754.6418524571136004  |grad|_K:  2.460e-05  alpha:  3.272e-02  linmin:  2.598e-04  cgtest: -8.094e-04  t[s]:    521.04
	FillingsUpdate:  mu: +0.773502580  nElectrons: 544.000000
LCAOMinimize: Iter:  15  F: -4754.6419276316828473  |grad|_K:  1.945e-05  alpha:  3.972e-02  linmin:  4.792e-06  cgtest:  5.330e-04  t[s]:    551.96
	FillingsUpdate:  mu: +0.773244897  nElectrons: 544.000000
LCAOMinimize: Iter:  16  F: -4754.6420415524207783  |grad|_K:  2.856e-05  alpha:  9.619e-02  linmin:  3.110e-05  cgtest: -5.503e-04  t[s]:    582.58
	FillingsUpdate:  mu: +0.772998586  nElectrons: 544.000000
LCAOMinimize: Iter:  17  F: -4754.6421533342127077  |grad|_K:  2.170e-05  alpha:  4.377e-02  linmin: -4.290e-05  cgtest:  1.380e-03  t[s]:    613.85
	FillingsUpdate:  mu: +0.772907411  nElectrons: 544.000000
LCAOMinimize: Iter:  18  F: -4754.6422169416746328  |grad|_K:  1.201e-05  alpha:  4.316e-02  linmin:  6.273e-05  cgtest: -1.648e-03  t[s]:    645.13
	FillingsUpdate:  mu: +0.772944591  nElectrons: 544.000000
LCAOMinimize: Iter:  19  F: -4754.6422320702704383  |grad|_K:  9.472e-06  alpha:  3.352e-02  linmin:  6.381e-06  cgtest:  9.221e-04  t[s]:    676.46
	FillingsUpdate:  mu: +0.773089797  nElectrons: 544.000000
LCAOMinimize: Iter:  20  F: -4754.6422511337405012  |grad|_K:  9.814e-06  alpha:  6.789e-02  linmin:  2.039e-05  cgtest: -8.557e-05  t[s]:    708.39
	FillingsUpdate:  mu: +0.773283353  nElectrons: 544.000000
LCAOMinimize: Iter:  21  F: -4754.6422691755024061  |grad|_K:  9.826e-06  alpha:  5.985e-02  linmin:  1.319e-05  cgtest:  3.564e-04  t[s]:    739.81
	FillingsUpdate:  mu: +0.773404781  nElectrons: 544.000000
LCAOMinimize: Iter:  22  F: -4754.6422787800674996  |grad|_K:  4.307e-06  alpha:  3.178e-02  linmin: -2.231e-05  cgtest:  7.706e-04  t[s]:    770.70
	FillingsUpdate:  mu: +0.773438625  nElectrons: 544.000000
LCAOMinimize: Iter:  23  F: -4754.6422809408741159  |grad|_K:  2.704e-06  alpha:  3.721e-02  linmin:  7.736e-05  cgtest: -8.714e-04  t[s]:    801.81
	FillingsUpdate:  mu: +0.773452695  nElectrons: 544.000000
LCAOMinimize: Iter:  24  F: -4754.6422817985921938  |grad|_K:  2.305e-06  alpha:  3.748e-02  linmin: -7.008e-05  cgtest:  1.221e-03  t[s]:    832.56
	FillingsUpdate:  mu: +0.773478243  nElectrons: 544.000000
LCAOMinimize: Iter:  25  F: -4754.6422832398247920  |grad|_K:  2.785e-06  alpha:  8.668e-02  linmin:  6.354e-05  cgtest: -1.930e-03  t[s]:    863.26
	FillingsUpdate:  mu: +0.773496100  nElectrons: 544.000000
LCAOMinimize: Iter:  26  F: -4754.6422843505151832  |grad|_K:  2.267e-06  alpha:  4.579e-02  linmin: -1.569e-05  cgtest:  2.108e-03  t[s]:    895.10
	FillingsUpdate:  mu: +0.773499909  nElectrons: 544.000000
LCAOMinimize: Iter:  27  F: -4754.6422848909796812  |grad|_K:  1.015e-06  alpha:  3.354e-02  linmin: -7.289e-05  cgtest: -5.115e-04  t[s]:    927.42
	FillingsUpdate:  mu: +0.773495586  nElectrons: 544.000000
LCAOMinimize: Iter:  28  F: -4754.6422850176641077  |grad|_K:  8.150e-07  alpha:  3.911e-02  linmin: -1.389e-03  cgtest:  7.377e-03  t[s]:    958.43
LCAOMinimize: Converged (|Delta F|<1.000000e-06 for 2 iters).


---- Citations for features of the code used in this run ----

   Software package:
      R. Sundararaman, K. Letchworth-Weaver, K.A. Schwarz, D. Gunceler, Y. Ozhabes and T.A. Arias, 'JDFTx: software for joint density-functional theory', SoftwareX 6, 278 (2017)

   gga-PBEsol exchange-correlation functional:
      J.P. Perdew et al., Phys. Rev. Lett. 100, 136406 (2008)

   Pseudopotentials:
      KF Garrity, JW Bennett, KM Rabe and D Vanderbilt, Comput. Mater. Sci. 81, 446 (2014)

This list may not be complete. Please suggest additional citations or
report any other bugs at https://github.com/shankar1729/jdftx/issues

Initialization completed successfully at t[s]:    971.87


-------- Electronic minimization -----------
Will mix electronic density at each iteration.
	FillingsUpdate:  mu: +0.773495586  nElectrons: 544.000000
	FillingsUpdate:  mu: +0.772309645  nElectrons: 544.000000
SCF: Cycle:  0   F: -4754.662385176861790   dF: -2.010e-02   |Residual|: 9.814e-01   |deigs|: 6.303e-02  t[s]:   1108.69
	FillingsUpdate:  mu: +0.708734398  nElectrons: 544.000000
SCF: Cycle:  1   F: -4754.883811624351438   dF: -2.214e-01   |Residual|: 8.243e-01   |deigs|: 5.527e-02  t[s]:   1223.53
	FillingsUpdate:  mu: +0.737917041  nElectrons: 544.000000
SCF: Cycle:  2   F: -4755.010166480692533   dF: -1.264e-01   |Residual|: 3.876e-01   |deigs|: 2.534e-02  t[s]:   1338.02
	FillingsUpdate:  mu: +0.737900444  nElectrons: 544.000000
SCF: Cycle:  3   F: -4755.479452436732572   dF: -4.693e-01   |Residual|: 3.704e-02   |deigs|: 8.592e-04  t[s]:   1457.33
	FillingsUpdate:  mu: +0.737554876  nElectrons: 544.000000
SCF: Cycle:  4   F: -4755.383129661012390   dF: +9.632e-02   |Residual|: 2.000e-01   |deigs|: 5.862e-04  t[s]:   1526.15
	FillingsUpdate:  mu: +0.737219991  nElectrons: 544.000000
SCF: Cycle:  5   F: -4755.480607855507515   dF: -9.748e-02   |Residual|: 2.648e-02   |deigs|: 5.702e-04  t[s]:   1592.40
	FillingsUpdate:  mu: +0.737270993  nElectrons: 544.000000
SCF: Cycle:  6   F: -4755.479835906269727   dF: +7.719e-04   |Residual|: 3.146e-02   |deigs|: 9.988e-05  t[s]:   1665.84
	FillingsUpdate:  mu: +0.737564515  nElectrons: 544.000000
SCF: Cycle:  7   F: -4755.480908707224444   dF: -1.073e-03   |Residual|: 2.134e-02   |deigs|: 2.666e-04  t[s]:   1737.18
	FillingsUpdate:  mu: +0.737577910  nElectrons: 544.000000
SCF: Cycle:  8   F: -4755.482173262991637   dF: -1.265e-03   |Residual|: 3.348e-03   |deigs|: 3.364e-05  t[s]:   1807.51
	FillingsUpdate:  mu: +0.737556577  nElectrons: 544.000000
SCF: Cycle:  9   F: -4755.482072389696441   dF: +1.009e-04   |Residual|: 7.080e-03   |deigs|: 2.228e-05  t[s]:   1879.60
	FillingsUpdate:  mu: +0.737507644  nElectrons: 544.000000
SCF: Cycle: 10   F: -4755.482185471195407   dF: -1.131e-04   |Residual|: 2.133e-03   |deigs|: 4.386e-05  t[s]:   1950.90
	FillingsUpdate:  mu: +0.737520708  nElectrons: 544.000000
SCF: Cycle: 11   F: -4755.482193085162180   dF: -7.614e-06   |Residual|: 1.250e-03   |deigs|: 1.190e-05  t[s]:   2021.77
	FillingsUpdate:  mu: +0.737520006  nElectrons: 544.000000
SCF: Cycle: 12   F: -4755.482187770755445   dF: +5.314e-06   |Residual|: 1.779e-03   |deigs|: 3.577e-06  t[s]:   2093.98
	FillingsUpdate:  mu: +0.737519188  nElectrons: 544.000000
SCF: Cycle: 13   F: -4755.482193051317154   dF: -5.281e-06   |Residual|: 1.106e-03   |deigs|: 3.908e-06  t[s]:   2166.28
	FillingsUpdate:  mu: +0.737520383  nElectrons: 544.000000
SCF: Cycle: 14   F: -4755.482196092009872   dF: -3.041e-06   |Residual|: 5.708e-04   |deigs|: 2.756e-06  t[s]:   2237.84
	FillingsUpdate:  mu: +0.737519703  nElectrons: 544.000000
SCF: Cycle: 15   F: -4755.482174122445031   dF: +2.197e-05   |Residual|: 2.832e-03   |deigs|: 4.439e-06  t[s]:   2311.70
	FillingsUpdate:  mu: +0.737521412  nElectrons: 544.000000
SCF: Cycle: 16   F: -4755.482196428718453   dF: -2.231e-05   |Residual|: 4.322e-04   |deigs|: 4.553e-06  t[s]:   2383.42
	FillingsUpdate:  mu: +0.737520356  nElectrons: 544.000000
SCF: Cycle: 17   F: -4755.482196549090986   dF: -1.204e-07   |Residual|: 3.250e-04   |deigs|: 1.185e-06  t[s]:   2428.00
	FillingsUpdate:  mu: +0.737519961  nElectrons: 544.000000
SCF: Cycle: 18   F: -4755.482196701516841   dF: -1.524e-07   |Residual|: 2.388e-04   |deigs|: 7.884e-07  t[s]:   2501.23
	FillingsUpdate:  mu: +0.737518683  nElectrons: 544.000000
SCF: Cycle: 19   F: -4755.482196671327074   dF: +3.019e-08   |Residual|: 2.429e-04   |deigs|: 1.266e-06  t[s]:   2568.97
	FillingsUpdate:  mu: +0.737519064  nElectrons: 544.000000
SCF: Cycle: 20   F: -4755.482196721584842   dF: -5.026e-08   |Residual|: 2.122e-04   |deigs|: 7.157e-07  t[s]:   2640.60
	FillingsUpdate:  mu: +0.737520464  nElectrons: 544.000000
SCF: Cycle: 21   F: -4755.482196660130285   dF: +6.145e-08   |Residual|: 2.772e-04   |deigs|: 1.306e-06  t[s]:   2708.37
	FillingsUpdate:  mu: +0.737520146  nElectrons: 544.000000
SCF: Cycle: 22   F: -4755.482196703514091   dF: -4.338e-08   |Residual|: 2.362e-04   |deigs|: 5.971e-07  t[s]:   2779.61
	FillingsUpdate:  mu: +0.737520308  nElectrons: 544.000000
SCF: Cycle: 23   F: -4755.482196847764499   dF: -1.443e-07   |Residual|: 2.928e-05   |deigs|: 3.539e-07  t[s]:   2851.75
	FillingsUpdate:  mu: +0.737520034  nElectrons: 544.000000
SCF: Cycle: 24   F: -4755.482196824703351   dF: +2.306e-08   |Residual|: 9.145e-05   |deigs|: 3.028e-07  t[s]:   2911.45
	FillingsUpdate:  mu: +0.737519934  nElectrons: 544.000000
SCF: Cycle: 25   F: -4755.482196848330204   dF: -2.363e-08   |Residual|: 1.560e-05   |deigs|: 1.871e-07  t[s]:   2983.03
	FillingsUpdate:  mu: +0.737520014  nElectrons: 544.000000
SCF: Cycle: 26   F: -4755.482196842951453   dF: +5.379e-09   |Residual|: 4.529e-05   |deigs|: 1.314e-07  t[s]:   3035.55
	FillingsUpdate:  mu: +0.737519937  nElectrons: 544.000000
SCF: Cycle: 27   F: -4755.482196845977342   dF: -3.026e-09   |Residual|: 3.458e-05   |deigs|: 1.365e-07  t[s]:   3092.52
	FillingsUpdate:  mu: +0.737519995  nElectrons: 544.000000
SCF: Cycle: 28   F: -4755.482196848414787   dF: -2.437e-09   |Residual|: 1.528e-05   |deigs|: 7.092e-08  t[s]:   3134.59
SCF: Converged (|Delta E|<1.000000e-08 for 2 iters).

Setting wave functions to eigenvectors of Hamiltonian

# Ionic positions in lattice coordinates:
ion Co   0.000000000000000   0.000000000000000   0.000000000000000 0
ion Co   0.009510000000000   0.254700000000000   0.258030000000000 1
ion Co   0.257030000000000  -0.007030000000000   0.256020000000000 1
ion Co   0.262270000000000   0.250370000000000   0.009270000000000 1
ion Co   0.019660000000000  -0.011190000000000   0.506060000000000 1
ion Co  -0.002110000000000   0.249180000000000   0.740950000000000 1
ion Co   0.261600000000000   0.003040000000000   0.743700000000000 1
ion Co   0.251440000000000   0.235770000000000   0.492030000000000 1
ion Co   0.018740000000000   0.497500000000000   0.002630000000000 1
ion Co  -0.005220000000000   0.758980000000000   0.247900000000000 1
ion Co   0.253270000000000   0.503550000000000   0.228490000000000 1
ion Co   0.250660000000000   0.767500000000000  -0.013290000000000 1
ion Co   0.003900000000000   0.498810000000000   0.496990000000000 1
ion Co  -0.015780000000000   0.758850000000000   0.767870000000000 1
ion Co   0.244710000000000   0.487920000000000   0.763040000000000 1
ion Co   0.256090000000000   0.750360000000000   0.514910000000000 1
ion Co   0.494220000000000   0.013930000000000   0.000390000000000 1
ion Co   0.505280000000000   0.252500000000000   0.259650000000000 1
ion Co   0.749660000000000  -0.012140000000000   0.257780000000000 1
ion Co   0.757820000000000   0.263820000000000  -0.004430000000000 1
ion Co   0.490770000000000  -0.003920000000000   0.486480000000000 1
ion Co   0.494500000000000   0.270000000000000   0.758860000000000 1
ion Co   0.751430000000000  -0.005650000000000   0.761420000000000 1
ion Co   0.749620000000000   0.243930000000000   0.495180000000000 1
ion Co   0.499590000000000   0.498830000000000   0.024680000000000 1
ion Co   0.504080000000000   0.733640000000000   0.259640000000000 1
ion Co   0.755420000000000   0.495410000000000   0.249930000000000 1
ion Co   0.736350000000000   0.739660000000000  -0.010470000000000 1
ion Co   0.499310000000000   0.485250000000000   0.508600000000000 1
ion Co   0.502450000000000   0.741490000000000   0.753960000000000 1
ion Co   0.744420000000000   0.493230000000000   0.737490000000000 1
ion Co   0.739000000000000   0.764100000000000   0.493650000000000 1

# Forces in Lattice coordinates:
force Co  -0.030505726509609   0.158916673137492   0.073797341594289 0
force Co  -0.135718385732441  -0.174769316792843  -0.135250128687141 1
force Co  -0.141099447295561  -0.028337058755654  -0.214361252779705 1
force Co  -0.259603860078526  -0.150245518597524  -0.070012247641978 1
force Co  -0.418780065789521   0.069678173514609  -0.058139546094363 1
force Co   0.056497311759452  -0.043680430963548   0.119228576737642 1
force Co  -0.086263848046863   0.048758637505748   0.167052152705443 1
force Co  -0.001825021078800   0.371740983964208   0.157856834067047 1
force Co  -0.439404642238730   0.070827018766294  -0.055666771502635 1
force Co   0.155516100704382  -0.195493280065284   0.007542310967422 1
force Co  -0.148523173890721   0.060100903971548   0.590429017815479 1
force Co   0.028369271405465  -0.232074943855762   0.206004601640685 1
force Co  -0.003797787543842   0.117881198029888   0.090146670518587 1
force Co   0.272834269139646  -0.243469895887507  -0.325841378603142 1
force Co   0.062802897694621   0.241479192935872  -0.250333974422595 1
force Co  -0.123641507413215  -0.266500498001943  -0.158859944980488 1
force Co   0.283276451907931  -0.234071644726621   0.032759763419001 1
force Co  -0.019701810151694  -0.111858779993912  -0.160155449344109 1
force Co   0.022172210028559   0.294386720916029  -0.285832360272786 1
force Co  -0.035904296372076  -0.174794212821125   0.089541708334355 1
force Co   0.279713817142156   0.055389163648794   0.319721892141946 1
force Co   0.142573581529393  -0.432524487630127  -0.043349580762916 1
force Co  -0.164238568890023   0.225410935201585  -0.166507978450129 1
force Co   0.093053238164988  -0.053204167078648   0.129648669104480 1
force Co   0.129042132007167   0.014992843924827  -0.522617506184936 1
force Co  -0.141862382559797   0.274315043648864  -0.099505871420412 1
force Co   0.059903865229592   0.080179961033783   0.107298393876942 1
force Co   0.175436592235990   0.088086072464682   0.324122827347803 1
force Co  -0.061835197772796   0.249008033879537  -0.191582725390345 1
force Co  -0.084534748709261   0.088065693191327  -0.080550816352823 1
force Co   0.240709026673341   0.138656558497499   0.138906738849743 1
force Co   0.259740035206657  -0.310687825184680   0.280543307994675 1

# Energy components:
   Eewald =    -3267.6423500456912734
       EH =     1366.8994884596429529
     Eloc =    -3856.8819141372309787
      Enl =      822.2918097508525079
      Exc =     -517.4090840673092089
 Exc_core =       16.8672978708200176
       KE =      680.9457736727761130
-------------------------------------
     Etot =    -4754.9289784961392797
       TS =        0.5532183522753944
-------------------------------------
        F =    -4755.4821968484147874

IonicMinimize: Iter:   0  F: -4755.482196848414787  |grad|_K:  1.563e-02  t[s]:   3146.81

#--- Lowdin population analysis ---
# oxidation-state Co +0.022 +0.021 +0.012 +0.009 +0.016 +0.020 +0.013 +0.012 +0.016 +0.024 +0.018 +0.018 +0.031 +0.020 +0.019 +0.024 +0.024 +0.008 +0.025 +0.025 +0.012 +0.018 +0.024 +0.021 +0.005 +0.015 +0.014 +0.019 +0.016 +0.017 +0.016 +0.019


-------- Electronic minimization -----------
Will mix electronic density at each iteration.
	FillingsUpdate:  mu: +0.737519995  nElectrons: 544.000000
	FillingsUpdate:  mu: +0.740104484  nElectrons: 544.000000
SCF: Cycle:  0   F: -4736.137604306494723   dF: +1.860e+01   |Residual|: 2.217e+00   |deigs|: 1.796e-03  t[s]:   3304.62
	FillingsUpdate:  mu: +0.839702549  nElectrons: 544.000000
SCF: Cycle:  1   F: -4576.649478988726514   dF: +1.595e+02   |Residual|: 8.245e+00   |deigs|: 1.632e-01  t[s]:   3421.78
	FillingsUpdate:  mu: +0.768804849  nElectrons: 544.000000
SCF: Cycle:  2   F: -4694.800812584685445   dF: -1.182e+02   |Residual|: 5.239e+00   |deigs|: 1.107e-01  t[s]:   3540.12
	FillingsUpdate:  mu: +0.748016272  nElectrons: 544.000000
SCF: Cycle:  3   F: -4733.796339089614776   dF: -3.900e+01   |Residual|: 2.860e+00   |deigs|: 3.404e-02  t[s]:   3653.44
	FillingsUpdate:  mu: +0.743963550  nElectrons: 544.000000
SCF: Cycle:  4   F: -4735.263830926419359   dF: -1.467e+00   |Residual|: 2.687e+00   |deigs|: 1.428e-02  t[s]:   3773.18
	FillingsUpdate:  mu: +0.740209223  nElectrons: 544.000000
SCF: Cycle:  5   F: -4748.563990270179602   dF: -1.330e+01   |Residual|: 1.566e+00   |deigs|: 1.594e-02  t[s]:   3900.10
	FillingsUpdate:  mu: +0.741216427  nElectrons: 544.000000
SCF: Cycle:  6   F: -4744.764322046790767   dF: +3.800e+00   |Residual|: 1.906e+00   |deigs|: 4.274e-03  t[s]:   4024.13
	FillingsUpdate:  mu: +0.742476074  nElectrons: 544.000000
SCF: Cycle:  7   F: -4731.177747535365597   dF: +1.359e+01   |Residual|: 2.821e+00   |deigs|: 6.521e-03  t[s]:   4145.80
	FillingsUpdate:  mu: +0.738292566  nElectrons: 544.000000
SCF: Cycle:  8   F: -4753.578967580041535   dF: -2.240e+01   |Residual|: 8.799e-01   |deigs|: 1.156e-02  t[s]:   4256.45
	FillingsUpdate:  mu: +0.737364987  nElectrons: 544.000000
SCF: Cycle:  9   F: -4754.343152510265099   dF: -7.642e-01   |Residual|: 5.973e-01   |deigs|: 2.380e-03  t[s]:   4373.92
	FillingsUpdate:  mu: +0.737236513  nElectrons: 544.000000
SCF: Cycle: 10   F: -4754.304381095348617   dF: +3.877e-02   |Residual|: 5.996e-01   |deigs|: 8.394e-04  t[s]:   4449.24
	FillingsUpdate:  mu: +0.737179033  nElectrons: 544.000000
SCF: Cycle: 11   F: -4754.581822268591168   dF: -2.774e-01   |Residual|: 5.402e-01   |deigs|: 8.414e-04  t[s]:   4543.80
	FillingsUpdate:  mu: +0.737772861  nElectrons: 544.000000
SCF: Cycle: 12   F: -4755.300788655889846   dF: -7.190e-01   |Residual|: 2.895e-01   |deigs|: 1.840e-03  t[s]:   4655.80
	FillingsUpdate:  mu: +0.737668705  nElectrons: 544.000000
SCF: Cycle: 13   F: -4755.432029905376112   dF: -1.312e-01   |Residual|: 1.631e-01   |deigs|: 7.304e-04  t[s]:   4753.08
	FillingsUpdate:  mu: +0.737589416  nElectrons: 544.000000
SCF: Cycle: 14   F: -4755.446864313139486   dF: -1.483e-02   |Residual|: 1.535e-01   |deigs|: 1.338e-04  t[s]:   4821.65
	FillingsUpdate:  mu: +0.737243786  nElectrons: 544.000000
SCF: Cycle: 15   F: -4755.491478607648787   dF: -4.461e-02   |Residual|: 6.688e-02   |deigs|: 3.338e-04  t[s]:   4893.05
	FillingsUpdate:  mu: +0.737405610  nElectrons: 544.000000
SCF: Cycle: 16   F: -4755.412574291352030   dF: +7.890e-02   |Residual|: 1.920e-01   |deigs|: 4.570e-04  t[s]:   4960.32
	FillingsUpdate:  mu: +0.737361148  nElectrons: 544.000000
SCF: Cycle: 17   F: -4755.472420192288155   dF: -5.985e-02   |Residual|: 1.128e-01   |deigs|: 2.605e-04  t[s]:   5025.23
	FillingsUpdate:  mu: +0.737374496  nElectrons: 544.000000
SCF: Cycle: 18   F: -4755.495185916762239   dF: -2.277e-02   |Residual|: 5.268e-02   |deigs|: 1.836e-04  t[s]:   5092.55
	FillingsUpdate:  mu: +0.737417711  nElectrons: 544.000000
SCF: Cycle: 19   F: -4755.495213122688256   dF: -2.721e-05   |Residual|: 5.370e-02   |deigs|: 1.075e-04  t[s]:   5161.54
	FillingsUpdate:  mu: +0.737392520  nElectrons: 544.000000
SCF: Cycle: 20   F: -4755.498675395039754   dF: -3.462e-03   |Residual|: 4.033e-02   |deigs|: 7.538e-05  t[s]:   5227.06
	FillingsUpdate:  mu: +0.737368498  nElectrons: 544.000000
SCF: Cycle: 21   F: -4755.493221582662045   dF: +5.454e-03   |Residual|: 5.989e-02   |deigs|: 8.484e-05  t[s]:   5295.36
	FillingsUpdate:  mu: +0.737335792  nElectrons: 544.000000
SCF: Cycle: 22   F: -4755.502370821710429   dF: -9.149e-03   |Residual|: 1.486e-02   |deigs|: 8.019e-05  t[s]:   5360.15
	FillingsUpdate:  mu: +0.737308111  nElectrons: 544.000000
SCF: Cycle: 23   F: -4755.492223234527955   dF: +1.015e-02   |Residual|: 6.336e-02   |deigs|: 8.193e-05  t[s]:   5429.57
	FillingsUpdate:  mu: +0.737297968  nElectrons: 544.000000
SCF: Cycle: 24   F: -4755.498761219741937   dF: -6.538e-03   |Residual|: 3.869e-02   |deigs|: 9.704e-05  t[s]:   5499.30
	FillingsUpdate:  mu: +0.737297118  nElectrons: 544.000000
SCF: Cycle: 25   F: -4755.501264577398615   dF: -2.503e-03   |Residual|: 2.589e-02   |deigs|: 7.470e-05  t[s]:   5563.73
	FillingsUpdate:  mu: +0.737309292  nElectrons: 544.000000
SCF: Cycle: 26   F: -4755.500169751428984   dF: +1.095e-03   |Residual|: 3.059e-02   |deigs|: 6.900e-05  t[s]:   5633.06
	FillingsUpdate:  mu: +0.737310335  nElectrons: 544.000000
SCF: Cycle: 27   F: -4755.502826282691785   dF: -2.657e-03   |Residual|: 5.879e-03   |deigs|: 7.668e-05  t[s]:   5698.12
	FillingsUpdate:  mu: +0.737324466  nElectrons: 544.000000
SCF: Cycle: 28   F: -4755.501944348053257   dF: +8.819e-04   |Residual|: 1.946e-02   |deigs|: 3.017e-05  t[s]:   5762.68
	FillingsUpdate:  mu: +0.737327083  nElectrons: 544.000000
SCF: Cycle: 29   F: -4755.502900431421040   dF: -9.561e-04   |Residual|: 2.538e-03   |deigs|: 2.776e-05  t[s]:   5829.25
	FillingsUpdate:  mu: +0.737330838  nElectrons: 544.000000
SCF: Cycle: 30   F: -4755.502714337319048   dF: +1.861e-04   |Residual|: 8.563e-03   |deigs|: 1.520e-05  t[s]:   5898.22
	FillingsUpdate:  mu: +0.737330084  nElectrons: 544.000000
SCF: Cycle: 31   F: -4755.502895396732129   dF: -1.811e-04   |Residual|: 2.678e-03   |deigs|: 1.449e-05  t[s]:   5974.69
	FillingsUpdate:  mu: +0.737328958  nElectrons: 544.000000
SCF: Cycle: 32   F: -4755.502907110724664   dF: -1.171e-05   |Residual|: 1.719e-03   |deigs|: 5.833e-06  t[s]:   6045.42
	FillingsUpdate:  mu: +0.737326826  nElectrons: 544.000000
SCF: Cycle: 33   F: -4755.502910490065915   dF: -3.379e-06   |Residual|: 1.261e-03   |deigs|: 4.176e-06  t[s]:   6114.93
	FillingsUpdate:  mu: +0.737324846  nElectrons: 544.000000
SCF: Cycle: 34   F: -4755.502901213735640   dF: +9.276e-06   |Residual|: 2.189e-03   |deigs|: 4.552e-06  t[s]:   6187.03
	FillingsUpdate:  mu: +0.737324739  nElectrons: 544.000000
SCF: Cycle: 35   F: -4755.502900106284869   dF: +1.107e-06   |Residual|: 2.265e-03   |deigs|: 7.028e-06  t[s]:   6255.05
	FillingsUpdate:  mu: +0.737325758  nElectrons: 544.000000
SCF: Cycle: 36   F: -4755.502908399762418   dF: -8.293e-06   |Residual|: 1.559e-03   |deigs|: 5.458e-06  t[s]:   6319.47
	FillingsUpdate:  mu: +0.737326259  nElectrons: 544.000000
SCF: Cycle: 37   F: -4755.502904025256612   dF: +4.375e-06   |Residual|: 1.920e-03   |deigs|: 4.504e-06  t[s]:   6387.12
	FillingsUpdate:  mu: +0.737326739  nElectrons: 544.000000
SCF: Cycle: 38   F: -4755.502910728554525   dF: -6.703e-06   |Residual|: 1.169e-03   |deigs|: 5.529e-06  t[s]:   6451.82
	FillingsUpdate:  mu: +0.737328179  nElectrons: 544.000000
SCF: Cycle: 39   F: -4755.502912096380896   dF: -1.368e-06   |Residual|: 9.736e-04   |deigs|: 2.750e-06  t[s]:   6516.67
	FillingsUpdate:  mu: +0.737327383  nElectrons: 544.000000
SCF: Cycle: 40   F: -4755.502911238195338   dF: +8.582e-07   |Residual|: 1.162e-03   |deigs|: 2.738e-06  t[s]:   6581.21
	FillingsUpdate:  mu: +0.737327663  nElectrons: 544.000000
SCF: Cycle: 41   F: -4755.502913396358963   dF: -2.158e-06   |Residual|: 6.655e-04   |deigs|: 2.117e-06  t[s]:   6646.29
	FillingsUpdate:  mu: +0.737327697  nElectrons: 544.000000
SCF: Cycle: 42   F: -4755.502914155641520   dF: -7.593e-07   |Residual|: 3.899e-04   |deigs|: 1.301e-06  t[s]:   6715.37
	FillingsUpdate:  mu: +0.737327591  nElectrons: 544.000000
SCF: Cycle: 43   F: -4755.502914362828960   dF: -2.072e-07   |Residual|: 2.420e-04   |deigs|: 7.991e-07  t[s]:   6783.42
	FillingsUpdate:  mu: +0.737327324  nElectrons: 544.000000
SCF: Cycle: 44   F: -4755.502914452695222   dF: -8.987e-08   |Residual|: 1.454e-04   |deigs|: 5.135e-07  t[s]:   6856.65
	FillingsUpdate:  mu: +0.737327228  nElectrons: 544.000000
SCF: Cycle: 45   F: -4755.502914355539360   dF: +9.716e-08   |Residual|: 2.281e-04   |deigs|: 4.818e-07  t[s]:   6924.11
	FillingsUpdate:  mu: +0.737327273  nElectrons: 544.000000
SCF: Cycle: 46   F: -4755.502914453745689   dF: -9.821e-08   |Residual|: 1.377e-04   |deigs|: 4.318e-07  t[s]:   6995.00
	FillingsUpdate:  mu: +0.737327334  nElectrons: 544.000000
SCF: Cycle: 47   F: -4755.502914433617661   dF: +2.013e-08   |Residual|: 1.712e-04   |deigs|: 3.767e-07  t[s]:   7061.09
	FillingsUpdate:  mu: +0.737327448  nElectrons: 544.000000
SCF: Cycle: 48   F: -4755.502914439269261   dF: -5.652e-09   |Residual|: 1.540e-04   |deigs|: 4.239e-07  t[s]:   7131.17
	FillingsUpdate:  mu: +0.737327458  nElectrons: 544.000000
SCF: Cycle: 49   F: -4755.502914117556429   dF: +3.217e-07   |Residual|: 3.691e-04   |deigs|: 1.083e-06  t[s]:   7203.51
Setting wave functions to eigenvectors of Hamiltonian

# Ionic positions in lattice coordinates:
ion Co   0.000000000000000   0.000000000000000   0.000000000000000 0
ion Co   0.008698846667207   0.253655449454977   0.257221645317227 1
ion Co   0.256186685468138  -0.007199363196645   0.254738818797649 1
ion Co   0.260718415554222   0.249472021789533   0.008851555087731 1
ion Co   0.017157060960171  -0.010773551761508   0.505712515122936 1
ion Co  -0.001772330328495   0.248918933476384   0.741662598052673 1
ion Co   0.261084423518117   0.003331417637351   0.744698427071512 1
ion Co   0.251429092325830   0.237991798737517   0.492973469054444 1
ion Co   0.016113793255254   0.497923314586406   0.002297294250617 1
ion Co  -0.004290520897309   0.757811587740985   0.247945078422096 1
ion Co   0.252382315793853   0.503909207400657   0.232018839979888 1
ion Co   0.250829555723237   0.766112948694089  -0.012058764318190 1
ion Co   0.003877301616087   0.499514545122162   0.497528783097343 1
ion Co  -0.014149340855932   0.757394844042920   0.765922531211676 1
ion Co   0.245085356511199   0.489363258045643   0.761543819238873 1
ion Co   0.255351027013632   0.748767196151217   0.513960535613707 1
ion Co   0.495913069342276   0.012531014934656   0.000585796546912 1
ion Co   0.505162247428155   0.251831449296980   0.258692792722598 1
ion Co   0.749792517506475  -0.010380527482609   0.256071654661201 1
ion Co   0.757605409401190   0.262775300657921  -0.003894832603576 1
ion Co   0.492441776405080  -0.003588953440230   0.488390894216566 1
ion Co   0.495352125047035   0.267414914141793   0.758600910881593 1
ion Co   0.750448388983856  -0.004302777732730   0.760424825315837 1
ion Co   0.750176154892775   0.243612012593862   0.495954876222324 1
ion Co   0.500361251108561   0.498919608311004   0.021556451708220 1
ion Co   0.503232125603393   0.735279509346432   0.259045279404117 1
ion Co   0.755778029751576   0.495889214678724   0.250571294466677 1
ion Co   0.737398538676009   0.740186467441141  -0.008532802543528 1
ion Co   0.498940427178406   0.486738255960926   0.507454960104578 1
ion Co   0.501944757893102   0.742016345639549   0.753478568815926 1
ion Co   0.745858654963111   0.494058714023762   0.738320209286363 1
ion Co   0.740552398328941   0.762243100041335   0.495326734055187 1

# Forces in Lattice coordinates:
force Co  -0.028874058122673   0.133164283150458   0.057778642013091 0
force Co  -0.123085329499120  -0.154169159034339  -0.115223518641574 1
force Co  -0.113338237571939  -0.005751228245816  -0.149138186411782 1
force Co  -0.227621979847677  -0.100653887144206  -0.065393775664994 1
force Co  -0.342887242273039   0.074804913938662  -0.056733727309626 1
force Co   0.057404066393532  -0.034877684884185   0.114503754319045 1
force Co  -0.092029778248830   0.026934358172467   0.135781920558193 1
force Co  -0.004502250787865   0.298570856954638   0.131389336047567 1
force Co  -0.350633459501831   0.058599081021401  -0.044594384640186 1
force Co   0.128388865100557  -0.171424173168452   0.011629263608791 1
force Co  -0.103545708744560   0.030620084206297   0.470257343498446 1
force Co   0.025454871855919  -0.214418557212282   0.188205161236082 1
force Co  -0.011753644519956   0.089318073852890   0.077999280487745 1
force Co   0.228376092323024  -0.198325255792462  -0.274191705649089 1
force Co   0.061314026918373   0.200261527301256  -0.204391332541828 1
force Co  -0.110662459919458  -0.189673471818896  -0.144738441260724 1
force Co   0.236713968498595  -0.209115792310774   0.032693492243766 1
force Co  -0.022874773881787  -0.086828194985481  -0.144302844081536 1
force Co   0.023764420175523   0.237013759111024  -0.227756399534675 1
force Co  -0.039132270613626  -0.162478091745065   0.086239234229545 1
force Co   0.225941859283074   0.049166595023465   0.275762905582145 1
force Co   0.129024000827243  -0.360340419399936  -0.059768542987300 1
force Co  -0.121991530288762   0.175889458506960  -0.148722780462382 1
force Co   0.072024732096238  -0.034516476603882   0.112824352157297 1
force Co   0.069575330575504   0.010196919352235  -0.434145362836320 1
force Co  -0.107301287655889   0.233605941577355  -0.092570408796275 1
force Co   0.031186472141498   0.069812366416922   0.089721831199803 1
force Co   0.170392908621027   0.094051611298804   0.268607312076144 1
force Co  -0.032769247510275   0.206262275804497  -0.155652088181544 1
force Co  -0.062425496351167   0.084341615126673  -0.062954603033999 1
force Co   0.193755981592154   0.117935948623644   0.128274678914330 1
force Co   0.223380641038509  -0.258704165878549   0.209847048710978 1

# Energy components:
   Eewald =    -3270.6408199400621015
       EH =     1363.9604914041879056
     Eloc =    -3850.8627643430736498
      Enl =      822.2758433451796236
      Exc =     -517.3709004734542987
 Exc_core =       16.8672886382122300
       KE =      680.8212786442880997
-------------------------------------
     Etot =    -4754.9495827247228590
       TS =        0.5534631412964738
-------------------------------------
        F =    -4755.5030458660194199

IonicMinimize: Iter:   1  F: -4755.503045866019420  |grad|_K:  1.293e-02  alpha:  1.000e+00  linmin: -9.931e-01  t[s]:   7216.57

#--- Lowdin population analysis ---
# oxidation-state Co +0.021 +0.020 +0.013 +0.010 +0.016 +0.020 +0.014 +0.013 +0.016 +0.022 +0.018 +0.018 +0.029 +0.020 +0.019 +0.022 +0.023 +0.010 +0.024 +0.024 +0.014 +0.017 +0.023 +0.021 +0.008 +0.015 +0.015 +0.019 +0.016 +0.017 +0.017 +0.018


-------- Electronic minimization -----------
Will mix electronic density at each iteration.
	FillingsUpdate:  mu: +0.737327458  nElectrons: 544.000000
	FillingsUpdate:  mu: +0.741813810  nElectrons: 544.000000
SCF: Cycle:  0   F: -4681.356851403600558   dF: +6.947e+01   |Residual|: 4.412e+00   |deigs|: 9.929e-03  t[s]:   7373.54
	FillingsUpdate:  mu: +0.950184383  nElectrons: 544.000000
SCF: Cycle:  1   F: -4452.455722868187877   dF: +2.289e+02   |Residual|: 1.120e+01   |deigs|: 3.148e-01  t[s]:   7491.52
	FillingsUpdate:  mu: +0.788094243  nElectrons: 544.000000
SCF: Cycle:  2   F: -4644.607566159567796   dF: -1.922e+02   |Residual|: 7.090e+00   |deigs|: 2.224e-01  t[s]:   7606.73
	FillingsUpdate:  mu: +0.767504925  nElectrons: 544.000000
SCF: Cycle:  3   F: -4698.488582184096231   dF: -5.388e+01   |Residual|: 4.617e+00   |deigs|: 4.779e-02  t[s]:   7723.58
	FillingsUpdate:  mu: +0.757847037  nElectrons: 544.000000
SCF: Cycle:  4   F: -4714.006228340210328   dF: -1.552e+01   |Residual|: 4.064e+00   |deigs|: 4.820e-02  t[s]:   7846.17
	FillingsUpdate:  mu: +0.751351524  nElectrons: 544.000000
SCF: Cycle:  5   F: -4732.698552589627980   dF: -1.869e+01   |Residual|: 3.013e+00   |deigs|: 2.857e-02  t[s]:   7965.37
	FillingsUpdate:  mu: +0.749517203  nElectrons: 544.000000
SCF: Cycle:  6   F: -4725.035323121072906   dF: +7.663e+00   |Residual|: 3.330e+00   |deigs|: 1.283e-02  t[s]:   8086.18
	FillingsUpdate:  mu: +0.745775832  nElectrons: 544.000000
SCF: Cycle:  7   F: -4708.249742299082754   dF: +1.679e+01   |Residual|: 4.014e+00   |deigs|: 7.727e-03  t[s]:   8203.33
	FillingsUpdate:  mu: +0.737986694  nElectrons: 544.000000
SCF: Cycle:  8   F: -4748.597746073503913   dF: -4.035e+01   |Residual|: 1.687e+00   |deigs|: 1.714e-02  t[s]:   8314.86
	FillingsUpdate:  mu: +0.736984986  nElectrons: 544.000000
SCF: Cycle:  9   F: -4746.203236842734441   dF: +2.395e+00   |Residual|: 1.677e+00   |deigs|: 6.859e-03  t[s]:   8424.27
	FillingsUpdate:  mu: +0.739268397  nElectrons: 544.000000
SCF: Cycle: 10   F: -4743.695127631225660   dF: +2.508e+00   |Residual|: 1.970e+00   |deigs|: 3.991e-03  t[s]:   8544.30
	FillingsUpdate:  mu: +0.740146585  nElectrons: 544.000000
SCF: Cycle: 11   F: -4749.612073564077946   dF: -5.917e+00   |Residual|: 1.411e+00   |deigs|: 5.897e-03  t[s]:   8664.64
	FillingsUpdate:  mu: +0.739681688  nElectrons: 544.000000
SCF: Cycle: 12   F: -4755.279138455079192   dF: -5.667e+00   |Residual|: 3.656e-01   |deigs|: 9.240e-03  t[s]:   8784.79
	FillingsUpdate:  mu: +0.738503923  nElectrons: 544.000000
SCF: Cycle: 13   F: -4755.022502175218506   dF: +2.566e-01   |Residual|: 4.605e-01   |deigs|: 1.269e-03  t[s]:   8893.41
	FillingsUpdate:  mu: +0.737234683  nElectrons: 544.000000
SCF: Cycle: 14   F: -4755.143379725244813   dF: -1.209e-01   |Residual|: 4.062e-01   |deigs|: 1.150e-03  t[s]:   9014.50
	FillingsUpdate:  mu: +0.737372560  nElectrons: 544.000000
SCF: Cycle: 15   F: -4755.320727088113017   dF: -1.773e-01   |Residual|: 3.324e-01   |deigs|: 6.117e-04  t[s]:   9137.59
	FillingsUpdate:  mu: +0.737122682  nElectrons: 544.000000
SCF: Cycle: 16   F: -4755.275028945730810   dF: +4.570e-02   |Residual|: 3.453e-01   |deigs|: 4.788e-04  t[s]:   9244.66
	FillingsUpdate:  mu: +0.737289899  nElectrons: 544.000000
SCF: Cycle: 17   F: -4755.356239146605731   dF: -8.121e-02   |Residual|: 2.714e-01   |deigs|: 5.403e-04  t[s]:   9355.78
	FillingsUpdate:  mu: +0.737707276  nElectrons: 544.000000
SCF: Cycle: 18   F: -4755.464307792912223   dF: -1.081e-01   |Residual|: 1.674e-01   |deigs|: 5.172e-04  t[s]:   9444.33
	FillingsUpdate:  mu: +0.737555793  nElectrons: 544.000000
SCF: Cycle: 19   F: -4755.422893811955873   dF: +4.141e-02   |Residual|: 2.142e-01   |deigs|: 3.230e-04  t[s]:   9556.73
	FillingsUpdate:  mu: +0.737412237  nElectrons: 544.000000
SCF: Cycle: 20   F: -4755.433126077372435   dF: -1.023e-02   |Residual|: 1.968e-01   |deigs|: 2.968e-04  t[s]:   9641.55
	FillingsUpdate:  mu: +0.736899311  nElectrons: 544.000000
SCF: Cycle: 21   F: -4755.433911438023642   dF: -7.854e-04   |Residual|: 1.866e-01   |deigs|: 5.249e-04  t[s]:   9754.43
	FillingsUpdate:  mu: +0.736903726  nElectrons: 544.000000
SCF: Cycle: 22   F: -4755.535648009996294   dF: -1.017e-01   |Residual|: 3.764e-02   |deigs|: 4.344e-04  t[s]:   9819.26
	FillingsUpdate:  mu: +0.736922218  nElectrons: 544.000000
SCF: Cycle: 23   F: -4755.515134703832700   dF: +2.051e-02   |Residual|: 9.670e-02   |deigs|: 9.010e-05  t[s]:   9886.08
	FillingsUpdate:  mu: +0.736947999  nElectrons: 544.000000
SCF: Cycle: 24   F: -4755.534128093814616   dF: -1.899e-02   |Residual|: 4.469e-02   |deigs|: 9.746e-05  t[s]:   9952.41
	FillingsUpdate:  mu: +0.736997845  nElectrons: 544.000000
SCF: Cycle: 25   F: -4755.536757505769856   dF: -2.629e-03   |Residual|: 2.875e-02   |deigs|: 6.455e-05  t[s]:  10016.54
	FillingsUpdate:  mu: +0.737018586  nElectrons: 544.000000
SCF: Cycle: 26   F: -4755.538615402876530   dF: -1.858e-03   |Residual|: 1.499e-02   |deigs|: 4.697e-05  t[s]:  10082.02
	FillingsUpdate:  mu: +0.737015178  nElectrons: 544.000000
SCF: Cycle: 27   F: -4755.538868966234077   dF: -2.536e-04   |Residual|: 1.149e-02   |deigs|: 2.768e-05  t[s]:  10148.15
	FillingsUpdate:  mu: +0.736998837  nElectrons: 544.000000
SCF: Cycle: 28   F: -4755.538781055191976   dF: +8.791e-05   |Residual|: 1.290e-02   |deigs|: 3.138e-05  t[s]:  10216.41
	FillingsUpdate:  mu: +0.736964363  nElectrons: 544.000000
SCF: Cycle: 29   F: -4755.537991779083313   dF: +7.893e-04   |Residual|: 2.055e-02   |deigs|: 4.047e-05  t[s]:  10286.60
	FillingsUpdate:  mu: +0.736945560  nElectrons: 544.000000
SCF: Cycle: 30   F: -4755.538985164283076   dF: -9.934e-04   |Residual|: 8.697e-03   |deigs|: 3.346e-05  t[s]:  10353.56
	FillingsUpdate:  mu: +0.736968543  nElectrons: 544.000000
SCF: Cycle: 31   F: -4755.538866928156494   dF: +1.182e-04   |Residual|: 1.064e-02   |deigs|: 2.981e-05  t[s]:  10424.25
	FillingsUpdate:  mu: +0.736950294  nElectrons: 544.000000
SCF: Cycle: 32   F: -4755.539100491085264   dF: -2.336e-04   |Residual|: 5.855e-03   |deigs|: 2.483e-05  t[s]:  10491.72
	FillingsUpdate:  mu: +0.736970155  nElectrons: 544.000000
SCF: Cycle: 33   F: -4755.539158209063316   dF: -5.772e-05   |Residual|: 3.900e-03   |deigs|: 2.001e-05  t[s]:  10564.63
	FillingsUpdate:  mu: +0.736983102  nElectrons: 544.000000
SCF: Cycle: 34   F: -4755.539163467909020   dF: -5.259e-06   |Residual|: 3.420e-03   |deigs|: 1.297e-05  t[s]:  10631.92
	FillingsUpdate:  mu: +0.736986169  nElectrons: 544.000000
SCF: Cycle: 35   F: -4755.539192160375933   dF: -2.869e-05   |Residual|: 1.197e-03   |deigs|: 5.479e-06  t[s]:  10700.99
	FillingsUpdate:  mu: +0.736981075  nElectrons: 544.000000
SCF: Cycle: 36   F: -4755.539186921748296   dF: +5.239e-06   |Residual|: 1.962e-03   |deigs|: 5.365e-06  t[s]:  10774.87
	FillingsUpdate:  mu: +0.736974683  nElectrons: 544.000000
SCF: Cycle: 37   F: -4755.539193450938910   dF: -6.529e-06   |Residual|: 1.013e-03   |deigs|: 6.085e-06  t[s]:  10843.58
	FillingsUpdate:  mu: +0.736975038  nElectrons: 544.000000
SCF: Cycle: 38   F: -4755.539191607337671   dF: +1.844e-06   |Residual|: 1.306e-03   |deigs|: 2.513e-06  t[s]:  10913.32
	FillingsUpdate:  mu: +0.736975630  nElectrons: 544.000000
SCF: Cycle: 39   F: -4755.539193435257403   dF: -1.828e-06   |Residual|: 1.026e-03   |deigs|: 2.730e-06  t[s]:  10989.87
	FillingsUpdate:  mu: +0.736976973  nElectrons: 544.000000
SCF: Cycle: 40   F: -4755.539191702792778   dF: +1.732e-06   |Residual|: 1.227e-03   |deigs|: 2.490e-06  t[s]:  11059.82
	FillingsUpdate:  mu: +0.736978454  nElectrons: 544.000000
SCF: Cycle: 41   F: -4755.539195075089992   dF: -3.372e-06   |Residual|: 6.085e-04   |deigs|: 2.410e-06  t[s]:  11129.97
	FillingsUpdate:  mu: +0.736978300  nElectrons: 544.000000
SCF: Cycle: 42   F: -4755.539193408223582   dF: +1.667e-06   |Residual|: 9.477e-04   |deigs|: 2.070e-06  t[s]:  11196.08
	FillingsUpdate:  mu: +0.736979114  nElectrons: 544.000000
SCF: Cycle: 43   F: -4755.539195978771204   dF: -2.571e-06   |Residual|: 2.251e-04   |deigs|: 1.583e-06  t[s]:  11266.64
	FillingsUpdate:  mu: +0.736977030  nElectrons: 544.000000
SCF: Cycle: 44   F: -4755.539193822361995   dF: +2.156e-06   |Residual|: 9.218e-04   |deigs|: 2.177e-06  t[s]:  11334.76
	FillingsUpdate:  mu: +0.736976370  nElectrons: 544.000000
SCF: Cycle: 45   F: -4755.539195772305902   dF: -1.950e-06   |Residual|: 3.506e-04   |deigs|: 1.440e-06  t[s]:  11403.21
	FillingsUpdate:  mu: +0.736976359  nElectrons: 544.000000
SCF: Cycle: 46   F: -4755.539196023558361   dF: -2.513e-07   |Residual|: 1.655e-04   |deigs|: 5.641e-07  t[s]:  11462.29
	FillingsUpdate:  mu: +0.736976845  nElectrons: 544.000000
SCF: Cycle: 47   F: -4755.539195948146698   dF: +7.541e-08   |Residual|: 2.427e-04   |deigs|: 5.704e-07  t[s]:  11531.88
	FillingsUpdate:  mu: +0.736977626  nElectrons: 544.000000
SCF: Cycle: 48   F: -4755.539196043003358   dF: -9.486e-08   |Residual|: 1.589e-04   |deigs|: 7.554e-07  t[s]:  11599.32
	FillingsUpdate:  mu: +0.736977786  nElectrons: 544.000000
SCF: Cycle: 49   F: -4755.539196089793222   dF: -4.679e-08   |Residual|: 7.841e-05   |deigs|: 2.466e-07  t[s]:  11670.76
Setting wave functions to eigenvectors of Hamiltonian

# Ionic positions in lattice coordinates:
ion Co   0.000000000000000   0.000000000000000   0.000000000000000 0
ion Co   0.005907474421254   0.250396600255163   0.255016211163445 1
ion Co   0.254418112316213  -0.006236392616189   0.253837937813699 1
ion Co   0.255984802049415   0.249141015887818   0.007264473093711 1
ion Co   0.011404144336228  -0.008440589717662   0.504206311823983 1
ion Co  -0.000132546658536   0.248387601548333   0.744608689029938 1
ion Co   0.258241173431034   0.002994779955575   0.746916061510154 1
ion Co   0.251170932779689   0.242648933014528   0.495307819677279 1
ion Co   0.010785866990184   0.498943370433495   0.001608852245230 1
ion Co  -0.002072320176181   0.754245828592896   0.248471306709290 1
ion Co   0.251741603581774   0.503294353941922   0.239109048497522 1
ion Co   0.251391827806437   0.761034011191029  -0.007715157081055 1
ion Co   0.003155294661675   0.500575964935450   0.499091788596105 1
ion Co  -0.010014974751109   0.754129426799503   0.760872877702423 1
ion Co   0.246714673925205   0.492877675699036   0.758149552541380 1
ion Co   0.252921966492519   0.747317061131928   0.510641621657509 1
ion Co   0.500174459996950   0.007962247042641   0.001490741039840 1
ion Co   0.504369048588269   0.250663596761503   0.255472032930639 1
ion Co   0.750531851798041  -0.006648197622203   0.252631444197734 1
ion Co   0.756357835955687   0.258873826212877  -0.001663236805395 1
ion Co   0.496045530255667  -0.002532408961788   0.493866500492619 1
ion Co   0.498262915606382   0.260992778685185   0.756124328909940 1
ion Co   0.749159514605435  -0.001878208921469   0.757177347073839 1
ion Co   0.751131704488199   0.243582095970585   0.498252846587178 1
ion Co   0.499337986859895   0.498964477469881   0.013893664723944 1
ion Co   0.501969283866613   0.739745529424592   0.256818396872625 1
ion Co   0.755216860741385   0.497313257960456   0.252190073024351 1
ion Co   0.741881403046204   0.743095807441825  -0.003830456914904 1
ion Co   0.499474952813757   0.490343415401110   0.504916992962613 1
ion Co   0.501309602985818   0.744174266847041   0.752604371841534 1
ion Co   0.748907240016832   0.496305001866752   0.741355213387853 1
ion Co   0.744950579367273   0.757640299307305   0.497642059992788 1

# Forces in Lattice coordinates:
force Co  -0.012140442305710   0.068508310393157   0.032983400079264 0
force Co  -0.081594562776923  -0.070511304372918  -0.064486043307622 1
force Co  -0.060624474054261   0.022280834694708  -0.083160055777111 1
force Co  -0.121616562200094  -0.071081450300413  -0.066719588175483 1
force Co  -0.197415567748707   0.071670266383585  -0.037736268473737 1
force Co   0.034346935569941  -0.010529206366540   0.088029209025403 1
force Co  -0.077152486248753  -0.009015101163201   0.094485689460145 1
force Co   0.001176631337354   0.184907342122417   0.087621605400410 1
force Co  -0.202954161315638   0.024837747011823  -0.019960477310563 1
force Co   0.081362304436827  -0.103215612601943   0.015216252956261 1
force Co  -0.062085784618579  -0.005321226506450   0.274656130118919 1
force Co   0.010227097382657  -0.131002022832893   0.123510390336771 1
force Co  -0.016964947846400   0.028357549775745   0.040016582195834 1
force Co   0.156997092072470  -0.109097693834201  -0.165474332309160 1
force Co   0.053110458899428   0.120125582231025  -0.123733620251631 1
force Co  -0.057552887896623  -0.086163873428799  -0.105336059191944 1
force Co   0.089537784047085  -0.134879072428064   0.014833733437396 1
force Co  -0.023635464757604  -0.048855877687996  -0.084131579553947 1
force Co   0.016482549134861   0.136834091071058  -0.102560880924736 1
force Co  -0.042611424549682  -0.107985242946770   0.053832414204360 1
force Co   0.130419453186855   0.033533758617269   0.168475862120687 1
force Co   0.066287725985806  -0.213950878110113  -0.048668090957767 1
force Co  -0.045370360500496   0.076903622258157  -0.095632609617065 1
force Co   0.033715692371925   0.006078584616924   0.060898577435829 1
force Co   0.061915714029935   0.013505474505750  -0.248173688912882 1
force Co  -0.057870925319228   0.155549543927625  -0.069326980644820 1
force Co  -0.010570927101365   0.034087836249228   0.031609030511986 1
force Co   0.116674819440388   0.063432694738582   0.145290520952742 1
force Co  -0.005380311772417   0.135938609054215  -0.089396862754427 1
force Co  -0.022792051355094   0.063885589107889  -0.034711504676833 1
force Co   0.093481109069923   0.067052457841701   0.112862531263154 1
force Co   0.134308379952835  -0.157531794443146   0.106513171507219 1

# Energy components:
   Eewald =    -3275.4444547313137264
       EH =     1359.2361413480196006
     Eloc =    -3841.1901175619223068
      Enl =      822.2453279041809537
      Exc =     -517.3049218500559618
 Exc_core =       16.8673085355266039
       KE =      680.6044843251288512
-------------------------------------
     Etot =    -4754.9862320304364403
       TS =        0.5534247404259272
-------------------------------------
        F =    -4755.5396567708621660

IonicMinimize: Iter:   2  F: -4755.539656770862166  |grad|_K:  7.647e-03  alpha:  4.456e-01  linmin: -9.731e-01  t[s]:  11684.39

#--- Lowdin population analysis ---
# oxidation-state Co +0.020 +0.020 +0.015 +0.014 +0.017 +0.019 +0.016 +0.015 +0.017 +0.020 +0.017 +0.018 +0.024 +0.019 +0.018 +0.020 +0.021 +0.013 +0.021 +0.022 +0.015 +0.017 +0.021 +0.020 +0.012 +0.016 +0.017 +0.018 +0.017 +0.018 +0.018 +0.018


-------- Electronic minimization -----------
Will mix electronic density at each iteration.
	FillingsUpdate:  mu: +0.736977786  nElectrons: 544.000000
	FillingsUpdate:  mu: +0.733188936  nElectrons: 544.000000
SCF: Cycle:  0   F: -4700.186848537726291   dF: +5.072e+01   |Residual|: 3.868e+00   |deigs|: 8.916e-03  t[s]:  11840.41
	FillingsUpdate:  mu: +0.919927032  nElectrons: 544.000000
SCF: Cycle:  1   F: -4483.716239510363266   dF: +2.165e+02   |Residual|: 1.036e+01   |deigs|: 2.775e-01  t[s]:  11959.00
	FillingsUpdate:  mu: +0.790882935  nElectrons: 544.000000
SCF: Cycle:  2   F: -4656.007789570939167   dF: -1.723e+02   |Residual|: 6.724e+00   |deigs|: 1.836e-01  t[s]:  12088.75
	FillingsUpdate:  mu: +0.763361901  nElectrons: 544.000000
SCF: Cycle:  3   F: -4712.707318325878987   dF: -5.670e+01   |Residual|: 4.039e+00   |deigs|: 4.961e-02  t[s]:  12209.84
	FillingsUpdate:  mu: +0.755238654  nElectrons: 544.000000
SCF: Cycle:  4   F: -4719.538749779054342   dF: -6.831e+00   |Residual|: 3.744e+00   |deigs|: 3.783e-02  t[s]:  12329.00
	FillingsUpdate:  mu: +0.748768844  nElectrons: 544.000000
SCF: Cycle:  5   F: -4734.502785111484627   dF: -1.496e+01   |Residual|: 2.900e+00   |deigs|: 2.942e-02  t[s]:  12449.89
	FillingsUpdate:  mu: +0.750415771  nElectrons: 544.000000
SCF: Cycle:  6   F: -4721.597667281716895   dF: +1.291e+01   |Residual|: 3.475e+00   |deigs|: 1.132e-02  t[s]:  12572.40
	FillingsUpdate:  mu: +0.749816955  nElectrons: 544.000000
SCF: Cycle:  7   F: -4695.076749181010200   dF: +2.652e+01   |Residual|: 4.455e+00   |deigs|: 9.119e-03  t[s]:  12693.20
	FillingsUpdate:  mu: +0.736980929  nElectrons: 544.000000
SCF: Cycle:  8   F: -4751.420123995820177   dF: -5.634e+01   |Residual|: 1.275e+00   |deigs|: 2.300e-02  t[s]:  12814.99
	FillingsUpdate:  mu: +0.735031212  nElectrons: 544.000000
SCF: Cycle:  9   F: -4752.943814593516436   dF: -1.524e+00   |Residual|: 8.829e-01   |deigs|: 3.016e-03  t[s]:  12926.80
	FillingsUpdate:  mu: +0.736227346  nElectrons: 544.000000
SCF: Cycle: 10   F: -4749.815595559126450   dF: +3.128e+00   |Residual|: 1.363e+00   |deigs|: 3.228e-03  t[s]:  13039.54
	FillingsUpdate:  mu: +0.736771036  nElectrons: 544.000000
SCF: Cycle: 11   F: -4753.573184881222005   dF: -3.758e+00   |Residual|: 7.942e-01   |deigs|: 3.805e-03  t[s]:  13151.81
	FillingsUpdate:  mu: +0.738213160  nElectrons: 544.000000
SCF: Cycle: 12   F: -4754.977360299200882   dF: -1.404e+00   |Residual|: 5.070e-01   |deigs|: 3.183e-03  t[s]:  13266.01
	FillingsUpdate:  mu: +0.737730582  nElectrons: 544.000000
SCF: Cycle: 13   F: -4754.960537914051201   dF: +1.682e-02   |Residual|: 4.628e-01   |deigs|: 1.063e-03  t[s]:  13386.65
	FillingsUpdate:  mu: +0.736619909  nElectrons: 544.000000
SCF: Cycle: 14   F: -4754.909494016025747   dF: +5.104e-02   |Residual|: 5.193e-01   |deigs|: 1.267e-03  t[s]:  13504.94
	FillingsUpdate:  mu: +0.736109095  nElectrons: 544.000000
SCF: Cycle: 15   F: -4755.497306190341988   dF: -5.878e-01   |Residual|: 1.498e-01   |deigs|: 1.711e-03  t[s]:  13606.87
	FillingsUpdate:  mu: +0.736783613  nElectrons: 544.000000
SCF: Cycle: 16   F: -4755.283201033553269   dF: +2.141e-01   |Residual|: 3.111e-01   |deigs|: 8.910e-04  t[s]:  13704.91
	FillingsUpdate:  mu: +0.737567196  nElectrons: 544.000000
SCF: Cycle: 17   F: -4755.429538592353310   dF: -1.463e-01   |Residual|: 2.364e-01   |deigs|: 7.997e-04  t[s]:  13823.86
	FillingsUpdate:  mu: +0.737369495  nElectrons: 544.000000
SCF: Cycle: 18   F: -4755.534711339788373   dF: -1.052e-01   |Residual|: 9.919e-02   |deigs|: 5.013e-04  t[s]:  13893.96
	FillingsUpdate:  mu: +0.736760001  nElectrons: 544.000000
SCF: Cycle: 19   F: -4755.521292244029610   dF: +1.342e-02   |Residual|: 1.251e-01   |deigs|: 5.534e-04  t[s]:  13965.27
	FillingsUpdate:  mu: +0.736737001  nElectrons: 544.000000
SCF: Cycle: 20   F: -4755.553405322350955   dF: -3.211e-02   |Residual|: 4.470e-02   |deigs|: 2.336e-04  t[s]:  14032.81
	FillingsUpdate:  mu: +0.736846092  nElectrons: 544.000000
SCF: Cycle: 21   F: -4755.547836192666182   dF: +5.569e-03   |Residual|: 6.379e-02   |deigs|: 1.280e-04  t[s]:  14104.32
	FillingsUpdate:  mu: +0.736830972  nElectrons: 544.000000
SCF: Cycle: 22   F: -4755.557898562642549   dF: -1.006e-02   |Residual|: 1.778e-02   |deigs|: 1.119e-04  t[s]:  14176.16
	FillingsUpdate:  mu: +0.736827797  nElectrons: 544.000000
SCF: Cycle: 23   F: -4755.556293017434655   dF: +1.606e-03   |Residual|: 3.033e-02   |deigs|: 3.823e-05  t[s]:  14249.37
	FillingsUpdate:  mu: +0.736812123  nElectrons: 544.000000
SCF: Cycle: 24   F: -4755.552972112703173   dF: +3.321e-03   |Residual|: 4.363e-02   |deigs|: 5.259e-05  t[s]:  14319.29
	FillingsUpdate:  mu: +0.736807338  nElectrons: 544.000000
SCF: Cycle: 25   F: -4755.558484088136538   dF: -5.512e-03   |Residual|: 8.519e-03   |deigs|: 7.428e-05  t[s]:  14392.88
	FillingsUpdate:  mu: +0.736804064  nElectrons: 544.000000
SCF: Cycle: 26   F: -4755.558126638185968   dF: +3.574e-04   |Residual|: 1.347e-02   |deigs|: 1.538e-05  t[s]:  14465.32
	FillingsUpdate:  mu: +0.736791548  nElectrons: 544.000000
SCF: Cycle: 27   F: -4755.556060465692099   dF: +2.066e-03   |Residual|: 3.079e-02   |deigs|: 5.257e-05  t[s]:  14532.93
	FillingsUpdate:  mu: +0.736783247  nElectrons: 544.000000
SCF: Cycle: 28   F: -4755.557813572019768   dF: -1.753e-03   |Residual|: 1.794e-02   |deigs|: 3.541e-05  t[s]:  14603.04
	FillingsUpdate:  mu: +0.736775437  nElectrons: 544.000000
SCF: Cycle: 29   F: -4755.557447967908956   dF: +3.656e-04   |Residual|: 2.204e-02   |deigs|: 2.381e-05  t[s]:  14670.98
	FillingsUpdate:  mu: +0.736778130  nElectrons: 544.000000
SCF: Cycle: 30   F: -4755.558616551988052   dF: -1.169e-03   |Residual|: 4.243e-03   |deigs|: 2.103e-05  t[s]:  14737.25
	FillingsUpdate:  mu: +0.736779420  nElectrons: 544.000000
SCF: Cycle: 31   F: -4755.558583631293004   dF: +3.292e-05   |Residual|: 5.441e-03   |deigs|: 7.367e-06  t[s]:  14811.45
	FillingsUpdate:  mu: +0.736782302  nElectrons: 544.000000
SCF: Cycle: 32   F: -4755.558541890533888   dF: +4.174e-05   |Residual|: 6.668e-03   |deigs|: 9.881e-06  t[s]:  14881.14
	FillingsUpdate:  mu: +0.736779441  nElectrons: 544.000000
SCF: Cycle: 33   F: -4755.558438786119950   dF: +1.031e-04   |Residual|: 9.326e-03   |deigs|: 1.175e-05  t[s]:  14955.47
	FillingsUpdate:  mu: +0.736789706  nElectrons: 544.000000
SCF: Cycle: 34   F: -4755.558570556985615   dF: -1.318e-04   |Residual|: 5.968e-03   |deigs|: 1.385e-05  t[s]:  15031.07
	FillingsUpdate:  mu: +0.736792899  nElectrons: 544.000000
SCF: Cycle: 35   F: -4755.558608243106391   dF: -3.769e-05   |Residual|: 4.504e-03   |deigs|: 7.623e-06  t[s]:  15098.25
	FillingsUpdate:  mu: +0.736793708  nElectrons: 544.000000
SCF: Cycle: 36   F: -4755.558644036880651   dF: -3.579e-05   |Residual|: 2.534e-03   |deigs|: 6.084e-06  t[s]:  15171.70
	FillingsUpdate:  mu: +0.736793090  nElectrons: 544.000000
SCF: Cycle: 37   F: -4755.558639422152737   dF: +4.615e-06   |Residual|: 2.873e-03   |deigs|: 4.192e-06  t[s]:  15239.20
	FillingsUpdate:  mu: +0.736792070  nElectrons: 544.000000
SCF: Cycle: 38   F: -4755.558641693836762   dF: -2.272e-06   |Residual|: 2.761e-03   |deigs|: 4.034e-06  t[s]:  15305.13
	FillingsUpdate:  mu: +0.736791381  nElectrons: 544.000000
SCF: Cycle: 39   F: -4755.558661317409133   dF: -1.962e-05   |Residual|: 6.823e-04   |deigs|: 3.343e-06  t[s]:  15379.85
	FillingsUpdate:  mu: +0.736788782  nElectrons: 544.000000
SCF: Cycle: 40   F: -4755.558656135704950   dF: +5.182e-06   |Residual|: 1.569e-03   |deigs|: 3.000e-06  t[s]:  15453.62
	FillingsUpdate:  mu: +0.736787027  nElectrons: 544.000000
SCF: Cycle: 41   F: -4755.558658764613028   dF: -2.629e-06   |Residual|: 1.219e-03   |deigs|: 2.709e-06  t[s]:  15520.21
	FillingsUpdate:  mu: +0.736787220  nElectrons: 544.000000
SCF: Cycle: 42   F: -4755.558660925487857   dF: -2.161e-06   |Residual|: 7.921e-04   |deigs|: 1.761e-06  t[s]:  15589.58
	FillingsUpdate:  mu: +0.736787662  nElectrons: 544.000000
SCF: Cycle: 43   F: -4755.558662147886025   dF: -1.222e-06   |Residual|: 4.393e-04   |deigs|: 1.142e-06  t[s]:  15661.64
	FillingsUpdate:  mu: +0.736788633  nElectrons: 544.000000
SCF: Cycle: 44   F: -4755.558660419607804   dF: +1.728e-06   |Residual|: 9.153e-04   |deigs|: 1.486e-06  t[s]:  15734.01
	FillingsUpdate:  mu: +0.736789084  nElectrons: 544.000000
SCF: Cycle: 45   F: -4755.558661468396167   dF: -1.049e-06   |Residual|: 6.627e-04   |deigs|: 1.215e-06  t[s]:  15798.60
	FillingsUpdate:  mu: +0.736789570  nElectrons: 544.000000
SCF: Cycle: 46   F: -4755.558662345706580   dF: -8.773e-07   |Residual|: 3.272e-04   |deigs|: 9.061e-07  t[s]:  15866.27
	FillingsUpdate:  mu: +0.736789583  nElectrons: 544.000000
SCF: Cycle: 47   F: -4755.558662513482886   dF: -1.678e-07   |Residual|: 2.002e-04   |deigs|: 3.691e-07  t[s]:  15930.91
	FillingsUpdate:  mu: +0.736789558  nElectrons: 544.000000
SCF: Cycle: 48   F: -4755.558662444176662   dF: +6.931e-08   |Residual|: 2.514e-04   |deigs|: 4.116e-07  t[s]:  15996.77
	FillingsUpdate:  mu: +0.736789399  nElectrons: 544.000000
SCF: Cycle: 49   F: -4755.558662539446232   dF: -9.527e-08   |Residual|: 1.738e-04   |deigs|: 3.522e-07  t[s]:  16064.12
Setting wave functions to eigenvectors of Hamiltonian

# Ionic positions in lattice coordinates:
ion Co   0.000000000000000   0.000000000000000   0.000000000000000 0
ion Co   0.002788705881996   0.248514796562167   0.253126336689702 1
ion Co   0.253059921809774  -0.003954979002085   0.253063283467859 1
ion Co   0.252264701439799   0.247992007332781   0.004174615417662 1
ion Co   0.006148571506706  -0.004735664815573   0.502575601766920 1
ion Co   0.001394744342273   0.248448238404375   0.748503385106792 1
ion Co   0.254340118965621   0.001328945113862   0.749884601726349 1
ion Co   0.251164210023545   0.247675546658355   0.498120756839848 1
ion Co   0.005819265583401   0.499360591171356   0.001304766063590 1
ion Co   0.000378134608148   0.750774510100850   0.249420179217546 1
ion Co   0.250940643710501   0.501487602881760   0.245864792531789 1
ion Co   0.251641592487254   0.756058895106441  -0.002954609920796 1
ion Co   0.001944043789369   0.500247529709868   0.500221159729120 1
ion Co  -0.004790287262576   0.751434885061407   0.755851974118483 1
ion Co   0.249187718493517   0.496355633031620   0.754697860285486 1
ion Co   0.251095776389007   0.747202008128599   0.506403110633114 1
ion Co   0.501357815876108   0.003026164738634   0.002063989029512 1
ion Co   0.503069626608826   0.249642652000697   0.252522894433854 1
ion Co   0.751345582562307  -0.003200598191723   0.251107102968440 1
ion Co   0.754102147429935   0.254557511540077   0.000563411698391 1
ion Co   0.499369531084055  -0.001281977476490   0.499370415296033 1
ion Co   0.500411853007571   0.254777789223463   0.753140234773713 1
ion Co   0.749362169667100  -0.001029986191145   0.753685225278105 1
ion Co   0.751575493051950   0.245011333552328   0.500091401246022 1
ion Co   0.499807865894417   0.499453269218529   0.007021340203347 1
ion Co   0.501004433255499   0.745000275545277   0.253906734691967 1
ion Co   0.753135328590428   0.498245859851451   0.252507636017595 1
ion Co   0.746936591548063   0.746198580980989  -0.000086306101181 1
ion Co   0.500666666235332   0.494616092500597   0.502606109093279 1
ion Co   0.501458399443548   0.746977802173185   0.751881837885361 1
ion Co   0.750665811836254   0.498290329067660   0.746313460589927 1
ion Co   0.749252842466075   0.752959013394984   0.499014829767003 1

# Forces in Lattice coordinates:
force Co   0.000134533570538   0.015782844316106   0.027162449185693 0
force Co  -0.027750115393525  -0.008842905099750  -0.028131232935848 1
force Co  -0.034608643370442   0.030123099745215  -0.032128832401648 1
force Co  -0.036221018707688  -0.009392110952128  -0.031782699551101 1
force Co  -0.092550208314227   0.049843874309855  -0.018902845669006 1
force Co   0.000692338994642   0.007342231860436   0.037156889155058 1
force Co  -0.040572522235246  -0.012999074506661   0.023080717016596 1
force Co   0.001934091118287   0.063885438279451   0.044930252844881 1
force Co  -0.097863397908269   0.006034286785811  -0.008807744835997 1
force Co   0.026124590257399  -0.027957545766890   0.014822148131921 1
force Co  -0.012991687354610  -0.016180160838910   0.117525939472482 1
force Co  -0.002810918177104  -0.088838217783175   0.060340245226441 1
force Co  -0.013807100936182  -0.000244777830962   0.020676968125003 1
force Co   0.095786800994141  -0.046328278764346  -0.077538165147008 1
force Co   0.021868526800656   0.055030319053184  -0.053090234636500 1
force Co  -0.008642857839347  -0.017382156531236  -0.057962492824795 1
force Co   0.029374792578654  -0.061571191036614  -0.005752867295717 1
force Co  -0.020886838299721  -0.017076351185572  -0.025688309111021 1
force Co   0.000945081113021   0.053395831927693  -0.028844415451150 1
force Co  -0.035098477357469  -0.066093125274374   0.005348213122070 1
force Co   0.039283109490616   0.011060043947946   0.057264827368397 1
force Co   0.014995182328688  -0.105159610561406  -0.016196391585510 1
force Co  -0.003881712891062   0.027452513822780  -0.036835693523912 1
force Co   0.008883238888864   0.033011525520804   0.028855565329027 1
force Co   0.026038033934203   0.000074664713619  -0.104815342329844 1
force Co  -0.019092607752705   0.078801940964913  -0.029269373470546 1
force Co  -0.013091643456257   0.014150816324447   0.000456510337183 1
force Co   0.058874736498190   0.030288082991428   0.047681123116113 1
force Co  -0.001055325737291   0.080194866466099  -0.028904390041374 1
force Co  -0.010959320428765   0.030441716741292  -0.016812957142425 1
force Co   0.027817645815086   0.018938420104461   0.068092079391367 1
force Co   0.037694628360673  -0.067155275339728   0.044240608959307 1

# Energy components:
   Eewald =    -3277.5778489678691585
       EH =     1357.1254592485049670
     Eloc =    -3836.8707846415722997
      Enl =      822.2264278205112760
      Exc =     -517.2719668620677567
 Exc_core =       16.8665835907219304
       KE =      680.4960844142856331
-------------------------------------
     Etot =    -4755.0060453974856500
       TS =        0.5529524377182892
-------------------------------------
        F =    -4755.5589978352036269

IonicMinimize: Iter:   3  F: -4755.558997835203627  |grad|_K:  3.383e-03  alpha:  5.930e-01  linmin: -9.549e-01  t[s]:  16076.79

#--- Lowdin population analysis ---
# oxidation-state Co +0.018 +0.018 +0.017 +0.016 +0.017 +0.019 +0.017 +0.017 +0.018 +0.018 +0.017 +0.018 +0.020 +0.018 +0.018 +0.019 +0.019 +0.016 +0.019 +0.019 +0.017 +0.018 +0.019 +0.018 +0.016 +0.017 +0.017 +0.018 +0.018 +0.018 +0.018 +0.018


-------- Electronic minimization -----------
Will mix electronic density at each iteration.
	FillingsUpdate:  mu: +0.736789399  nElectrons: 544.000000
	FillingsUpdate:  mu: +0.730627811  nElectrons: 544.000000
SCF: Cycle:  0   F: -4729.041738169458768   dF: +2.333e+01   |Residual|: 2.826e+00   |deigs|: 5.583e-03  t[s]:  16231.58
	FillingsUpdate:  mu: +0.855628504  nElectrons: 544.000000
SCF: Cycle:  1   F: -4560.792826518189941   dF: +1.682e+02   |Residual|: 8.695e+00   |deigs|: 1.981e-01  t[s]:  16343.83
	FillingsUpdate:  mu: +0.782574036  nElectrons: 544.000000
SCF: Cycle:  2   F: -4686.345345268230631   dF: -1.256e+02   |Residual|: 5.586e+00   |deigs|: 1.240e-01  t[s]:  16458.38
	FillingsUpdate:  mu: +0.754295180  nElectrons: 544.000000
SCF: Cycle:  3   F: -4730.966495999629842   dF: -4.462e+01   |Residual|: 3.176e+00   |deigs|: 4.445e-02  t[s]:  16571.92
	FillingsUpdate:  mu: +0.748282718  nElectrons: 544.000000
SCF: Cycle:  4   F: -4731.993446395795218   dF: -1.027e+00   |Residual|: 2.964e+00   |deigs|: 1.925e-02  t[s]:  16684.97
	FillingsUpdate:  mu: +0.743228844  nElectrons: 544.000000
SCF: Cycle:  5   F: -4740.548808563288731   dF: -8.555e+00   |Residual|: 2.360e+00   |deigs|: 2.235e-02  t[s]:  16798.15
	FillingsUpdate:  mu: +0.743774381  nElectrons: 544.000000
SCF: Cycle:  6   F: -4727.602810581262929   dF: +1.295e+01   |Residual|: 3.093e+00   |deigs|: 1.061e-02  t[s]:  16920.52
	FillingsUpdate:  mu: +0.743905455  nElectrons: 544.000000
SCF: Cycle:  7   F: -4714.145187796086248   dF: +1.346e+01   |Residual|: 3.822e+00   |deigs|: 8.022e-03  t[s]:  17036.81
	FillingsUpdate:  mu: +0.738428622  nElectrons: 544.000000
SCF: Cycle:  8   F: -4750.253777893042752   dF: -3.611e+01   |Residual|: 1.409e+00   |deigs|: 1.769e-02  t[s]:  17150.95
	FillingsUpdate:  mu: +0.736638062  nElectrons: 544.000000
SCF: Cycle:  9   F: -4753.115600631825146   dF: -2.862e+00   |Residual|: 8.848e-01   |deigs|: 4.414e-03  t[s]:  17270.00
	FillingsUpdate:  mu: +0.736680311  nElectrons: 544.000000
SCF: Cycle: 10   F: -4752.889793735042986   dF: +2.258e-01   |Residual|: 9.272e-01   |deigs|: 2.683e-03  t[s]:  17390.90
	FillingsUpdate:  mu: +0.737215377  nElectrons: 544.000000
SCF: Cycle: 11   F: -4752.984183256847246   dF: -9.439e-02   |Residual|: 9.160e-01   |deigs|: 2.479e-03  t[s]:  17504.82
	FillingsUpdate:  mu: +0.738180904  nElectrons: 544.000000
SCF: Cycle: 12   F: -4754.542357991317658   dF: -1.558e+00   |Residual|: 6.435e-01   |deigs|: 4.029e-03  t[s]:  17618.87
	FillingsUpdate:  mu: +0.737279722  nElectrons: 544.000000
SCF: Cycle: 13   F: -4755.285880920650925   dF: -7.435e-01   |Residual|: 3.290e-01   |deigs|: 2.081e-03  t[s]:  17742.41
	FillingsUpdate:  mu: +0.737161501  nElectrons: 544.000000
SCF: Cycle: 14   F: -4755.188038504900760   dF: +9.784e-02   |Residual|: 3.936e-01   |deigs|: 7.535e-04  t[s]:  17844.14
	FillingsUpdate:  mu: +0.736861021  nElectrons: 544.000000
SCF: Cycle: 15   F: -4755.414296475664742   dF: -2.263e-01   |Residual|: 2.432e-01   |deigs|: 9.098e-04  t[s]:  17947.42
	FillingsUpdate:  mu: +0.736640268  nElectrons: 544.000000
SCF: Cycle: 16   F: -4755.468431350985156   dF: -5.413e-02   |Residual|: 2.024e-01   |deigs|: 3.464e-04  t[s]:  18040.39
	FillingsUpdate:  mu: +0.736763673  nElectrons: 544.000000
SCF: Cycle: 17   F: -4755.421765240249442   dF: +4.667e-02   |Residual|: 2.395e-01   |deigs|: 3.008e-04  t[s]:  18142.15
	FillingsUpdate:  mu: +0.736862256  nElectrons: 544.000000
SCF: Cycle: 18   F: -4755.469030675097201   dF: -4.727e-02   |Residual|: 1.926e-01   |deigs|: 3.666e-04  t[s]:  18220.18
	FillingsUpdate:  mu: +0.736993134  nElectrons: 544.000000
SCF: Cycle: 19   F: -4755.480538785020144   dF: -1.151e-02   |Residual|: 1.825e-01   |deigs|: 3.230e-04  t[s]:  18290.86
	FillingsUpdate:  mu: +0.736937782  nElectrons: 544.000000
SCF: Cycle: 20   F: -4755.541968872407779   dF: -6.143e-02   |Residual|: 9.340e-02   |deigs|: 3.413e-04  t[s]:  18362.86
	FillingsUpdate:  mu: +0.736889504  nElectrons: 544.000000
SCF: Cycle: 21   F: -4755.522007854453477   dF: +1.996e-02   |Residual|: 1.227e-01   |deigs|: 1.619e-04  t[s]:  18438.53
	FillingsUpdate:  mu: +0.736834474  nElectrons: 544.000000
SCF: Cycle: 22   F: -4755.545422626444633   dF: -2.341e-02   |Residual|: 8.063e-02   |deigs|: 1.649e-04  t[s]:  18514.65
	FillingsUpdate:  mu: +0.736590524  nElectrons: 544.000000
SCF: Cycle: 23   F: -4755.530711005117155   dF: +1.471e-02   |Residual|: 1.126e-01   |deigs|: 2.707e-04  t[s]:  18584.95
	FillingsUpdate:  mu: +0.736696711  nElectrons: 544.000000
SCF: Cycle: 24   F: -4755.534929569588712   dF: -4.219e-03   |Residual|: 1.037e-01   |deigs|: 1.646e-04  t[s]:  18658.92
	FillingsUpdate:  mu: +0.736696327  nElectrons: 544.000000
SCF: Cycle: 25   F: -4755.558131626900831   dF: -2.320e-02   |Residual|: 4.694e-02   |deigs|: 1.698e-04  t[s]:  18730.59
	FillingsUpdate:  mu: +0.736702840  nElectrons: 544.000000
SCF: Cycle: 26   F: -4755.563581885773601   dF: -5.450e-03   |Residual|: 7.704e-03   |deigs|: 7.726e-05  t[s]:  18802.54
	FillingsUpdate:  mu: +0.736727271  nElectrons: 544.000000
SCF: Cycle: 27   F: -4755.563096264975684   dF: +4.856e-04   |Residual|: 1.491e-02   |deigs|: 2.864e-05  t[s]:  18878.33
	FillingsUpdate:  mu: +0.736760032  nElectrons: 544.000000
SCF: Cycle: 28   F: -4755.563662309739811   dF: -5.660e-04   |Residual|: 5.163e-03   |deigs|: 3.535e-05  t[s]:  18948.31
	FillingsUpdate:  mu: +0.736759712  nElectrons: 544.000000
SCF: Cycle: 29   F: -4755.563677818926408   dF: -1.551e-05   |Residual|: 4.805e-03   |deigs|: 5.841e-06  t[s]:  19020.84
	FillingsUpdate:  mu: +0.736747011  nElectrons: 544.000000
SCF: Cycle: 30   F: -4755.563601001164898   dF: +7.682e-05   |Residual|: 7.225e-03   |deigs|: 1.319e-05  t[s]:  19092.19
	FillingsUpdate:  mu: +0.736735397  nElectrons: 544.000000
SCF: Cycle: 31   F: -4755.563540336404913   dF: +6.066e-05   |Residual|: 8.524e-03   |deigs|: 1.500e-05  t[s]:  19166.63
	FillingsUpdate:  mu: +0.736729616  nElectrons: 544.000000
SCF: Cycle: 32   F: -4755.563721014053044   dF: -1.807e-04   |Residual|: 2.238e-03   |deigs|: 1.148e-05  t[s]:  19240.45
	FillingsUpdate:  mu: +0.736731063  nElectrons: 544.000000
SCF: Cycle: 33   F: -4755.563708228030919   dF: +1.279e-05   |Residual|: 3.078e-03   |deigs|: 4.392e-06  t[s]:  19311.27
	FillingsUpdate:  mu: +0.736735678  nElectrons: 544.000000
SCF: Cycle: 34   F: -4755.563724980268489   dF: -1.675e-05   |Residual|: 1.693e-03   |deigs|: 5.457e-06  t[s]:  19382.38
	FillingsUpdate:  mu: +0.736740858  nElectrons: 544.000000
SCF: Cycle: 35   F: -4755.563725536230777   dF: -5.560e-07   |Residual|: 1.632e-03   |deigs|: 5.293e-06  t[s]:  19453.37
	FillingsUpdate:  mu: +0.736743824  nElectrons: 544.000000
SCF: Cycle: 36   F: -4755.563693634745505   dF: +3.190e-05   |Residual|: 3.837e-03   |deigs|: 5.415e-06  t[s]:  19526.94
	FillingsUpdate:  mu: +0.736746574  nElectrons: 544.000000
SCF: Cycle: 37   F: -4755.563695570455820   dF: -1.936e-06   |Residual|: 3.739e-03   |deigs|: 5.031e-06  t[s]:  19601.56
	FillingsUpdate:  mu: +0.736743291  nElectrons: 544.000000
SCF: Cycle: 38   F: -4755.563729998460076   dF: -3.443e-05   |Residual|: 1.005e-03   |deigs|: 4.393e-06  t[s]:  19677.47
	FillingsUpdate:  mu: +0.736741793  nElectrons: 544.000000
SCF: Cycle: 39   F: -4755.563731767450918   dF: -1.769e-06   |Residual|: 6.451e-04   |deigs|: 1.972e-06  t[s]:  19750.13
	FillingsUpdate:  mu: +0.736740041  nElectrons: 544.000000
SCF: Cycle: 40   F: -4755.563732004195117   dF: -2.367e-07   |Residual|: 6.039e-04   |deigs|: 1.813e-06  t[s]:  19829.52
	FillingsUpdate:  mu: +0.736739786  nElectrons: 544.000000
SCF: Cycle: 41   F: -4755.563732791063558   dF: -7.869e-07   |Residual|: 2.083e-04   |deigs|: 6.665e-07  t[s]:  19902.49
	FillingsUpdate:  mu: +0.736739815  nElectrons: 544.000000
SCF: Cycle: 42   F: -4755.563732626600540   dF: +1.645e-07   |Residual|: 3.124e-04   |deigs|: 4.788e-07  t[s]:  19976.27
[...]
force Co  -0.000674829730636  -0.005152432635036   0.001642203710146 1
force Co  -0.001901921276243  -0.001474791995347  -0.001311921829382 1
force Co   0.003213026175048  -0.000627344439217  -0.003633806590483 1
force Co  -0.000121738238121   0.005420375971753   0.003047902652174 1
force Co   0.002478112930733   0.013143000572536   0.005740428516668 1
force Co  -0.000808487141602   0.001721875747896   0.002780404836309 1
force Co   0.008981484454102  -0.001300749414048  -0.000148084101061 1
force Co  -0.004588996629825   0.004907471235821   0.002503223503178 1
force Co   0.002410859161983   0.005916930356284   0.003003915524668 1
force Co  -0.003647872953273   0.001812012244383  -0.002105325101567 1
force Co  -0.005115877087445  -0.001448088181640  -0.003854890078482 1
force Co   0.002594850389925  -0.001225839782304   0.000362030825221 1
force Co  -0.003654645296911  -0.006730541735879  -0.001928207182824 1
force Co   0.001466564250577   0.000804051961533   0.000146655189027 1
force Co   0.005932939718436  -0.000652482009709  -0.000155555493167 1
force Co   0.000997956565498   0.004960995525944  -0.002373068565688 1
force Co   0.000499021029843   0.001678372985200   0.000348003977307 1
force Co   0.003183807169920   0.002617752129843   0.002290097476864 1
force Co  -0.003338383677158   0.004910143115765   0.004130121733875 1
force Co   0.003800103017605  -0.002767951640348  -0.001410065951407 1
force Co  -0.000547565479643  -0.001952968129668   0.001076338114886 1
force Co   0.000022631841424  -0.000353552316097  -0.004238980291439 1
force Co  -0.003697900298517   0.000849110834180   0.000263606845694 1
force Co   0.000242611980202  -0.001274741084621   0.000960677038486 1
force Co  -0.000612169806002  -0.002553428149385   0.001938023885884 1
force Co   0.003358444751464  -0.000197065173020  -0.000854695679470 1
force Co   0.004740139408332  -0.001183856605712   0.002419560724210 1
force Co  -0.000064011884255   0.005372881791590  -0.001495486220248 1
force Co   0.006544225368335   0.003483528147840   0.005002947448524 1

# Energy components:
   Eewald =    -3277.9768122570558262
       EH =     1356.7257578092917356
     Eloc =    -3836.0533829194255304
      Enl =      822.2205052874376179
      Exc =     -517.2642761533211342
 Exc_core =       16.8658676303070862
       KE =      680.4710146807833553
-------------------------------------
     Etot =    -4755.0113259219815518
       TS =        0.5526721986610488
-------------------------------------
        F =    -4755.5639981206422817

IonicMinimize: Iter:   8  F: -4755.563998120642282  |grad|_K:  2.582e-04  alpha:  1.000e+00  linmin:  2.724e-01  t[s]:  24815.72

#--- Lowdin population analysis ---
# oxidation-state Co +0.018 +0.018 +0.018 +0.018 +0.018 +0.018 +0.018 +0.018 +0.018 +0.018 +0.018 +0.018 +0.018 +0.018 +0.018 +0.018 +0.018 +0.018 +0.018 +0.018 +0.018 +0.018 +0.018 +0.018 +0.018 +0.018 +0.018 +0.018 +0.018 +0.018 +0.018 +0.018


-------- Electronic minimization -----------
Will mix electronic density at each iteration.
	FillingsUpdate:  mu: +0.736738980  nElectrons: 544.000000
	FillingsUpdate:  mu: +0.736740741  nElectrons: 544.000000
SCF: Cycle:  0   F: -4755.563929929361620   dF: +3.016e-05   |Residual|: 4.653e-03   |deigs|: 1.462e-06  t[s]:  24935.14
	FillingsUpdate:  mu: +0.736738014  nElectrons: 544.000000
SCF: Cycle:  1   F: -4755.555845612259873   dF: +8.084e-03   |Residual|: 5.224e-02   |deigs|: 9.654e-05  t[s]:  25008.51
	FillingsUpdate:  mu: +0.736737314  nElectrons: 544.000000
SCF: Cycle:  2   F: -4755.563981576924562   dF: -8.136e-03   |Residual|: 4.039e-03   |deigs|: 1.003e-04  t[s]:  25078.35
	FillingsUpdate:  mu: +0.736738296  nElectrons: 544.000000
SCF: Cycle:  3   F: -4755.563728252745932   dF: +2.533e-04   |Residual|: 9.798e-03   |deigs|: 1.261e-05  t[s]:  25152.94
	FillingsUpdate:  mu: +0.736740565  nElectrons: 544.000000
SCF: Cycle:  4   F: -4755.564009670079940   dF: -2.814e-04   |Residual|: 1.699e-03   |deigs|: 1.254e-05  t[s]:  25225.28
	FillingsUpdate:  mu: +0.736740119  nElectrons: 544.000000
SCF: Cycle:  5   F: -4755.564013771779173   dF: -4.102e-06   |Residual|: 1.037e-03   |deigs|: 2.293e-06  t[s]:  25298.37
	FillingsUpdate:  mu: +0.736736560  nElectrons: 544.000000
SCF: Cycle:  6   F: -4755.564014221302386   dF: -4.495e-07   |Residual|: 8.717e-04   |deigs|: 3.301e-06  t[s]:  25370.88
	FillingsUpdate:  mu: +0.736736770  nElectrons: 544.000000
SCF: Cycle:  7   F: -4755.564015930543974   dF: -1.709e-06   |Residual|: 3.270e-04   |deigs|: 8.160e-07  t[s]:  25444.39
	FillingsUpdate:  mu: +0.736738721  nElectrons: 544.000000
SCF: Cycle:  8   F: -4755.564015618500889   dF: +3.120e-07   |Residual|: 4.618e-04   |deigs|: 1.786e-06  t[s]:  25515.00
	FillingsUpdate:  mu: +0.736739435  nElectrons: 544.000000
SCF: Cycle:  9   F: -4755.564016222082500   dF: -6.036e-07   |Residual|: 5.807e-05   |deigs|: 7.415e-07  t[s]:  25586.83
	FillingsUpdate:  mu: +0.736738823  nElectrons: 544.000000
SCF: Cycle: 10   F: -4755.564016170495961   dF: +5.159e-08   |Residual|: 1.583e-04   |deigs|: 5.582e-07  t[s]:  25646.32
	FillingsUpdate:  mu: +0.736738689  nElectrons: 544.000000
SCF: Cycle: 11   F: -4755.564016226773674   dF: -5.628e-08   |Residual|: 3.189e-05   |deigs|: 1.833e-07  t[s]:  25722.14
	FillingsUpdate:  mu: +0.736738732  nElectrons: 544.000000
SCF: Cycle: 12   F: -4755.564016222876489   dF: +3.897e-09   |Residual|: 5.454e-05   |deigs|: 8.490e-08  t[s]:  25791.51
	FillingsUpdate:  mu: +0.736738766  nElectrons: 544.000000
SCF: Cycle: 13   F: -4755.564016228835499   dF: -5.959e-09   |Residual|: 1.484e-05   |deigs|: 6.223e-08  t[s]:  25862.96
	FillingsUpdate:  mu: +0.736738743  nElectrons: 544.000000
SCF: Cycle: 14   F: -4755.564016228991932   dF: -1.564e-10   |Residual|: 1.232e-05   |deigs|: 4.042e-08  t[s]:  25905.32
SCF: Converged (|Delta E|<1.000000e-08 for 2 iters).

Setting wave functions to eigenvectors of Hamiltonian

# Ionic positions in lattice coordinates:
ion Co   0.000000000000000   0.000000000000000   0.000000000000000 0
ion Co  -0.000062970443788   0.249555767498984   0.250482083650071 1
ion Co   0.249680186276722  -0.000371654640839   0.250246905857454 1
ion Co   0.250004500760835   0.249913645164119   0.000198960523095 1
ion Co  -0.000085528955006  -0.000257468361522   0.500313052042954 1
ion Co  -0.000186763928216   0.249754029277586   0.750245293428988 1
ion Co   0.250004231785821  -0.000294012637497   0.750341431286995 1
ion Co   0.249797286624270   0.249633578175230   0.500584560693527 1
ion Co   0.000008345356033   0.499693122672510   0.000388605631711 1
ion Co  -0.000081475306032   0.749826986519811   0.250310533202184 1
ion Co   0.249866991561321   0.499687797206965   0.250317630909830 1
ion Co   0.249707728900262   0.749493309880067   0.000535396211003 1
ion Co  -0.000073302931432   0.499616820422562   0.500264931519235 1
ion Co  -0.000105720272013   0.749532932059614   0.750521436334562 1
ion Co   0.249793248553796   0.499641797713624   0.750312499021415 1
ion Co   0.249918655359153   0.749791311590562   0.500168593752000 1
ion Co   0.499862522662384  -0.000287553046328   0.000341306644662 1
ion Co   0.499910452137058   0.249748732054318   0.250428542879106 1
ion Co   0.750054505339670  -0.000407654131532   0.250421765130777 1
ion Co   0.749821754254538   0.249558777202006   0.000473344689377 1
ion Co   0.500006042531658  -0.000296602665495   0.500308499557527 1
ion Co   0.499934330203477   0.249579080384016   0.750358238354983 1
ion Co   0.749813184232317  -0.000191608735942   0.750299253345459 1
ion Co   0.750011377919907   0.249723942910803   0.500279827820762 1
ion Co   0.499931535416258   0.499628167232786   0.000464072084057 1
ion Co   0.499953375345021   0.749522608291821   0.250381122825000 1
ion Co   0.749950826685115   0.499608707122169   0.250397723790031 1
ion Co   0.750064421832213   0.749828028563827   0.000212437058886 1
ion Co   0.499852351965672   0.499683341451684   0.500471405898802 1
ion Co   0.499877031991852   0.749660024928597   0.750420300571059 1
ion Co   0.749977933450281   0.499572724405194   0.750424496755579 1
ion Co   0.749876889481827   0.749487929707647   0.500422623425996 1

# Forces in Lattice coordinates:
force Co  -0.000706815761485  -0.004034533850457   0.004585469445031 0
force Co   0.000633875620925   0.001960427074099  -0.003143918298674 1
force Co   0.005988666701602   0.003100858587573   0.001445861950684 1
force Co  -0.000903825686362  -0.003607954856454   0.002794285000441 1
force Co  -0.000550654094827  -0.003034893183974   0.002972162719088 1
force Co   0.001196302549213  -0.000514428974563   0.002470895050461 1
force Co  -0.001274560670892  -0.002056617658594   0.000220364563682 1
force Co   0.002906555637526  -0.000349806330084  -0.004064298236002 1
force Co  -0.003709069702224  -0.001955214444469   0.000837561669614 1
force Co  -0.001620662625186  -0.001909982316329   0.000779268470049 1
force Co   0.001079042620701  -0.001325665075623   0.002780393666269 1
force Co   0.004646872519593   0.004239530708908  -0.003041276772499 1
force Co   0.000668714878510   0.003285699164578   0.001135447110193 1
force Co   0.001036018609809   0.003363331170561  -0.004224529617033 1
force Co   0.003054850310839   0.002495505810306   0.000374074121866 1
force Co   0.000142816982553  -0.000900367234763   0.004037918185327 1
force Co   0.000031682498642  -0.001776704907153   0.002493031728552 1
force Co  -0.001473718280838  -0.002272716936990   0.000096332331835 1
force Co  -0.003166591529222   0.000613208520584  -0.001350291060825 1
force Co   0.001466881341422   0.001853775707331  -0.000423511158885 1
force Co  -0.001471542069468  -0.000744717081894  -0.000874284310281 1
force Co   0.000513623712883   0.002462907432333   0.000019054498444 1
force Co   0.001510071158183  -0.002468714153017  -0.000063595480028 1
force Co  -0.002453492592158  -0.000255059963716   0.000943868795451 1
force Co   0.000980939857906   0.002022374475640  -0.002393401078946 1
force Co   0.000379750192122   0.003562858651620  -0.000511758028904 1
force Co  -0.000298945632073   0.002087124696780  -0.001273152167363 1
force Co  -0.002573575812855  -0.001670468942093   0.002328095304937 1
force Co   0.000364313543359  -0.000736572944988  -0.000361998809248 1
force Co  -0.000284966169282   0.000060868514894   0.000035694296881 1
force Co  -0.001965189619761   0.001355925980009   0.000348189346230 1
force Co   0.000980733989624   0.003204676492867   0.000741796927009 1

# Energy components:
   Eewald =    -3277.9779846152659957
       EH =     1356.7246337644846790
     Eloc =    -3836.0510527556593843
      Enl =      822.2205118078632040
      Exc =     -517.2642589960033774
 Exc_core =       16.8658634246946804
       KE =      680.4709423212269712
-------------------------------------
     Etot =    -4755.0113450486578586
       TS =        0.5526711803338760
-------------------------------------
        F =    -4755.5640162289919317

IonicMinimize: Iter:   9  F: -4755.564016228991932  |grad|_K:  1.650e-04  alpha:  1.000e+00  linmin:  1.789e-01  t[s]:  25918.98

#--- Lowdin population analysis ---
# oxidation-state Co +0.018 +0.018 +0.018 +0.018 +0.018 +0.018 +0.018 +0.018 +0.018 +0.018 +0.018 +0.018 +0.018 +0.018 +0.018 +0.018 +0.018 +0.018 +0.018 +0.018 +0.018 +0.018 +0.018 +0.018 +0.018 +0.018 +0.018 +0.018 +0.018 +0.018 +0.018 +0.018


-------- Electronic minimization -----------
Will mix electronic density at each iteration.
	FillingsUpdate:  mu: +0.736738743  nElectrons: 544.000000
	FillingsUpdate:  mu: +0.736739148  nElectrons: 544.000000
SCF: Cycle:  0   F: -4755.563983081611696   dF: +2.682e-05   |Residual|: 2.956e-03   |deigs|: 4.273e-07  t[s]:  26039.32
	FillingsUpdate:  mu: +0.736738765  nElectrons: 544.000000
SCF: Cycle:  1   F: -4755.559820501936883   dF: +4.163e-03   |Residual|: 3.592e-02   |deigs|: 7.135e-05  t[s]:  26112.98
	FillingsUpdate:  mu: +0.736738350  nElectrons: 544.000000
SCF: Cycle:  2   F: -4755.564011066559033   dF: -4.191e-03   |Residual|: 2.314e-03   |deigs|: 7.236e-05  t[s]:  26187.00
	FillingsUpdate:  mu: +0.736738569  nElectrons: 544.000000
SCF: Cycle:  3   F: -4755.563951113638723   dF: +5.995e-05   |Residual|: 5.143e-03   |deigs|: 5.759e-06  t[s]:  26257.55
	FillingsUpdate:  mu: +0.736739029  nElectrons: 544.000000
SCF: Cycle:  4   F: -4755.564021882402812   dF: -7.077e-05   |Residual|: 8.834e-04   |deigs|: 7.763e-06  t[s]:  26327.65
	FillingsUpdate:  mu: +0.736738939  nElectrons: 544.000000
SCF: Cycle:  5   F: -4755.564022824240055   dF: -9.418e-07   |Residual|: 5.826e-04   |deigs|: 1.208e-06  t[s]:  26397.82
	FillingsUpdate:  mu: +0.736738111  nElectrons: 544.000000
SCF: Cycle:  6   F: -4755.564023421611637   dF: -5.974e-07   |Residual|: 2.687e-04   |deigs|: 9.350e-07  t[s]:  26468.96
	FillingsUpdate:  mu: +0.736738236  nElectrons: 544.000000
SCF: Cycle:  7   F: -4755.564023516909401   dF: -9.530e-08   |Residual|: 1.881e-04   |deigs|: 2.484e-07  t[s]:  26535.77
	FillingsUpdate:  mu: +0.736738987  nElectrons: 544.000000
SCF: Cycle:  8   F: -4755.564023513830762   dF: +3.079e-09   |Residual|: 1.903e-04   |deigs|: 6.959e-07  t[s]:  26608.01
	FillingsUpdate:  mu: +0.736739063  nElectrons: 544.000000
SCF: Cycle:  9   F: -4755.564023619936961   dF: -1.061e-07   |Residual|: 2.456e-05   |deigs|: 1.765e-07  t[s]:  26676.47
	FillingsUpdate:  mu: +0.736738631  nElectrons: 544.000000
SCF: Cycle: 10   F: -4755.564023617887869   dF: +2.049e-09   |Residual|: 3.711e-05   |deigs|: 3.785e-07  t[s]:  26727.73
	FillingsUpdate:  mu: +0.736738586  nElectrons: 544.000000
SCF: Cycle: 11   F: -4755.564023620685475   dF: -2.798e-09   |Residual|: 1.781e-05   |deigs|: 5.513e-08  t[s]:  26789.41
	FillingsUpdate:  mu: +0.736738662  nElectrons: 544.000000
SCF: Cycle: 12   F: -4755.564023620259832   dF: +4.256e-10   |Residual|: 1.865e-05   |deigs|: 7.575e-08  t[s]:  26829.37
	FillingsUpdate:  mu: +0.736738685  nElectrons: 544.000000
SCF: Cycle: 13   F: -4755.564023620991975   dF: -7.321e-10   |Residual|: 9.717e-06   |deigs|: 3.063e-08  t[s]:  26868.57
	FillingsUpdate:  mu: +0.736738677  nElectrons: 544.000000
SCF: Cycle: 14   F: -4755.564023621264823   dF: -2.728e-10   |Residual|: 1.203e-05   |deigs|: 2.630e-08  t[s]:  26907.07
SCF: Converged (|Delta E|<1.000000e-08 for 2 iters).

Setting wave functions to eigenvectors of Hamiltonian

# Ionic positions in lattice coordinates:
ion Co   0.000000000000000   0.000000000000000   0.000000000000000 0
ion Co   0.000026807619810   0.249584250782380   0.250459709137821 1
ion Co   0.249927700639791  -0.000295769511555   0.250382329358128 1
ion Co   0.250045604534980   0.249746390852438   0.000387034385169 1
ion Co   0.000021684145088  -0.000358091896955   0.500446727887400 1
ion Co  -0.000040773084955   0.249727742725229   0.750357379409082 1
ion Co   0.250056576770811  -0.000359729145961   0.750401059052285 1
ion Co   0.249988196709833   0.249654195317417   0.500524368542000 1
ion Co   0.000004553423365   0.499621104792107   0.000472163365505 1
ion Co  -0.000005599601797   0.749759863141674   0.250367403212741 1
ion Co   0.249981750988059   0.499639340630514   0.250466005760640 1
ion Co   0.249932911046940   0.749645067972565   0.000496897408803 1
ion Co   0.000002600407120   0.499705609915651   0.500346606460466 1
ion Co   0.000001877385253   0.749606205180023   0.750472874476408 1
ion Co   0.249974136469581   0.499705348173563   0.750413804429697 1
ion Co   0.250003834837221   0.749694350389477   0.500391586679719 1
ion Co   0.499975621559720  -0.000359706555810   0.000489067305614 1
ion Co   0.499966645445806   0.249656649913200   0.250495997346884 1
ion Co   0.750055566088231  -0.000402785593637   0.250424744259187 1
ion Co   0.749948742402212   0.249631854913301   0.000500468825143 1
ion Co   0.500021816217713  -0.000330679492207   0.500369903549930 1
ion Co   0.500013912792518   0.249635395353150   0.750454554492034 1
ion Co   0.749928052657280  -0.000285532924327   0.750355953084930 1
ion Co   0.750007683596250   0.249656498311357   0.500402733214830 1
ion Co   0.500007769181631   0.499673389246229   0.000473335811849 1
ion Co   0.500022235531609   0.749623985776882   0.250460936190150 1
ion Co   0.750020230870016   0.499649572136616   0.250441454573744 1
ion Co   0.750058127272591   0.749728868474218   0.000386152981032 1
ion Co   0.499980364302975   0.499656096482470   0.500531201254367 1
ion Co   0.499970575549256   0.749640318537921   0.750492700429737 1
ion Co   0.750001780417827   0.499606390812282   0.750496521501803 1
ion Co   0.750011613211035   0.749593465398235   0.500478023941795 1

# Forces in Lattice coordinates:
force Co   0.000289420256715  -0.005002980428537   0.007003723372551 0
force Co  -0.000566376529373   0.001050055022223  -0.000391239621784 1
force Co   0.000555370058417  -0.000090049873109   0.000233065740426 1
force Co  -0.000489769124976  -0.000663334769256   0.000432327836938 1
force Co  -0.000743806090756  -0.000091696566140   0.000036344190826 1
force Co   0.000592285931130   0.000416820347654   0.000338533418318 1
force Co  -0.000607565685433   0.000324237652465   0.000327075890479 1
force Co  -0.000367296807954  -0.000054696221001  -0.001298958929420 1
force Co  -0.000726110768205   0.000181705508128   0.000206562509924 1
force Co  -0.000175166539520  -0.000406966397739  -0.000060525319740 1
force Co   0.000055765942843   0.000101560820863   0.000121218915892 1
force Co   0.000173634226706   0.000574423259852  -0.000478928366913 1
force Co  -0.000040392258769  -0.000025427777539   0.000856834913920 1
force Co  -0.000247517171268   0.000650069229064  -0.000716532211756 1
force Co  -0.000040909633728  -0.000264772497287   0.000551018446333 1
force Co  -0.000210695445172  -0.000207229708879   0.000372944801290 1
force Co  -0.000117104238424   0.000061031525939  -0.000030834324689 1
force Co   0.000086326120476   0.000262564870566  -0.000596441418690 1
force Co  -0.000422108781227   0.001115372280164  -0.000178494363487 1
force Co   0.000040369183853   0.000560917853357  -0.000219133549512 1
force Co  -0.000576982162303  -0.000278706579733   0.000329429434632 1
force Co  -0.000469644550651   0.000474463698401   0.000130351152263 1
force Co   0.000579245150000  -0.000748734104275   0.000800136627690 1
force Co  -0.000023551724493   0.000570921651141  -0.000041644971641 1
force Co  -0.000233029241983   0.000307388468059  -0.000173297355282 1
force Co  -0.000518572890055   0.000318047773411  -0.000142281186133 1
force Co  -0.000529540743389   0.000411823034207  -0.000124033052165 1
force Co  -0.000449177076289  -0.000564282600852   0.000490600813290 1
force Co   0.000042247862776  -0.000243828414167  -0.001126000820739 1
force Co   0.000199091779509   0.000456415279821  -0.000549679779798 1
force Co  -0.000080842026212   0.000713703646763  -0.000439294557539 1
force Co  -0.000447067262848   0.000799081361530  -0.000197573760822 1

# Energy components:
   Eewald =    -3277.9792287144600778
       EH =     1356.7234412408556636
     Eloc =    -3836.0486028763493778
      Enl =      822.2205321080798512
      Exc =     -517.2642496875578217
 Exc_core =       16.8658627343018850
       KE =      680.4708927107348018
-------------------------------------
     Etot =    -4755.0113524843945925
       TS =        0.5526711368698958
-------------------------------------
        F =    -4755.5640236212648233

IonicMinimize: Iter:  10  F: -4755.564023621264823  |grad|_K:  3.635e-05  alpha:  1.000e+00  linmin: -9.914e-02  t[s]:  26919.99
IonicMinimize: Converged (|grad|_K<1.000000e-04).

#--- Lowdin population analysis ---
# oxidation-state Co +0.018 +0.018 +0.018 +0.018 +0.018 +0.018 +0.018 +0.018 +0.018 +0.018 +0.018 +0.018 +0.018 +0.018 +0.018 +0.018 +0.018 +0.018 +0.018 +0.018 +0.018 +0.018 +0.018 +0.018 +0.018 +0.018 +0.018 +0.018 +0.018 +0.018 +0.018 +0.018


Dumping 'Co_ion.Ecomponents' ... done
End date and time: Mon Jun 17 03:26:05 2024  (Duration: 0-7:28:50.53)
Done!
