--------------------------------------------------------------------------
Initialization of PSM library failed.

  Error: PSM is in the finalized state
--------------------------------------------------------------------------

*************** JDFTx 1.7.0 (git hash 3664913) ***************

Start date and time: Mon Jun 17 12:25:03 2024
Executable jdftx with command-line: -i Co_oct.in
Running on hosts (process indices):  node3204.physics.cornell.edu (0-15)
Divided in process groups (process indices):  0 (0)  1 (1)  2 (2)  3 (3)  4 (4)  5 (5)  6 (6)  7 (7)  8 (8)  9 (9)  10 (10)  11 (11)  12 (12)  13 (13)  14 (14)  15 (15)
Resource initialization completed at t[s]:      0.00
Run totals: 16 processes, 32 threads, 0 GPUs


Input parsed successfully to the following command list (including defaults):

basis kpoint-dependent
coords-type Lattice
core-overlap-check vector
coulomb-interaction Periodic
davidson-band-ratio 1.1
dump End Ecomponents
dump-name $INPUT.$VAR
elec-cutoff 20 100
elec-eigen-algo Davidson
elec-ex-corr gga-PBEsol
elec-smearing Fermi 0.01
electronic-minimize  \
	dirUpdateScheme      FletcherReeves \
	linminMethod         DirUpdateRecommended \
	nIterations          100 \
	history              15 \
	knormThreshold       0 \
	maxThreshold         no \
	energyDiffThreshold  1e-08 \
	nEnergyDiff          2 \
	alphaTstart          1 \
	alphaTmin            1e-10 \
	updateTestStepSize   yes \
	alphaTreduceFactor   0.1 \
	alphaTincreaseFactor 3 \
	nAlphaAdjustMax      3 \
	wolfeEnergy          0.0001 \
	wolfeGradient        0.9 \
	fdTest               no
electronic-scf  \
	nIterations	50 \
	energyDiffThreshold	1e-08 \
	residualThreshold	1e-07 \
	mixFraction	0.5 \
	qMetric	0.8 \
	history	10 \
	nEigSteps	2 \
	eigDiffThreshold	1e-08 \
	mixedVariable	Density \
	qKerker	0.8 \
	qKappa	-1 \
	verbose	no \
	mixFractionMag	1.5
exchange-regularization WignerSeitzTruncated
fluid None
fluid-ex-corr lda-TF lda-PZ
fluid-gummel-loop 10 1.000000e-05
fluid-minimize  \
	dirUpdateScheme      PolakRibiere \
	linminMethod         DirUpdateRecommended \
	nIterations          100 \
	history              15 \
	knormThreshold       0 \
	maxThreshold         no \
	energyDiffThreshold  0 \
	nEnergyDiff          2 \
	alphaTstart          1 \
	alphaTmin            1e-10 \
	updateTestStepSize   yes \
	alphaTreduceFactor   0.1 \
	alphaTincreaseFactor 3 \
	nAlphaAdjustMax      3 \
	wolfeEnergy          0.0001 \
	wolfeGradient        0.9 \
	fdTest               no
fluid-solvent H2O 55.338 ScalarEOS \
	epsBulk 78.4 \
	pMol 0.92466 \
	epsInf 1.77 \
	Pvap 1.06736e-10 \
	sigmaBulk 4.62e-05 \
	Rvdw 2.61727 \
	Res 1.42 \
	tauNuc 343133 \
	poleEl 15 7 1
forces-output-coords Positions
ion Co  -0.000000000000000   0.000000000000000  -0.000000000000000 1
ion Co  -0.015420000000000   0.250840000000000   0.234650000000000 1
ion Co   0.268950000000000   0.000980000000000   0.234180000000000 1
ion Co   0.245150000000000   0.248630000000000  -0.015840000000000 1
ion Co   0.008980000000000  -0.003980000000000   0.504950000000000 1
ion Co  -0.017480000000000   0.259230000000000   0.744520000000000 1
ion Co   0.276120000000000   0.001830000000000   0.765730000000000 1
ion Co   0.254490000000000   0.254610000000000   0.491160000000000 1
ion Co  -0.009400000000000   0.493780000000000   0.004350000000000 1
ion Co   0.012250000000000   0.762830000000000   0.261530000000000 1
ion Co   0.252120000000000   0.505150000000000   0.255740000000000 1
ion Co   0.253530000000000   0.758720000000000  -0.014090000000000 1
ion Co  -0.005070000000000   0.486960000000000   0.508170000000000 1
ion Co   0.005290000000000   0.756870000000000   0.752480000000000 1
ion Co   0.240230000000000   0.495400000000000   0.743830000000000 1
ion Co   0.255240000000000   0.752220000000000   0.502580000000000 1
ion Co   0.510320000000000  -0.005520000000000  -0.007570000000000 1
ion Co   0.493970000000000   0.252900000000000   0.260100000000000 1
ion Co   0.743080000000000  -0.000680000000000   0.233050000000000 1
ion Co   0.752630000000000   0.248760000000000  -0.009390000000000 1
ion Co   0.498860000000000  -0.000750000000000   0.497850000000000 1
ion Co   0.476320000000000   0.243570000000000   0.759140000000000 1
ion Co   0.764290000000000  -0.011520000000000   0.732230000000000 1
ion Co   0.763850000000000   0.243430000000000   0.501530000000000 1
ion Co   0.479450000000000   0.503760000000000   0.012140000000000 1
ion Co   0.485150000000000   0.761940000000000   0.261150000000000 1
ion Co   0.745070000000000   0.498250000000000   0.246330000000000 1
ion Co   0.753100000000000   0.747720000000000  -0.008950000000000 1
ion Co   0.498980000000000   0.505240000000000   0.501930000000000 1
ion Co   0.504490000000000   0.750890000000000   0.742420000000000 1
ion Co   0.746450000000000   0.505790000000000   0.764440000000000 1
ion Co   0.747700000000000   0.744710000000000   0.504070000000000 1
ion O   0.220000000000000   0.290000000000000   0.300000000000000 1
ion-species GBRV/$ID_pbesol.uspp
ion-width 0
ionic-minimize  \
	dirUpdateScheme      L-BFGS \
	linminMethod         DirUpdateRecommended \
	nIterations          30 \
	history              15 \
	knormThreshold       0.0001 \
	maxThreshold         no \
	energyDiffThreshold  1e-06 \
	nEnergyDiff          2 \
	alphaTstart          1 \
	alphaTmin            1e-10 \
	updateTestStepSize   yes \
	alphaTreduceFactor   0.1 \
	alphaTincreaseFactor 3 \
	nAlphaAdjustMax      3 \
	wolfeEnergy          0.0001 \
	wolfeGradient        0.9 \
	fdTest               no
kpoint   0.000000000000   0.000000000000   0.000000000000  1.00000000000000
kpoint-folding 4 4 4 
latt-move-scale 1 1 1
latt-scale 1 1 1 
lattice  \
	  12.935042626558744    0.000000000000000    0.000000000000000  \
	   0.000000000000000   12.935042626558744    0.000000000000000  \
	   0.000000000000000    0.000000000000000   12.935042626558744 
lattice-minimize  \
	dirUpdateScheme      L-BFGS \
	linminMethod         DirUpdateRecommended \
	nIterations          0 \
	history              15 \
	knormThreshold       0 \
	maxThreshold         no \
	energyDiffThreshold  1e-06 \
	nEnergyDiff          2 \
	alphaTstart          1 \
	alphaTmin            1e-10 \
	updateTestStepSize   yes \
	alphaTreduceFactor   0.1 \
	alphaTincreaseFactor 3 \
	nAlphaAdjustMax      3 \
	wolfeEnergy          0.0001 \
	wolfeGradient        0.9 \
	fdTest               no
lcao-params -1 1e-06 0.01
pcm-variant GLSSA13
perturb-minimize  \
	nIterations            0 \
	algorithm              MINRES \
	residualTol            0.0001 \
	residualDiffThreshold  0.0001 \
	CGBypass               no \
	recomputeResidual      no
spintype no-spin
subspace-rotation-factor 1 yes
symmetries automatic
symmetry-threshold 0.0001



---------- Setting up symmetries ----------

Found 48 point-group symmetries of the bravais lattice
Found 1 space-group symmetries with basis
Applied RMS atom displacement 0 bohrs to make symmetries exact.

---------- Initializing the Grid ----------
R = 
[       12.935            0            0  ]
[            0       12.935            0  ]
[            0            0       12.935  ]
unit cell volume = 2164.23
G =
[   0.485749          0          0  ]
[          0   0.485749          0  ]
[          0          0   0.485749  ]
Minimum fftbox size, Smin = [  60  60  60  ]
Chosen fftbox size, S = [  60  60  60  ]

---------- Initializing tighter grid for wavefunction operations ----------
R = 
[       12.935            0            0  ]
[            0       12.935            0  ]
[            0            0       12.935  ]
unit cell volume = 2164.23
G =
[   0.485749          0          0  ]
[          0   0.485749          0  ]
[          0          0   0.485749  ]
Minimum fftbox size, Smin = [  56  56  56  ]
Chosen fftbox size, S = [  56  56  56  ]

---------- Exchange Correlation functional ----------
Initalized PBEsol GGA exchange.
Initalized PBEsol GGA correlation.

---------- Setting up pseudopotentials ----------
Width of ionic core gaussian charges (only for fluid interactions / plotting) set to 0

Reading pseudopotential file '/home/rc652/build/pseudopotentials/GBRV/co_pbesol.uspp':
  Title: Co.  Created by USPP 7.3.6 on 3-2-2014
  Reference state energy: -148.473209.  17 valence electrons in orbitals:
    |300>  occupation: 2  eigenvalue: -4.077719
    |310>  occupation: 6  eigenvalue: -2.732332
    |320>  occupation: 7  eigenvalue: -0.624325
    |400>  occupation: 1  eigenvalue: -0.468864
    |410>  occupation: 0  eigenvalue: -0.272586
  lMax: 2  lLocal: 3  QijEcut: 6
  6 projectors sampled on a log grid with 609 points:
    l: 0  eig: -4.077719  rCut: 1.5
    l: 0  eig: -0.468864  rCut: 1.5
    l: 1  eig: -2.732332  rCut: 1.5
    l: 1  eig: -0.272586  rCut: 1.5
    l: 2  eig: -0.624325  rCut: 1.55
    l: 2  eig: -1.000000  rCut: 1.55
  Partial core density with radius 0.65
  Transforming core density to a uniform radial grid of dG=0.02 with 1268 points.
  Transforming local potential to a uniform radial grid of dG=0.02 with 1268 points.
  Transforming nonlocal projectors to a uniform radial grid of dG=0.02 with 432 points.
  Transforming density augmentations to a uniform radial grid of dG=0.02 with 1268 points.
  Transforming atomic orbitals to a uniform radial grid of dG=0.02 with 432 points.
  Core radius for overlap checks: 1.55 bohrs.

Reading pseudopotential file '/home/rc652/build/pseudopotentials/GBRV/o_pbesol.uspp':
  Title: O.  Created by USPP 7.3.6 on 3-2-2014
  Reference state energy: -15.849885.  6 valence electrons in orbitals:
    |200>  occupation: 2  eigenvalue: -0.873214
    |210>  occupation: 4  eigenvalue: -0.330058
  lMax: 2  lLocal: 2  QijEcut: 6
  5 projectors sampled on a log grid with 511 points:
    l: 0  eig: -0.873214  rCut: 1.25
    l: 0  eig: 0.000000  rCut: 1.25
    l: 1  eig: -0.330058  rCut: 1.25
    l: 1  eig: 0.000000  rCut: 1.25
    l: 2  eig: 1.000000  rCut: 1.25
  Partial core density with radius 0.7
  Transforming core density to a uniform radial grid of dG=0.02 with 1268 points.
  Transforming local potential to a uniform radial grid of dG=0.02 with 1268 points.
  Transforming nonlocal projectors to a uniform radial grid of dG=0.02 with 432 points.
  Transforming density augmentations to a uniform radial grid of dG=0.02 with 1268 points.
  Transforming atomic orbitals to a uniform radial grid of dG=0.02 with 432 points.
  Core radius for overlap checks: 1.25 bohrs.

Initialized 2 species with 33 total atoms.

Folded 1 k-points by 4x4x4 to 64 k-points.

---------- Setting up k-points, bands, fillings ----------
Adding inversion symmetry to k-mesh for non-inversion-symmetric unit cell.
Reduced to 36 k-points under symmetry. 
Computing the number of bands and number of electrons
Calculating initial fillings.
nElectrons: 550.000000   nBands: 420   nStates: 36

----- Setting up reduced wavefunction bases (one per k-point) -----
average nbasis = 9243.766 , ideal nbasis = 9245.759

---------- Setting up ewald sum ----------
Optimum gaussian width for ewald sums = 2.881325 bohr.
Real space sum over 729 unit cells with max indices [  4  4  4  ]
Reciprocal space sum over 4913 terms with max indices [  8  8  8  ]

---------- Allocating electronic variables ----------
Initializing wave functions:  linear combination of atomic orbitals
Co pseudo-atom occupations:   s ( 2 0 )  p ( 6 0 )  d ( 9 )
O pseudo-atom occupations:   s ( 2 )  p ( 4 )
	FillingsUpdate:  mu: +0.078885819  nElectrons: 550.000000
LCAOMinimize: Iter:   0  F: -4713.8522534919438840  |grad|_K:  6.441e-03  alpha:  1.000e+00
	FillingsUpdate:  mu: +1.223120447  nElectrons: 550.000000
LCAOMinimize: Iter:   1  F: -4732.2623478312161751  |grad|_K:  1.954e-02  alpha:  3.506e-01  linmin:  4.704e-02  cgtest: -1.315e-01  t[s]:     87.49
LCAOMinimize: 	Step increased F by 7.891029e+01, reducing alpha to 1.149218e-02.
	FillingsUpdate:  mu: +1.377668497  nElectrons: 550.000000
LCAOMinimize: Iter:   2  F: -4733.7460680803187643  |grad|_K:  1.992e-02  alpha:  1.149e-02  linmin:  9.808e-03  cgtest:  9.139e-01  t[s]:    141.06
	FillingsUpdate:  mu: +1.201495716  nElectrons: 550.000000
LCAOMinimize: Iter:   3  F: -4755.4830320976334406  |grad|_K:  1.151e-02  alpha:  3.230e-02  linmin:  1.830e-01  cgtest: -7.057e-01  t[s]:    173.10
	FillingsUpdate:  mu: +1.139980866  nElectrons: 550.000000
LCAOMinimize: Iter:   4  F: -4756.2104274372059081  |grad|_K:  1.006e-02  alpha:  8.167e-03  linmin: -4.097e-03  cgtest:  9.826e-01  t[s]:    203.75
LCAOMinimize: Encountered beta<0, resetting CG.
LCAOMinimize: 	Predicted alpha/alphaT>3.000000, increasing alphaT to 2.450078e-02.
	FillingsUpdate:  mu: +1.035346440  nElectrons: 550.000000
LCAOMinimize: Iter:   5  F: -4764.1369547133799642  |grad|_K:  3.858e-03  alpha:  2.456e-02  linmin:  3.185e-02  cgtest: -3.262e-01  t[s]:    242.10
	FillingsUpdate:  mu: +1.043745978  nElectrons: 550.000000
LCAOMinimize: Iter:   6  F: -4765.4414407833455698  |grad|_K:  4.619e-03  alpha:  3.208e-02  linmin:  5.762e-02  cgtest:  4.549e-01  t[s]:    272.58
	FillingsUpdate:  mu: +0.991138703  nElectrons: 550.000000
LCAOMinimize: Iter:   7  F: -4767.2971432742742763  |grad|_K:  3.885e-03  alpha:  3.304e-02  linmin:  1.122e-02  cgtest:  4.110e-01  t[s]:    303.96
	FillingsUpdate:  mu: +0.942878925  nElectrons: 550.000000
LCAOMinimize: Iter:   8  F: -4768.9204631510474428  |grad|_K:  2.425e-03  alpha:  3.430e-02  linmin: -3.377e-02  cgtest:  8.068e-02  t[s]:    335.03
	FillingsUpdate:  mu: +0.894128955  nElectrons: 550.000000
LCAOMinimize: Iter:   9  F: -4769.4972062180413559  |grad|_K:  1.307e-03  alpha:  2.892e-02  linmin: -8.616e-03  cgtest: -1.068e-01  t[s]:    366.89
	FillingsUpdate:  mu: +0.863360537  nElectrons: 550.000000
LCAOMinimize: Iter:  10  F: -4769.9535124004169120  |grad|_K:  1.329e-03  alpha:  8.001e-02  linmin: -8.770e-03  cgtest:  5.948e-02  t[s]:    397.75
	FillingsUpdate:  mu: +0.825134621  nElectrons: 550.000000
LCAOMinimize: Iter:  11  F: -4770.1701820574362500  |grad|_K:  7.881e-04  alpha:  3.671e-02  linmin: -3.414e-04  cgtest: -9.869e-02  t[s]:    428.89
	FillingsUpdate:  mu: +0.807987098  nElectrons: 550.000000
LCAOMinimize: Iter:  12  F: -4770.2409927796734337  |grad|_K:  3.472e-04  alpha:  3.567e-02  linmin:  3.388e-03  cgtest:  9.004e-03  t[s]:    459.67
	FillingsUpdate:  mu: +0.803512726  nElectrons: 550.000000
LCAOMinimize: Iter:  13  F: -4770.2549493353963044  |grad|_K:  2.539e-04  alpha:  3.658e-02  linmin: -7.147e-04  cgtest:  6.788e-03  t[s]:    490.92
	FillingsUpdate:  mu: +0.798407264  nElectrons: 550.000000
LCAOMinimize: Iter:  14  F: -4770.2648725773751721  |grad|_K:  2.083e-04  alpha:  4.808e-02  linmin: -1.139e-03  cgtest: -1.160e-02  t[s]:    522.03
	FillingsUpdate:  mu: +0.793274573  nElectrons: 550.000000
LCAOMinimize: Iter:  15  F: -4770.2731998965155071  |grad|_K:  1.738e-04  alpha:  5.986e-02  linmin: -2.630e-04  cgtest: -7.634e-03  t[s]:    553.90
	FillingsUpdate:  mu: +0.791007595  nElectrons: 550.000000
LCAOMinimize: Iter:  16  F: -4770.2763039612918874  |grad|_K:  9.094e-05  alpha:  3.221e-02  linmin:  1.832e-04  cgtest: -5.433e-04  t[s]:    585.50
	FillingsUpdate:  mu: +0.790167354  nElectrons: 550.000000
LCAOMinimize: Iter:  17  F: -4770.2772327348911858  |grad|_K:  3.941e-05  alpha:  3.522e-02  linmin:  5.848e-05  cgtest:  4.464e-04  t[s]:    618.39
	FillingsUpdate:  mu: +0.789979357  nElectrons: 550.000000
LCAOMinimize: Iter:  18  F: -4770.2774111382987030  |grad|_K:  3.066e-05  alpha:  3.601e-02  linmin:  5.571e-05  cgtest: -1.076e-03  t[s]:    649.95
	FillingsUpdate:  mu: +0.789864409  nElectrons: 550.000000
LCAOMinimize: Iter:  19  F: -4770.2775799282098887  |grad|_K:  2.745e-05  alpha:  5.631e-02  linmin:  2.061e-04  cgtest: -3.742e-04  t[s]:    682.48
	FillingsUpdate:  mu: +0.789743348  nElectrons: 550.000000
LCAOMinimize: Iter:  20  F: -4770.2777273595538645  |grad|_K:  2.406e-05  alpha:  6.138e-02  linmin:  1.509e-04  cgtest:  3.512e-03  t[s]:    714.71
	FillingsUpdate:  mu: +0.789681276  nElectrons: 550.000000
LCAOMinimize: Iter:  21  F: -4770.2777909874384932  |grad|_K:  1.549e-05  alpha:  3.448e-02  linmin: -8.057e-06  cgtest:  2.680e-03  t[s]:    746.26
	FillingsUpdate:  mu: +0.789699096  nElectrons: 550.000000
LCAOMinimize: Iter:  22  F: -4770.2778314340666839  |grad|_K:  1.307e-05  alpha:  5.285e-02  linmin:  2.618e-05  cgtest: -4.593e-04  t[s]:    779.69
	FillingsUpdate:  mu: +0.789740581  nElectrons: 550.000000
LCAOMinimize: Iter:  23  F: -4770.2778720898650135  |grad|_K:  1.767e-05  alpha:  7.464e-02  linmin:  6.370e-05  cgtest:  2.111e-04  t[s]:    811.51
	FillingsUpdate:  mu: +0.789742080  nElectrons: 550.000000
LCAOMinimize: Iter:  24  F: -4770.2779208723804913  |grad|_K:  1.099e-05  alpha:  4.896e-02  linmin: -2.742e-06  cgtest:  3.516e-03  t[s]:    843.50
	FillingsUpdate:  mu: +0.789753011  nElectrons: 550.000000
LCAOMinimize: Iter:  25  F: -4770.2779365314663664  |grad|_K:  6.498e-06  alpha:  4.067e-02  linmin:  1.896e-05  cgtest: -2.348e-04  t[s]:    876.40
	FillingsUpdate:  mu: +0.789774351  nElectrons: 550.000000
LCAOMinimize: Iter:  26  F: -4770.2779405497303742  |grad|_K:  3.729e-06  alpha:  2.983e-02  linmin: -7.592e-06  cgtest:  3.054e-04  t[s]:    908.10
	FillingsUpdate:  mu: +0.789794224  nElectrons: 550.000000
LCAOMinimize: Iter:  27  F: -4770.2779434930616844  |grad|_K:  3.803e-06  alpha:  6.638e-02  linmin:  1.024e-04  cgtest: -7.351e-04  t[s]:    939.82
	FillingsUpdate:  mu: +0.789803631  nElectrons: 550.000000
LCAOMinimize: Iter:  28  F: -4770.2779461027521393  |grad|_K:  3.866e-06  alpha:  5.658e-02  linmin:  1.757e-05  cgtest:  1.453e-03  t[s]:    970.30
	FillingsUpdate:  mu: +0.789822616  nElectrons: 550.000000
LCAOMinimize: Iter:  29  F: -4770.2779480866593076  |grad|_K:  2.115e-06  alpha:  4.163e-02  linmin:  8.981e-06  cgtest: -4.030e-04  t[s]:   1003.44
	FillingsUpdate:  mu: +0.789836040  nElectrons: 550.000000
LCAOMinimize: Iter:  30  F: -4770.2779487654679542  |grad|_K:  1.909e-06  alpha:  4.762e-02  linmin:  1.888e-04  cgtest: -1.438e-03  t[s]:   1034.58
LCAOMinimize: None of the convergence criteria satisfied after 30 iterations.


---- Citations for features of the code used in this run ----

   Software package:
      R. Sundararaman, K. Letchworth-Weaver, K.A. Schwarz, D. Gunceler, Y. Ozhabes and T.A. Arias, 'JDFTx: software for joint density-functional theory', SoftwareX 6, 278 (2017)

   gga-PBEsol exchange-correlation functional:
      J.P. Perdew et al., Phys. Rev. Lett. 100, 136406 (2008)

   Pseudopotentials:
      KF Garrity, JW Bennett, KM Rabe and D Vanderbilt, Comput. Mater. Sci. 81, 446 (2014)

This list may not be complete. Please suggest additional citations or
report any other bugs at https://github.com/shankar1729/jdftx/issues

Initialization completed successfully at t[s]:   1047.65


-------- Electronic minimization -----------
Will mix electronic density at each iteration.
	FillingsUpdate:  mu: +0.789836040  nElectrons: 550.000000
	FillingsUpdate:  mu: +0.788448796  nElectrons: 550.000000
SCF: Cycle:  0   F: -4770.329985123416009   dF: -5.204e-02   |Residual|: 1.038e+00   |deigs|: 6.399e-02  t[s]:   1188.19
	FillingsUpdate:  mu: +0.722181171  nElectrons: 550.000000
SCF: Cycle:  1   F: -4770.465065637353291   dF: -1.351e-01   |Residual|: 8.886e-01   |deigs|: 5.727e-02  t[s]:   1306.76
	FillingsUpdate:  mu: +0.753053882  nElectrons: 550.000000
SCF: Cycle:  2   F: -4768.934083095510687   dF: +1.531e+00   |Residual|: 9.254e-01   |deigs|: 2.649e-02  t[s]:   1423.54
	FillingsUpdate:  mu: +0.752737444  nElectrons: 550.000000
SCF: Cycle:  3   F: -4770.971508029870165   dF: -2.037e+00   |Residual|: 3.212e-01   |deigs|: 3.529e-03  t[s]:   1548.26
	FillingsUpdate:  mu: +0.752291243  nElectrons: 550.000000
SCF: Cycle:  4   F: -4771.059799139033203   dF: -8.829e-02   |Residual|: 2.830e-01   |deigs|: 2.498e-03  t[s]:   1666.26
	FillingsUpdate:  mu: +0.751800493  nElectrons: 550.000000
SCF: Cycle:  5   F: -4770.954022952635569   dF: +1.058e-01   |Residual|: 3.268e-01   |deigs|: 1.121e-03  t[s]:   1781.33
	FillingsUpdate:  mu: +0.751777500  nElectrons: 550.000000
SCF: Cycle:  6   F: -4771.228292321097797   dF: -2.743e-01   |Residual|: 5.501e-02   |deigs|: 1.019e-03  t[s]:   1911.98
	FillingsUpdate:  mu: +0.751803588  nElectrons: 550.000000
SCF: Cycle:  7   F: -4771.210905296551573   dF: +1.739e-02   |Residual|: 9.929e-02   |deigs|: 2.748e-04  t[s]:   1981.41
	FillingsUpdate:  mu: +0.751811801  nElectrons: 550.000000
SCF: Cycle:  8   F: -4771.231538422474841   dF: -2.063e-02   |Residual|: 3.598e-02   |deigs|: 2.341e-04  t[s]:   2051.09
	FillingsUpdate:  mu: +0.751816123  nElectrons: 550.000000
SCF: Cycle:  9   F: -4771.233949007059891   dF: -2.411e-03   |Residual|: 2.282e-02   |deigs|: 1.189e-04  t[s]:   2119.01
	FillingsUpdate:  mu: +0.751886919  nElectrons: 550.000000
SCF: Cycle: 10   F: -4771.230577989790618   dF: +3.371e-03   |Residual|: 4.093e-02   |deigs|: 1.470e-04  t[s]:   2191.61
	FillingsUpdate:  mu: +0.751888787  nElectrons: 550.000000
SCF: Cycle: 11   F: -4771.235107136748411   dF: -4.529e-03   |Residual|: 6.158e-03   |deigs|: 1.283e-04  t[s]:   2260.55
	FillingsUpdate:  mu: +0.751906539  nElectrons: 550.000000
SCF: Cycle: 12   F: -4771.234562100890798   dF: +5.450e-04   |Residual|: 1.604e-02   |deigs|: 5.335e-05  t[s]:   2334.84
	FillingsUpdate:  mu: +0.751875733  nElectrons: 550.000000
SCF: Cycle: 13   F: -4771.235161276022154   dF: -5.992e-04   |Residual|: 3.699e-03   |deigs|: 5.233e-05  t[s]:   2403.21
	FillingsUpdate:  mu: +0.751872461  nElectrons: 550.000000
SCF: Cycle: 14   F: -4771.235152836628004   dF: +8.439e-06   |Residual|: 3.984e-03   |deigs|: 1.578e-05  t[s]:   2470.29
	FillingsUpdate:  mu: +0.751889570  nElectrons: 550.000000
SCF: Cycle: 15   F: -4771.235164164058006   dF: -1.133e-05   |Residual|: 3.599e-03   |deigs|: 1.920e-05  t[s]:   2537.83
	FillingsUpdate:  mu: +0.751887743  nElectrons: 550.000000
SCF: Cycle: 16   F: -4771.235195808798380   dF: -3.164e-05   |Residual|: 1.063e-03   |deigs|: 1.469e-05  t[s]:   2606.01
	FillingsUpdate:  mu: +0.751891906  nElectrons: 550.000000
SCF: Cycle: 17   F: -4771.235192556675429   dF: +3.252e-06   |Residual|: 1.444e-03   |deigs|: 8.582e-06  t[s]:   2672.62
	FillingsUpdate:  mu: +0.751894729  nElectrons: 550.000000
SCF: Cycle: 18   F: -4771.235193055348645   dF: -4.987e-07   |Residual|: 1.517e-03   |deigs|: 6.053e-06  t[s]:   2740.33
	FillingsUpdate:  mu: +0.751892173  nElectrons: 550.000000
SCF: Cycle: 19   F: -4771.235196574760266   dF: -3.519e-06   |Residual|: 8.047e-04   |deigs|: 6.060e-06  t[s]:   2808.47
	FillingsUpdate:  mu: +0.751888728  nElectrons: 550.000000
SCF: Cycle: 20   F: -4771.235197944633910   dF: -1.370e-06   |Residual|: 3.171e-04   |deigs|: 4.251e-06  t[s]:   2878.29
	FillingsUpdate:  mu: +0.751888174  nElectrons: 550.000000
SCF: Cycle: 21   F: -4771.235197420031909   dF: +5.246e-07   |Residual|: 5.078e-04   |deigs|: 2.297e-06  t[s]:   2945.80
	FillingsUpdate:  mu: +0.751889296  nElectrons: 550.000000
SCF: Cycle: 22   F: -4771.235197242474896   dF: +1.776e-07   |Residual|: 6.308e-04   |deigs|: 2.649e-06  t[s]:   3014.11
	FillingsUpdate:  mu: +0.751890598  nElectrons: 550.000000
SCF: Cycle: 23   F: -4771.235197990315100   dF: -7.478e-07   |Residual|: 2.798e-04   |deigs|: 2.658e-06  t[s]:   3088.11
	FillingsUpdate:  mu: +0.751891432  nElectrons: 550.000000
SCF: Cycle: 24   F: -4771.235198082285024   dF: -9.197e-08   |Residual|: 2.311e-04   |deigs|: 2.000e-06  t[s]:   3155.41
	FillingsUpdate:  mu: +0.751891217  nElectrons: 550.000000
SCF: Cycle: 25   F: -4771.235198097675493   dF: -1.539e-08   |Residual|: 2.002e-04   |deigs|: 1.144e-06  t[s]:   3227.50
	FillingsUpdate:  mu: +0.751890134  nElectrons: 550.000000
SCF: Cycle: 26   F: -4771.235198056690933   dF: +4.098e-08   |Residual|: 2.402e-04   |deigs|: 1.195e-06  t[s]:   3295.68
	FillingsUpdate:  mu: +0.751890231  nElectrons: 550.000000
SCF: Cycle: 27   F: -4771.235198177696475   dF: -1.210e-07   |Residual|: 1.090e-04   |deigs|: 9.234e-07  t[s]:   3365.42
	FillingsUpdate:  mu: +0.751889979  nElectrons: 550.000000
SCF: Cycle: 28   F: -4771.235198191317068   dF: -1.362e-08   |Residual|: 7.873e-05   |deigs|: 5.402e-07  t[s]:   3434.39
	FillingsUpdate:  mu: +0.751890124  nElectrons: 550.000000
SCF: Cycle: 29   F: -4771.235198185307127   dF: +6.010e-09   |Residual|: 8.257e-05   |deigs|: 3.204e-07  t[s]:   3502.49
	FillingsUpdate:  mu: +0.751890183  nElectrons: 550.000000
SCF: Cycle: 30   F: -4771.235198193044198   dF: -7.737e-09   |Residual|: 7.363e-05   |deigs|: 4.180e-07  t[s]:   3571.34
	FillingsUpdate:  mu: +0.751890359  nElectrons: 550.000000
SCF: Cycle: 31   F: -4771.235198203147775   dF: -1.010e-08   |Residual|: 3.849e-05   |deigs|: 2.979e-07  t[s]:   3640.72
	FillingsUpdate:  mu: +0.751890465  nElectrons: 550.000000
SCF: Cycle: 32   F: -4771.235198205284178   dF: -2.136e-09   |Residual|: 3.042e-05   |deigs|: 2.231e-07  t[s]:   3699.61
	FillingsUpdate:  mu: +0.751890446  nElectrons: 550.000000
SCF: Cycle: 33   F: -4771.235198204946755   dF: +3.374e-10   |Residual|: 2.835e-05   |deigs|: 1.344e-07  t[s]:   3750.26
	FillingsUpdate:  mu: +0.751890386  nElectrons: 550.000000
SCF: Cycle: 34   F: -4771.235198205719826   dF: -7.731e-10   |Residual|: 2.661e-05   |deigs|: 1.406e-07  t[s]:   3800.65
	FillingsUpdate:  mu: +0.751890287  nElectrons: 550.000000
SCF: Cycle: 35   F: -4771.235198207118628   dF: -1.399e-09   |Residual|: 6.719e-06   |deigs|: 1.235e-07  t[s]:   3840.63
SCF: Converged (|Delta E|<1.000000e-08 for 2 iters).

Setting wave functions to eigenvectors of Hamiltonian

# Ionic positions in lattice coordinates:
ion Co   0.000000000000000   0.000000000000000   0.000000000000000 1
ion Co  -0.015420000000000   0.250840000000000   0.234650000000000 1
ion Co   0.268950000000000   0.000980000000000   0.234180000000000 1
ion Co   0.245150000000000   0.248630000000000  -0.015840000000000 1
ion Co   0.008980000000000  -0.003980000000000   0.504950000000000 1
ion Co  -0.017480000000000   0.259230000000000   0.744520000000000 1
ion Co   0.276120000000000   0.001830000000000   0.765730000000000 1
ion Co   0.254490000000000   0.254610000000000   0.491160000000000 1
ion Co  -0.009400000000000   0.493780000000000   0.004350000000000 1
ion Co   0.012250000000000   0.762830000000000   0.261530000000000 1
ion Co   0.252120000000000   0.505150000000000   0.255740000000000 1
ion Co   0.253530000000000   0.758720000000000  -0.014090000000000 1
ion Co  -0.005070000000000   0.486960000000000   0.508170000000000 1
ion Co   0.005290000000000   0.756870000000000   0.752480000000000 1
ion Co   0.240230000000000   0.495400000000000   0.743830000000000 1
ion Co   0.255240000000000   0.752220000000000   0.502580000000000 1
ion Co   0.510320000000000  -0.005520000000000  -0.007570000000000 1
ion Co   0.493970000000000   0.252900000000000   0.260100000000000 1
ion Co   0.743080000000000  -0.000680000000000   0.233050000000000 1
ion Co   0.752630000000000   0.248760000000000  -0.009390000000000 1
ion Co   0.498860000000000  -0.000750000000000   0.497850000000000 1
ion Co   0.476320000000000   0.243570000000000   0.759140000000000 1
ion Co   0.764290000000000  -0.011520000000000   0.732230000000000 1
ion Co   0.763850000000000   0.243430000000000   0.501530000000000 1
ion Co   0.479450000000000   0.503760000000000   0.012140000000000 1
ion Co   0.485150000000000   0.761940000000000   0.261150000000000 1
ion Co   0.745070000000000   0.498250000000000   0.246330000000000 1
ion Co   0.753100000000000   0.747720000000000  -0.008950000000000 1
ion Co   0.498980000000000   0.505240000000000   0.501930000000000 1
ion Co   0.504490000000000   0.750890000000000   0.742420000000000 1
ion Co   0.746450000000000   0.505790000000000   0.764440000000000 1
ion Co   0.747700000000000   0.744710000000000   0.504070000000000 1
ion O   0.220000000000000   0.290000000000000   0.300000000000000 1

# Forces in Lattice coordinates:
force Co  -0.048556892201469  -0.092606649911298  -0.122601091033116 1
force Co  -0.650074902830955  -0.239667777547967   0.043024679011454 1
force Co  -0.387944894996020  -0.244802977675563   0.069394800046863 1
force Co  -0.062365611138848   0.062897546170140   0.046033489286343 1
force Co  -0.031549118695231   0.022552205733958  -0.066136258771258 1
force Co   0.323296778449252  -0.251105361813812   0.217281143530181 1
force Co  -0.650361119257297  -0.196835599912596  -0.442851786705287 1
force Co   0.856448737450654  -1.437837766794308   6.922335142486594 1
force Co   0.142485199234252   0.314682454916499  -0.166975734036482 1
force Co  -0.209044799610646  -0.159557803666385  -0.224615188478489 1
force Co   0.076908226824031   2.588034719805494  -0.624067318894097 1
force Co  -0.084275648993832  -0.219201190870312   0.253412725136752 1
force Co  -0.191910132035722   0.496095121320788  -0.095937402071881 1
force Co  -0.010890922713136  -0.178342901879655  -0.072125499992610 1
force Co   0.131331280300926   0.168288433121164   0.134692144540614 1
force Co  -0.135523896956095   0.016153265704197   0.111363936140821 1
force Co   0.099237778942339   0.043657540940010   0.078130358177669 1
force Co   0.716768878112764  -0.051640981726542  -0.374933523163564 1
force Co   0.134291523086774  -0.026374978655107   0.331481367300043 1
force Co  -0.274648016029195  -0.018910123755830   0.040979010463980 1
force Co   0.175091833175106   0.027755504823003   0.149423642890932 1
force Co   0.729836925927942   0.381367399852158  -0.188041320017762 1
force Co  -0.245526497476340   0.211501039776750   0.282723093245433 1
force Co  -0.409578518423849   0.052027902795464  -0.119426510357202 1
force Co   0.374648044022983   0.020328420147390  -0.307588689547407 1
force Co   0.403155582081894  -0.267506973638946  -0.265411432972321 1
force Co  -0.010203375568216   0.121422328126956   0.057552654387190 1
force Co  -0.046046286440283   0.066852244395907   0.246077738600057 1
force Co   0.251620870904251  -0.039664736269717   0.149393976419461 1
force Co  -0.046754851791516  -0.088023172684092   0.162144214138847 1
force Co  -0.072731144521877  -0.132044046375128  -0.244156439288945 1
force Co   0.128471011886607   0.005637429927175  -0.247518780320352 1
force O  -0.949869957727675  -0.955471015971762  -5.733218785728389 1

# Energy components:
   Eewald =    -3287.6170072047398207
       EH =     1371.0143825895956979
     Eloc =    -3864.5464709909033445
      Enl =      825.1429635412340531
      Exc =     -521.6653888276935049
 Exc_core =       16.9302035676155640
       KE =      690.0495841053837012
-------------------------------------
     Etot =    -4770.6917332195080235
       TS =        0.5434649876104231
-------------------------------------
        F =    -4771.2351982071186285

IonicMinimize: Iter:   0  F: -4771.235198207118628  |grad|_K:  7.686e-02  t[s]:   3853.64

#--- Lowdin population analysis ---
# oxidation-state Co +0.012 -0.010 +0.007 +0.007 +0.018 +0.009 +0.008 -0.040 +0.012 +0.029 -0.027 +0.014 +0.010 +0.015 +0.010 +0.008 +0.009 -0.001 +0.021 +0.015 +0.010 +0.018 +0.014 +0.022 +0.023 +0.010 +0.025 +0.021 +0.012 +0.009 +0.020 +0.021
# oxidation-state O +0.295


-------- Electronic minimization -----------
Will mix electronic density at each iteration.
	FillingsUpdate:  mu: +0.751890287  nElectrons: 550.000000
	FillingsUpdate:  mu: +0.751877758  nElectrons: 550.000000
SCF: Cycle:  0   F: -4761.609118889668025   dF: +9.174e+00   |Residual|: 1.615e+00   |deigs|: 1.673e-03  t[s]:   4009.00
	FillingsUpdate:  mu: +0.810796637  nElectrons: 550.000000
SCF: Cycle:  1   F: -4667.471551645635373   dF: +9.414e+01   |Residual|: 6.288e+00   |deigs|: 1.135e-01  t[s]:   4126.72
	FillingsUpdate:  mu: +0.772973848  nElectrons: 550.000000
SCF: Cycle:  2   F: -4729.684584820356577   dF: -6.221e+01   |Residual|: 4.308e+00   |deigs|: 7.145e-02  t[s]:   4240.75
	FillingsUpdate:  mu: +0.756919429  nElectrons: 550.000000
SCF: Cycle:  3   F: -4759.505833812487253   dF: -2.982e+01   |Residual|: 2.104e+00   |deigs|: 2.894e-02  t[s]:   4360.14
	FillingsUpdate:  mu: +0.754994458  nElectrons: 550.000000
SCF: Cycle:  4   F: -4762.774203550930906   dF: -3.268e+00   |Residual|: 1.834e+00   |deigs|: 8.163e-03  t[s]:   4476.18
	FillingsUpdate:  mu: +0.753771617  nElectrons: 550.000000
SCF: Cycle:  5   F: -4768.698793281926555   dF: -5.925e+00   |Residual|: 9.846e-01   |deigs|: 9.329e-03  t[s]:   4599.34
	FillingsUpdate:  mu: +0.753995731  nElectrons: 550.000000
SCF: Cycle:  6   F: -4762.901435862465405   dF: +5.797e+00   |Residual|: 1.708e+00   |deigs|: 6.902e-03  t[s]:   4716.17
	FillingsUpdate:  mu: +0.753395329  nElectrons: 550.000000
SCF: Cycle:  7   F: -4763.523224747375934   dF: -6.218e-01   |Residual|: 1.661e+00   |deigs|: 3.034e-03  t[s]:   4838.22
	FillingsUpdate:  mu: +0.751563169  nElectrons: 550.000000
SCF: Cycle:  8   F: -4770.885722212806286   dF: -7.362e+00   |Residual|: 4.101e-01   |deigs|: 5.615e-03  t[s]:   4958.36
	FillingsUpdate:  mu: +0.751370681  nElectrons: 550.000000
SCF: Cycle:  9   F: -4770.664244136549314   dF: +2.215e-01   |Residual|: 4.661e-01   |deigs|: 1.366e-03  t[s]:   5076.90
	FillingsUpdate:  mu: +0.751638898  nElectrons: 550.000000
SCF: Cycle: 10   F: -4770.901898580817942   dF: -2.377e-01   |Residual|: 4.008e-01   |deigs|: 1.297e-03  t[s]:   5201.46
	FillingsUpdate:  mu: +0.751837294  nElectrons: 550.000000
SCF: Cycle: 11   F: -4771.026040096754514   dF: -1.241e-01   |Residual|: 3.178e-01   |deigs|: 1.034e-03  t[s]:   5318.09
	FillingsUpdate:  mu: +0.751995887  nElectrons: 550.000000
SCF: Cycle: 12   F: -4771.174500017080391   dF: -1.485e-01   |Residual|: 2.474e-01   |deigs|: 1.391e-03  t[s]:   5444.34
	FillingsUpdate:  mu: +0.751912274  nElectrons: 550.000000
SCF: Cycle: 13   F: -4771.273245395826052   dF: -9.875e-02   |Residual|: 1.261e-01   |deigs|: 8.457e-04  t[s]:   5561.58
	FillingsUpdate:  mu: +0.751826205  nElectrons: 550.000000
SCF: Cycle: 14   F: -4771.305898116837852   dF: -3.265e-02   |Residual|: 7.169e-02   |deigs|: 2.793e-04  t[s]:   5635.08
	FillingsUpdate:  mu: +0.751778005  nElectrons: 550.000000
SCF: Cycle: 15   F: -4771.311302084135605   dF: -5.404e-03   |Residual|: 5.481e-02   |deigs|: 1.773e-04  t[s]:   5707.49
	FillingsUpdate:  mu: +0.751777450  nElectrons: 550.000000
SCF: Cycle: 16   F: -4771.291580046365198   dF: +1.972e-02   |Residual|: 1.053e-01   |deigs|: 1.912e-04  t[s]:   5777.53
	FillingsUpdate:  mu: +0.751778925  nElectrons: 550.000000
SCF: Cycle: 17   F: -4771.313713022946104   dF: -2.213e-02   |Residual|: 4.820e-02   |deigs|: 1.886e-04  t[s]:   5848.47
	FillingsUpdate:  mu: +0.751724327  nElectrons: 550.000000
SCF: Cycle: 18   F: -4771.317330076281905   dF: -3.617e-03   |Residual|: 3.010e-02   |deigs|: 1.581e-04  t[s]:   5920.38
	FillingsUpdate:  mu: +0.751749409  nElectrons: 550.000000
SCF: Cycle: 19   F: -4771.316481110438872   dF: +8.490e-04   |Residual|: 3.567e-02   |deigs|: 1.274e-04  t[s]:   5990.76
	FillingsUpdate:  mu: +0.751754053  nElectrons: 550.000000
SCF: Cycle: 20   F: -4771.314675977952902   dF: +1.805e-03   |Residual|: 4.459e-02   |deigs|: 1.240e-04  t[s]:   6060.53
	FillingsUpdate:  mu: +0.751763957  nElectrons: 550.000000
SCF: Cycle: 21   F: -4771.318519071704031   dF: -3.843e-03   |Residual|: 2.159e-02   |deigs|: 1.334e-04  t[s]:   6133.62
	FillingsUpdate:  mu: +0.751794805  nElectrons: 550.000000
SCF: Cycle: 22   F: -4771.311767302097905   dF: +6.752e-03   |Residual|: 5.488e-02   |deigs|: 2.566e-04  t[s]:   6204.41
	FillingsUpdate:  mu: +0.751766462  nElectrons: 550.000000
SCF: Cycle: 23   F: -4771.317316605788619   dF: -5.549e-03   |Residual|: 3.199e-02   |deigs|: 2.420e-04  t[s]:   6274.85
	FillingsUpdate:  mu: +0.751771005  nElectrons: 550.000000
SCF: Cycle: 24   F: -4771.318236096791225   dF: -9.195e-04   |Residual|: 2.266e-02   |deigs|: 1.248e-04  t[s]:   6343.08
	FillingsUpdate:  mu: +0.751771741  nElectrons: 550.000000
SCF: Cycle: 25   F: -4771.318478604202937   dF: -2.425e-04   |Residual|: 2.078e-02   |deigs|: 8.145e-05  t[s]:   6415.27
	FillingsUpdate:  mu: +0.751762540  nElectrons: 550.000000
SCF: Cycle: 26   F: -4771.319160489391834   dF: -6.819e-04   |Residual|: 1.361e-02   |deigs|: 6.438e-05  t[s]:   6487.98
	FillingsUpdate:  mu: +0.751762011  nElectrons: 550.000000
SCF: Cycle: 27   F: -4771.319396133400005   dF: -2.356e-04   |Residual|: 1.147e-02   |deigs|: 4.585e-05  t[s]:   6558.27
	FillingsUpdate:  mu: +0.751759800  nElectrons: 550.000000
SCF: Cycle: 28   F: -4771.318951852834289   dF: +4.443e-04   |Residual|: 1.653e-02   |deigs|: 4.853e-05  t[s]:   6628.59
	FillingsUpdate:  mu: +0.751756482  nElectrons: 550.000000
SCF: Cycle: 29   F: -4771.318344835985954   dF: +6.070e-04   |Residual|: 2.252e-02   |deigs|: 6.215e-05  t[s]:   6698.29
	FillingsUpdate:  mu: +0.751758961  nElectrons: 550.000000
SCF: Cycle: 30   F: -4771.319669119471655   dF: -1.324e-03   |Residual|: 4.040e-03   |deigs|: 4.310e-05  t[s]:   6769.45
	FillingsUpdate:  mu: +0.751762527  nElectrons: 550.000000
SCF: Cycle: 31   F: -4771.319416595913935   dF: +2.525e-04   |Residual|: 1.022e-02   |deigs|: 3.728e-05  t[s]:   6838.30
	FillingsUpdate:  mu: +0.751762136  nElectrons: 550.000000
SCF: Cycle: 32   F: -4771.319681545888670   dF: -2.649e-04   |Residual|: 3.427e-03   |deigs|: 3.152e-05  t[s]:   6910.65
	FillingsUpdate:  mu: +0.751764763  nElectrons: 550.000000
SCF: Cycle: 33   F: -4771.319416589867615   dF: +2.650e-04   |Residual|: 1.052e-02   |deigs|: 4.446e-05  t[s]:   6981.47
	FillingsUpdate:  mu: +0.751761884  nElectrons: 550.000000
SCF: Cycle: 34   F: -4771.319679178875049   dF: -2.626e-04   |Residual|: 3.581e-03   |deigs|: 3.892e-05  t[s]:   7053.92
	FillingsUpdate:  mu: +0.751762119  nElectrons: 550.000000
SCF: Cycle: 35   F: -4771.319619752739527   dF: +5.943e-05   |Residual|: 5.989e-03   |deigs|: 2.180e-05  t[s]:   7123.90
	FillingsUpdate:  mu: +0.751763483  nElectrons: 550.000000
SCF: Cycle: 36   F: -4771.319671608514000   dF: -5.186e-05   |Residual|: 3.686e-03   |deigs|: 1.605e-05  t[s]:   7191.92
	FillingsUpdate:  mu: +0.751763562  nElectrons: 550.000000
SCF: Cycle: 37   F: -4771.319708401862044   dF: -3.679e-05   |Residual|: 1.106e-03   |deigs|: 1.266e-05  t[s]:   7261.58
	FillingsUpdate:  mu: +0.751763617  nElectrons: 550.000000
SCF: Cycle: 38   F: -4771.319708188320874   dF: +2.135e-07   |Residual|: 1.085e-03   |deigs|: 4.159e-06  t[s]:   7330.99
	FillingsUpdate:  mu: +0.751763346  nElectrons: 550.000000
SCF: Cycle: 39   F: -4771.319706027266875   dF: +2.161e-06   |Residual|: 1.429e-03   |deigs|: 4.876e-06  t[s]:   7398.41
	FillingsUpdate:  mu: +0.751762742  nElectrons: 550.000000
SCF: Cycle: 40   F: -4771.319707781731267   dF: -1.754e-06   |Residual|: 1.267e-03   |deigs|: 4.815e-06  t[s]:   7467.10
	FillingsUpdate:  mu: +0.751762791  nElectrons: 550.000000
SCF: Cycle: 41   F: -4771.319711463728709   dF: -3.682e-06   |Residual|: 3.264e-04   |deigs|: 3.818e-06  t[s]:   7536.42
	FillingsUpdate:  mu: +0.751763134  nElectrons: 550.000000
SCF: Cycle: 42   F: -4771.319709608389530   dF: +1.855e-06   |Residual|: 8.316e-04   |deigs|: 2.876e-06  t[s]:   7605.93
	FillingsUpdate:  mu: +0.751763039  nElectrons: 550.000000
SCF: Cycle: 43   F: -4771.319710487965494   dF: -8.796e-07   |Residual|: 6.670e-04   |deigs|: 3.233e-06  t[s]:   7676.56
	FillingsUpdate:  mu: +0.751763583  nElectrons: 550.000000
SCF: Cycle: 44   F: -4771.319711167065179   dF: -6.791e-07   |Residual|: 4.234e-04   |deigs|: 2.052e-06  t[s]:   7744.27
	FillingsUpdate:  mu: +0.751763740  nElectrons: 550.000000
SCF: Cycle: 45   F: -4771.319710540217784   dF: +6.268e-07   |Residual|: 6.673e-04   |deigs|: 2.879e-06  t[s]:   7816.68
	FillingsUpdate:  mu: +0.751763739  nElectrons: 550.000000
SCF: Cycle: 46   F: -4771.319711189228656   dF: -6.490e-07   |Residual|: 4.500e-04   |deigs|: 1.745e-06  t[s]:   7888.74
	FillingsUpdate:  mu: +0.751763513  nElectrons: 550.000000
SCF: Cycle: 47   F: -4771.319711176933197   dF: +1.230e-08   |Residual|: 4.212e-04   |deigs|: 1.834e-06  t[s]:   7958.93
	FillingsUpdate:  mu: +0.751763380  nElectrons: 550.000000
SCF: Cycle: 48   F: -4771.319711478819954   dF: -3.019e-07   |Residual|: 2.875e-04   |deigs|: 1.523e-06  t[s]:   8030.81
	FillingsUpdate:  mu: +0.751763232  nElectrons: 550.000000
SCF: Cycle: 49   F: -4771.319711587155325   dF: -1.083e-07   |Residual|: 2.078e-04   |deigs|: 1.207e-06  t[s]:   8100.90
Setting wave functions to eigenvectors of Hamiltonian

# Ionic positions in lattice coordinates:
ion Co  -0.000053557524997  -0.000100517930063  -0.000133084273408 1
ion Co  -0.016126535285847   0.250579839891090   0.234696710749437 1
ion Co   0.268528019893787   0.000714265375579   0.234255336829260 1
ion Co   0.245081452422814   0.248698289620111  -0.015790023037147 1
ion Co   0.008944905260265  -0.003955507256447   0.504878211114403 1
ion Co  -0.017129891844278   0.258957423823689   0.744755874821010 1
ion Co   0.275413154011966   0.001616336353292   0.765249267645445 1
ion Co   0.255418871162365   0.253049166689506   0.498674544901122 1
ion Co  -0.009246171819350   0.494121614679417   0.004168744841407 1
ion Co   0.012022224857955   0.762656803257844   0.261286174342713 1
ion Co   0.252202641110852   0.507959451793716   0.255062549159300 1
ion Co   0.253437667985431   0.758482057390325  -0.013814902547520 1
ion Co  -0.005279174606952   0.487498547164572   0.508065860489020 1
ion Co   0.005277330760943   0.756676411098088   0.752401709494747 1
ion Co   0.240371720046095   0.495582696677189   0.743976220349027 1
ion Co   0.255092035459703   0.752237546375434   0.502700896416882 1
ion Co   0.510426880951863  -0.005472596363869  -0.007485180287290 1
ion Co   0.494747241717901   0.252843952343163   0.259692996303381 1
ion Co   0.743224933537083  -0.000708620152058   0.233409844851978 1
ion Co   0.752331009298978   0.248739483319743  -0.009345509925662 1
ion Co   0.499049224305859  -0.000719858816120   0.498012212124231 1
ion Co   0.477111427734696   0.243984004508578   0.758935877098593 1
ion Co   0.764022622157847  -0.011290393885960   0.732536915316948 1
ion Co   0.763404535518032   0.243486490080835   0.501400361892035 1
ion Co   0.479855852512198   0.503782078713537   0.011806102474572 1
ion Co   0.485586798864660   0.761649619057123   0.260861887987343 1
ion Co   0.745058077127614   0.498381821185918   0.246392481590314 1
ion Co   0.753049167862605   0.747792582642010  -0.008682865040746 1
ion Co   0.499252300388060   0.505196953154117   0.502092179919798 1
ion Co   0.504438398679624   0.750794457662760   0.742596020937904 1
ion Co   0.746370200120042   0.505646670811784   0.764174961341651 1
ion Co   0.747838615082268   0.744716130911927   0.503801311352991 1
ion O   0.218968022249919   0.288962799823169   0.293776310766262 1

# Forces in Lattice coordinates:
force Co  -0.053752968060918  -0.093997741054962  -0.123303602263114 1
force Co  -0.702653146727092  -0.232130969113924   0.063568310241735 1
force Co  -0.375732898477308  -0.203177976745184   0.099983416858063 1
force Co  -0.052694260981642   0.061238315438573   0.054171221666696 1
force Co  -0.035384818917575   0.027386158341162  -0.065140785300656 1
force Co   0.308722205961485  -0.241859548991020   0.204568253573306 1
force Co  -0.623405130046677  -0.178680577360711  -0.424794278652840 1
force Co   0.387471993119583  -0.840134938972339   4.056088505890317 1
force Co   0.132543778180014   0.309718274497786  -0.162826581603948 1
force Co  -0.210810972902831  -0.152923532721835  -0.218470434587495 1
force Co   0.052090574700265   2.260936810580376  -0.450985734285547 1
force Co  -0.081189659676412  -0.210743961635893   0.247954724907824 1
force Co  -0.160074546173879   0.459351578818838  -0.100476495801045 1
force Co  -0.015020622649630  -0.175369032450926  -0.070411548136941 1
force Co   0.127775457206434   0.172927958581155   0.135685703268399 1
force Co  -0.128911544600907   0.016593110578289   0.106146665232797 1
force Co   0.088339747206238   0.043508953721955   0.068444431422142 1
force Co   0.609621519491841  -0.036197924284152  -0.302845231735287 1
force Co   0.131265107811203  -0.026001586866595   0.324369593775785 1
force Co  -0.267580135266931  -0.016444015083839   0.041367617816776 1
force Co   0.171146863482155   0.020512301471880   0.142175848792303 1
force Co   0.715355018953202   0.358449835128331  -0.169447807498452 1
force Co  -0.239581927919002   0.204735957719965   0.274617756850983 1
force Co  -0.393005933201534   0.053389182708236  -0.111026968695323 1
force Co   0.373453336366739   0.021477033434369  -0.305020039431636 1
force Co   0.393519127632612  -0.251693635693008  -0.255349951701802 1
force Co  -0.009089581657119   0.119707722673475   0.055617548085761 1
force Co  -0.045719841140200   0.063840777227069   0.240182723174464 1
force Co   0.226599044180098  -0.046242209447700   0.134848820536969 1
force Co  -0.046262542443829  -0.083021970274729   0.158133475022536 1
force Co  -0.065536437348547  -0.130135366918948  -0.238210930810423 1
force Co   0.125568193257462   0.009579837463183  -0.238623489889255 1
force O  -0.309963369045490  -1.278347056957397  -3.175800230229901 1

# Energy components:
   Eewald =    -3290.4597005032396737
       EH =     1368.4677991116448084
     Eloc =    -3859.0016310124710799
      Enl =      825.0637123960057124
      Exc =     -521.5920362817254272
 Exc_core =       16.9301656093777169
       KE =      689.8173066334265968
-------------------------------------
     Etot =    -4770.7743840469811403
       TS =        0.5452804614828874
-------------------------------------
        F =    -4771.3196645084635747

IonicMinimize: Iter:   1  F: -4771.319664508463575  |grad|_K:  4.875e-02  alpha:  1.816e-01  linmin: -9.764e-01  t[s]:   8115.05

#--- Lowdin population analysis ---
# oxidation-state Co +0.012 -0.004 +0.013 +0.012 +0.019 +0.009 +0.008 -0.022 +0.012 +0.028 -0.016 +0.014 +0.014 +0.015 +0.010 +0.008 +0.010 +0.006 +0.021 +0.015 +0.010 +0.018 +0.014 +0.022 +0.022 +0.009 +0.024 +0.021 +0.013 +0.009 +0.020 +0.020
# oxidation-state O +0.233


-------- Electronic minimization -----------
Will mix electronic density at each iteration.
	FillingsUpdate:  mu: +0.751763232  nElectrons: 550.000000
	FillingsUpdate:  mu: +0.752162690  nElectrons: 550.000000
SCF: Cycle:  0   F: -4753.356527057077983   dF: +1.717e+01   |Residual|: 2.141e+00   |deigs|: 2.449e-03  t[s]:   8276.51
	FillingsUpdate:  mu: +0.847228517  nElectrons: 550.000000
SCF: Cycle:  1   F: -4636.991376166822192   dF: +1.164e+02   |Residual|: 7.523e+00   |deigs|: 1.584e-01  t[s]:   8396.81
	FillingsUpdate:  mu: +0.779636321  nElectrons: 550.000000
SCF: Cycle:  2   F: -4707.681106001188709   dF: -7.069e+01   |Residual|: 5.167e+00   |deigs|: 1.037e-01  t[s]:   8516.86
	FillingsUpdate:  mu: +0.759326831  nElectrons: 550.000000
SCF: Cycle:  3   F: -4751.656364184802442   dF: -4.398e+01   |Residual|: 2.747e+00   |deigs|: 3.379e-02  t[s]:   8639.70
	FillingsUpdate:  mu: +0.757494033  nElectrons: 550.000000
SCF: Cycle:  4   F: -4753.012820069195186   dF: -1.356e+00   |Residual|: 2.607e+00   |deigs|: 1.298e-02  t[s]:   8755.79
	FillingsUpdate:  mu: +0.755730851  nElectrons: 550.000000
SCF: Cycle:  5   F: -4767.157792619497741   dF: -1.414e+01   |Residual|: 1.309e+00   |deigs|: 1.505e-02  t[s]:   8880.13
	FillingsUpdate:  mu: +0.755528476  nElectrons: 550.000000
SCF: Cycle:  6   F: -4765.098484104029922   dF: +2.059e+00   |Residual|: 1.570e+00   |deigs|: 7.482e-03  t[s]:   8999.53
	FillingsUpdate:  mu: +0.755419027  nElectrons: 550.000000
SCF: Cycle:  7   F: -4757.067816524344380   dF: +8.031e+00   |Residual|: 2.184e+00   |deigs|: 5.017e-03  t[s]:   9116.51
	FillingsUpdate:  mu: +0.751162810  nElectrons: 550.000000
SCF: Cycle:  8   F: -4770.482850008464084   dF: -1.342e+01   |Residual|: 5.992e-01   |deigs|: 8.531e-03  t[s]:   9233.03
	FillingsUpdate:  mu: +0.750632809  nElectrons: 550.000000
SCF: Cycle:  9   F: -4770.488829750149307   dF: -5.980e-03   |Residual|: 5.522e-01   |deigs|: 2.187e-03  t[s]:   9352.23
	FillingsUpdate:  mu: +0.751057252  nElectrons: 550.000000
SCF: Cycle: 10   F: -4770.616690270677282   dF: -1.279e-01   |Residual|: 5.035e-01   |deigs|: 2.089e-03  t[s]:   9472.33
	FillingsUpdate:  mu: +0.751377130  nElectrons: 550.000000
SCF: Cycle: 11   F: -4770.835205984929416   dF: -2.185e-01   |Residual|: 4.325e-01   |deigs|: 1.130e-03  t[s]:   9590.73
	FillingsUpdate:  mu: +0.752025236  nElectrons: 550.000000
SCF: Cycle: 12   F: -4771.079810479039224   dF: -2.446e-01   |Residual|: 3.553e-01   |deigs|: 2.265e-03  t[s]:   9718.04
	FillingsUpdate:  mu: +0.752187120  nElectrons: 550.000000
SCF: Cycle: 13   F: -4771.220261964836936   dF: -1.405e-01   |Residual|: 2.549e-01   |deigs|: 7.586e-04  t[s]:   9840.92
	FillingsUpdate:  mu: +0.751968576  nElectrons: 550.000000
SCF: Cycle: 14   F: -4771.330098800026462   dF: -1.098e-01   |Residual|: 1.432e-01   |deigs|: 3.863e-04  t[s]:   9912.10
	FillingsUpdate:  mu: +0.751761667  nElectrons: 550.000000
SCF: Cycle: 15   F: -4771.313404112187527   dF: +1.669e-02   |Residual|: 1.611e-01   |deigs|: 4.794e-04  t[s]:   9983.17
	FillingsUpdate:  mu: +0.751695334  nElectrons: 550.000000
SCF: Cycle: 16   F: -4771.303530885413238   dF: +9.873e-03   |Residual|: 1.781e-01   |deigs|: 4.139e-04  t[s]:  10052.29
	FillingsUpdate:  mu: +0.751713561  nElectrons: 550.000000
SCF: Cycle: 17   F: -4771.376401902139150   dF: -7.287e-02   |Residual|: 6.606e-02   |deigs|: 4.579e-04  t[s]:  10120.40
	FillingsUpdate:  mu: +0.751595361  nElectrons: 550.000000
SCF: Cycle: 18   F: -4771.368687937225332   dF: +7.714e-03   |Residual|: 8.174e-02   |deigs|: 1.841e-04  t[s]:  10189.05
	FillingsUpdate:  mu: +0.751567573  nElectrons: 550.000000
SCF: Cycle: 19   F: -4771.380612941863546   dF: -1.193e-02   |Residual|: 4.564e-02   |deigs|: 2.291e-04  t[s]:  10263.63
	FillingsUpdate:  mu: +0.751605896  nElectrons: 550.000000
SCF: Cycle: 20   F: -4771.379811357438484   dF: +8.016e-04   |Residual|: 4.986e-02   |deigs|: 1.977e-04  t[s]:  10331.75
	FillingsUpdate:  mu: +0.751638378  nElectrons: 550.000000
SCF: Cycle: 21   F: -4771.380357514679417   dF: -5.462e-04   |Residual|: 4.671e-02   |deigs|: 1.637e-04  t[s]:  10400.82
	FillingsUpdate:  mu: +0.751707652  nElectrons: 550.000000
SCF: Cycle: 22   F: -4771.369035493101364   dF: +1.132e-02   |Residual|: 7.855e-02   |deigs|: 3.698e-04  t[s]:  10472.15
	FillingsUpdate:  mu: +0.751730309  nElectrons: 550.000000
SCF: Cycle: 23   F: -4771.374657460958588   dF: -5.622e-03   |Residual|: 6.930e-02   |deigs|: 2.561e-04  t[s]:  10541.93
	FillingsUpdate:  mu: +0.751705125  nElectrons: 550.000000
SCF: Cycle: 24   F: -4771.383846207785609   dF: -9.189e-03   |Residual|: 2.648e-02   |deigs|: 2.417e-04  t[s]:  10610.49
	FillingsUpdate:  mu: +0.751645816  nElectrons: 550.000000
SCF: Cycle: 25   F: -4771.380316729676451   dF: +3.529e-03   |Residual|: 4.345e-02   |deigs|: 1.451e-04  t[s]:  10683.23
	FillingsUpdate:  mu: +0.751637844  nElectrons: 550.000000
SCF: Cycle: 26   F: -4771.384050148874849   dF: -3.733e-03   |Residual|: 2.534e-02   |deigs|: 1.321e-04  t[s]:  10753.22
	FillingsUpdate:  mu: +0.751633823  nElectrons: 550.000000
SCF: Cycle: 27   F: -4771.384634730414291   dF: -5.846e-04   |Residual|: 2.057e-02   |deigs|: 6.019e-05  t[s]:  10824.52
	FillingsUpdate:  mu: +0.751622088  nElectrons: 550.000000
SCF: Cycle: 28   F: -4771.383579105403442   dF: +1.056e-03   |Residual|: 3.017e-02   |deigs|: 7.439e-05  t[s]:  10896.19
	FillingsUpdate:  mu: +0.751626140  nElectrons: 550.000000
SCF: Cycle: 29   F: -4771.381514133216115   dF: +2.065e-03   |Residual|: 3.932e-02   |deigs|: 9.945e-05  t[s]:  10967.91
	FillingsUpdate:  mu: +0.751622977  nElectrons: 550.000000
SCF: Cycle: 30   F: -4771.383603502430560   dF: -2.089e-03   |Residual|: 2.971e-02   |deigs|: 8.887e-05  t[s]:  11036.92
	FillingsUpdate:  mu: +0.751628318  nElectrons: 550.000000
SCF: Cycle: 31   F: -4771.385470937428181   dF: -1.867e-03   |Residual|: 1.193e-02   |deigs|: 6.690e-05  t[s]:  11104.28
	FillingsUpdate:  mu: +0.751628976  nElectrons: 550.000000
SCF: Cycle: 32   F: -4771.385196003965575   dF: +2.749e-04   |Residual|: 1.504e-02   |deigs|: 4.766e-05  t[s]:  11174.47
	FillingsUpdate:  mu: +0.751637254  nElectrons: 550.000000
SCF: Cycle: 33   F: -4771.385440838290378   dF: -2.448e-04   |Residual|: 1.165e-02   |deigs|: 6.247e-05  t[s]:  11245.38
	FillingsUpdate:  mu: +0.751637186  nElectrons: 550.000000
SCF: Cycle: 34   F: -4771.385498217192435   dF: -5.738e-05   |Residual|: 1.167e-02   |deigs|: 4.579e-05  t[s]:  11314.14
	FillingsUpdate:  mu: +0.751638562  nElectrons: 550.000000
SCF: Cycle: 35   F: -4771.383234956060733   dF: +2.263e-03   |Residual|: 3.099e-02   |deigs|: 1.055e-04  t[s]:  11383.24
	FillingsUpdate:  mu: +0.751637876  nElectrons: 550.000000
SCF: Cycle: 36   F: -4771.385348472889746   dF: -2.114e-03   |Residual|: 1.246e-02   |deigs|: 7.839e-05  t[s]:  11454.16
	FillingsUpdate:  mu: +0.751641253  nElectrons: 550.000000
SCF: Cycle: 37   F: -4771.385078253480060   dF: +2.702e-04   |Residual|: 1.585e-02   |deigs|: 5.399e-05  t[s]:  11524.02
	FillingsUpdate:  mu: +0.751641451  nElectrons: 550.000000
SCF: Cycle: 38   F: -4771.385110969577909   dF: -3.272e-05   |Residual|: 1.579e-02   |deigs|: 4.261e-05  t[s]:  11593.42
	FillingsUpdate:  mu: +0.751640443  nElectrons: 550.000000
SCF: Cycle: 39   F: -4771.385646600815562   dF: -5.356e-04   |Residual|: 8.079e-03   |deigs|: 2.820e-05  t[s]:  11663.68
	FillingsUpdate:  mu: +0.751640965  nElectrons: 550.000000
SCF: Cycle: 40   F: -4771.385658608790436   dF: -1.201e-05   |Residual|: 7.245e-03   |deigs|: 2.401e-05  t[s]:  11731.81
	FillingsUpdate:  mu: +0.751639940  nElectrons: 550.000000
SCF: Cycle: 41   F: -4771.385654822841389   dF: +3.786e-06   |Residual|: 7.550e-03   |deigs|: 2.087e-05  t[s]:  11802.24
	FillingsUpdate:  mu: +0.751640469  nElectrons: 550.000000
SCF: Cycle: 42   F: -4771.385294107950358   dF: +3.607e-04   |Residual|: 1.474e-02   |deigs|: 3.962e-05  t[s]:  11876.82
	FillingsUpdate:  mu: +0.751637353  nElectrons: 550.000000
SCF: Cycle: 43   F: -4771.385435130116093   dF: -1.410e-04   |Residual|: 1.177e-02   |deigs|: 4.242e-05  t[s]:  11945.03
	FillingsUpdate:  mu: +0.751643175  nElectrons: 550.000000
SCF: Cycle: 44   F: -4771.385323149595934   dF: +1.120e-04   |Residual|: 1.319e-02   |deigs|: 5.875e-05  t[s]:  12013.72
	FillingsUpdate:  mu: +0.751639532  nElectrons: 550.000000
SCF: Cycle: 45   F: -4771.385559884151917   dF: -2.367e-04   |Residual|: 1.047e-02   |deigs|: 4.450e-05  t[s]:  12084.13
	FillingsUpdate:  mu: +0.751637001  nElectrons: 550.000000
SCF: Cycle: 46   F: -4771.385763468580080   dF: -2.036e-04   |Residual|: 3.974e-03   |deigs|: 3.496e-05  t[s]:  12156.25
	FillingsUpdate:  mu: +0.751635096  nElectrons: 550.000000
SCF: Cycle: 47   F: -4771.385588109896162   dF: +1.754e-04   |Residual|: 8.388e-03   |deigs|: 2.707e-05  t[s]:  12226.10
	FillingsUpdate:  mu: +0.751638134  nElectrons: 550.000000
SCF: Cycle: 48   F: -4771.385701793740736   dF: -1.137e-04   |Residual|: 6.015e-03   |deigs|: 3.004e-05  t[s]:  12299.88
	FillingsUpdate:  mu: +0.751638836  nElectrons: 550.000000
SCF: Cycle: 49   F: -4771.385717098804889   dF: -1.531e-05   |Residual|: 5.573e-03   |deigs|: 1.944e-05  t[s]:  12369.05
Setting wave functions to eigenvectors of Hamiltonian

# Ionic positions in lattice coordinates:
ion Co  -0.000206682471034  -0.000356037383669  -0.000465413652331 1
ion Co  -0.018082852048024   0.249962812343498   0.234892600451022 1
ion Co   0.267528244317402   0.000215264369226   0.234561097205490 1
ion Co   0.244948648397598   0.248860512450278  -0.015634017489598 1
ion Co   0.008842845019478  -0.003876820005795   0.504704511891016 1
ion Co  -0.016317875682761   0.258316204936830   0.745292405770609 1
ion Co   0.273763711232573   0.001155729798611   0.764127054663769 1
ion Co   0.255909024464732   0.251488225347573   0.506230377032504 1
ion Co  -0.008903167594748   0.494949121257361   0.003735679268932 1
ion Co   0.011450166231929   0.762252024218380   0.260705602393522 1
ion Co   0.252311501284574   0.513663154486462   0.254051960506727 1
ion Co   0.253220386586101   0.757923707499689  -0.013153005205268 1
ion Co  -0.005675114546008   0.488691680718691   0.507790497359985 1
ion Co   0.005229766713491   0.756206884257628   0.752214660119757 1
ion Co   0.240709386292368   0.496053105778619   0.744343353222298 1
ion Co   0.254750380585047   0.752282004245942   0.502981181438598 1
ion Co   0.510649717772228  -0.005356344402980  -0.007311679834598 1
ion Co   0.496260816176628   0.252763871024228   0.258962685510450 1
ion Co   0.743572619635926  -0.000778949713367   0.234275587468304 1
ion Co   0.751616449225366   0.248697351729132  -0.009233090541840 1
ion Co   0.499503234347606  -0.000673874263211   0.498387139342359 1
ion Co   0.479018632386258   0.244921651376497   0.758501952939905 1
ion Co   0.763382142525033  -0.010747725315721   0.733267506629490 1
ion Co   0.762363366771881   0.243631124072022   0.501111789263713 1
ion Co   0.480857914221678   0.503840522026939   0.010988246673054 1
ion Co   0.486632979244851   0.760989633638742   0.260186600216921 1
ion Co   0.745032646927759   0.498701439569990   0.246540546197717 1
ion Co   0.752924165639167   0.747960225085395  -0.008042411541551 1
ion Co   0.499830879441496   0.505063947203879   0.502438800465724 1
ion Co   0.504312129834711   0.750576007612705   0.743017726387566 1
ion Co   0.746199901415702   0.505297708534792   0.763540993268769 1
ion Co   0.748171104376541   0.744745817378255   0.503169698344067 1
ion O   0.218882931274449   0.285140020123379   0.288229364232918 1

# Forces in Lattice coordinates:
force Co  -0.058640283084239  -0.091146999131477  -0.121129966281802 1
force Co  -0.658427244481899  -0.185147163343481   0.091140232600168 1
force Co  -0.344268180495023  -0.164595559176081   0.116674124200506 1
force Co  -0.035555279668690   0.060510865731419   0.062744245685754 1
force Co  -0.046529863375979   0.030759349855477  -0.059543599994818 1
force Co   0.277226514526441  -0.221470724385601   0.180281847828017 1
force Co  -0.562125656114993  -0.145568394653448  -0.376870664616664 1
force Co   0.126387859468835  -0.460012218122353   2.345906847451623 1
force Co   0.120288133753907   0.290323278740560  -0.146696711044755 1
force Co  -0.213073231318704  -0.139380638397226  -0.205761142756735 1
force Co  -0.036483815110815   1.466668810098639  -0.244299161234112 1
force Co  -0.075146128351996  -0.191822280642044   0.229277957336588 1
force Co  -0.121760575129928   0.405274434505410  -0.100959762351067 1
force Co  -0.023955336036545  -0.165238899781995  -0.065930719741336 1
force Co   0.122100679586079   0.174085993138604   0.133885517983229 1
force Co  -0.115585165525378   0.019613574335237   0.096921393656523 1
force Co   0.063394565280060   0.043590343926802   0.051066067651631 1
force Co   0.495348042597850  -0.015442900006249  -0.238826125188279 1
force Co   0.122265311833411  -0.028377428675268   0.306245455796806 1
force Co  -0.249245266188398  -0.010079701752660   0.039262015517294 1
force Co   0.161134780913428   0.011922313838768   0.129895958170249 1
force Co   0.663012548550366   0.310755013650894  -0.139387838002527 1
force Co  -0.225627154922028   0.189989012013941   0.255142384044341 1
force Co  -0.359251915029423   0.056364374973917  -0.089227470709234 1
force Co   0.358224638571637   0.018276718227778  -0.290211951653568 1
force Co   0.371664290391085  -0.219724466399489  -0.233220796729904 1
force Co  -0.005336544314557   0.114982183757848   0.051576273688984 1
force Co  -0.044071742279734   0.056506810399517   0.224866154784499 1
force Co   0.187121918837130  -0.052520716623430   0.111559986453746 1
force Co  -0.044348662528169  -0.071883659886093   0.148857212831109 1
force Co  -0.052102198014071  -0.123120135003189  -0.224834773070052 1
force Co   0.117406137606382   0.020331275489955  -0.215967157896990 1
force O   0.126011648062657  -0.962179010434796  -1.839223458109949 1

# Energy components:
   Eewald =    -3293.9319561925240123
       EH =     1365.2707993956507835
     Eloc =    -3852.1699584697066712
      Enl =      825.0011386570317882
      Exc =     -521.5161770072030549
 Exc_core =       16.9301337987043397
       KE =      689.5775957756573007
-------------------------------------
     Etot =    -4770.8384240423893061
       TS =        0.5471392929833268
-------------------------------------
        F =    -4771.3855633353723533

IonicMinimize: Iter:   2  F: -4771.385563335372353  |grad|_K:  3.139e-02  alpha:  5.832e-01  linmin: -9.930e-01  t[s]:  12383.31

#--- Lowdin population analysis ---
# oxidation-state Co +0.013 +0.002 +0.018 +0.020 +0.017 +0.008 +0.007 -0.008 +0.011 +0.020 -0.003 +0.011 +0.018 +0.014 +0.009 +0.006 +0.014 +0.019 +0.017 +0.015 +0.011 +0.016 +0.017 +0.020 +0.027 +0.008 +0.025 +0.018 +0.018 +0.010 +0.020 +0.022
# oxidation-state O +0.179


-------- Electronic minimization -----------
Will mix electronic density at each iteration.
	FillingsUpdate:  mu: +0.751638836  nElectrons: 550.000000
	FillingsUpdate:  mu: +0.753412452  nElectrons: 550.000000
SCF: Cycle:  0   F: -4740.013654608210345   dF: +3.008e+01   |Residual|: 2.766e+00   |deigs|: 3.788e-03  t[s]:  12550.02
	FillingsUpdate:  mu: +0.884511632  nElectrons: 550.000000
SCF: Cycle:  1   F: -4566.928086988051291   dF: +1.731e+02   |Residual|: 9.115e+00   |deigs|: 2.076e-01  t[s]:  12670.12
	FillingsUpdate:  mu: +0.793327456  nElectrons: 550.000000
SCF: Cycle:  2   F: -4679.920470038412532   dF: -1.130e+02   |Residual|: 6.099e+00   |deigs|: 1.346e-01  t[s]:  12793.27
	FillingsUpdate:  mu: +0.765569561  nElectrons: 550.000000
SCF: Cycle:  3   F: -4741.012661662844948   dF: -6.109e+01   |Residual|: 3.388e+00   |deigs|: 4.361e-02  t[s]:  12916.07
	FillingsUpdate:  mu: +0.760975796  nElectrons: 550.000000
SCF: Cycle:  4   F: -4744.042778955080394   dF: -3.030e+00   |Residual|: 3.121e+00   |deigs|: 1.917e-02  t[s]:  13039.93
	FillingsUpdate:  mu: +0.757207766  nElectrons: 550.000000
SCF: Cycle:  5   F: -4761.233481244492395   dF: -1.719e+01   |Residual|: 2.018e+00   |deigs|: 2.124e-02  t[s]:  13162.72
	FillingsUpdate:  mu: +0.758343828  nElectrons: 550.000000
SCF: Cycle:  6   F: -4754.542509099084782   dF: +6.691e+00   |Residual|: 2.429e+00   |deigs|: 7.060e-03  t[s]:  13284.87
	FillingsUpdate:  mu: +0.757494164  nElectrons: 550.000000
SCF: Cycle:  7   F: -4744.218796867611672   dF: +1.032e+01   |Residual|: 3.008e+00   |deigs|: 6.312e-03  t[s]:  13406.71
	FillingsUpdate:  mu: +0.751353254  nElectrons: 550.000000
SCF: Cycle:  8   F: -4769.870711883241711   dF: -2.565e+01   |Residual|: 7.722e-01   |deigs|: 1.292e-02  t[s]:  13530.91
	FillingsUpdate:  mu: +0.750853173  nElectrons: 550.000000
SCF: Cycle:  9   F: -4769.918278904391627   dF: -4.757e-02   |Residual|: 7.203e-01   |deigs|: 2.225e-03  t[s]:  13656.43
	FillingsUpdate:  mu: +0.750607575  nElectrons: 550.000000
SCF: Cycle: 10   F: -4770.236052517327153   dF: -3.178e-01   |Residual|: 6.100e-01   |deigs|: 2.038e-03  t[s]:  13770.40
	FillingsUpdate:  mu: +0.751082712  nElectrons: 550.000000
SCF: Cycle: 11   F: -4770.569593255313521   dF: -3.335e-01   |Residual|: 5.396e-01   |deigs|: 1.343e-03  t[s]:  13890.35
	FillingsUpdate:  mu: +0.751984328  nElectrons: 550.000000
SCF: Cycle: 12   F: -4770.970434936832135   dF: -4.008e-01   |Residual|: 4.389e-01   |deigs|: 2.380e-03  t[s]:  14012.60
	FillingsUpdate:  mu: +0.752071121  nElectrons: 550.000000
SCF: Cycle: 13   F: -4771.120386607251021   dF: -1.500e-01   |Residual|: 3.427e-01   |deigs|: 7.248e-04  t[s]:  14128.53
	FillingsUpdate:  mu: +0.751757046  nElectrons: 550.000000
SCF: Cycle: 14   F: -4771.221573921372510   dF: -1.012e-01   |Residual|: 2.743e-01   |deigs|: 7.585e-04  t[s]:  14248.85
	FillingsUpdate:  mu: +0.751513560  nElectrons: 550.000000
SCF: Cycle: 15   F: -4771.295881863879004   dF: -7.431e-02   |Residual|: 2.342e-01   |deigs|: 6.047e-04  t[s]:  14348.19
	FillingsUpdate:  mu: +0.751641288  nElectrons: 550.000000
SCF: Cycle: 16   F: -4771.331403803163994   dF: -3.552e-02   |Residual|: 2.023e-01   |deigs|: 3.354e-04  t[s]:  14458.03
	FillingsUpdate:  mu: +0.751649762  nElectrons: 550.000000
SCF: Cycle: 17   F: -4771.406203245837787   dF: -7.480e-02   |Residual|: 1.101e-01   |deigs|: 5.303e-04  t[s]:  14532.43
	FillingsUpdate:  mu: +0.751501416  nElectrons: 550.000000
SCF: Cycle: 18   F: -4771.323519443823898   dF: +8.268e-02   |Residual|: 2.167e-01   |deigs|: 5.634e-04  t[s]:  14617.20
	FillingsUpdate:  mu: +0.751497620  nElectrons: 550.000000
SCF: Cycle: 19   F: -4771.432602279194725   dF: -1.091e-01   |Residual|: 4.821e-02   |deigs|: 4.761e-04  t[s]:  14691.98
	FillingsUpdate:  mu: +0.751493570  nElectrons: 550.000000
SCF: Cycle: 20   F: -4771.428343209924606   dF: +4.259e-03   |Residual|: 5.873e-02   |deigs|: 1.183e-04  t[s]:  14761.57
	FillingsUpdate:  mu: +0.751500738  nElectrons: 550.000000
SCF: Cycle: 21   F: -4771.426262781728838   dF: +2.080e-03   |Residual|: 6.307e-02   |deigs|: 1.623e-04  t[s]:  14835.25
	FillingsUpdate:  mu: +0.751528239  nElectrons: 550.000000
SCF: Cycle: 22   F: -4771.432050871264437   dF: -5.788e-03   |Residual|: 4.736e-02   |deigs|: 1.922e-04  t[s]:  14907.15
	FillingsUpdate:  mu: +0.751548541  nElectrons: 550.000000
SCF: Cycle: 23   F: -4771.430724005314914   dF: +1.327e-03   |Residual|: 5.484e-02   |deigs|: 1.592e-04  t[s]:  14983.78
	FillingsUpdate:  mu: +0.751547697  nElectrons: 550.000000
SCF: Cycle: 24   F: -4771.437926029300797   dF: -7.202e-03   |Residual|: 9.726e-03   |deigs|: 1.304e-04  t[s]:  15052.64
	FillingsUpdate:  mu: +0.751507222  nElectrons: 550.000000
SCF: Cycle: 25   F: -4771.434597414094242   dF: +3.329e-03   |Residual|: 3.622e-02   |deigs|: 1.258e-04  t[s]:  15123.30
	FillingsUpdate:  mu: +0.751498970  nElectrons: 550.000000
SCF: Cycle: 26   F: -4771.438107311490057   dF: -3.510e-03   |Residual|: 4.923e-03   |deigs|: 1.174e-04  t[s]:  15193.05
	FillingsUpdate:  mu: +0.751502547  nElectrons: 550.000000
SCF: Cycle: 27   F: -4771.437150880632544   dF: +9.564e-04   |Residual|: 1.955e-02   |deigs|: 3.958e-05  t[s]:  15265.01
	FillingsUpdate:  mu: +0.751506376  nElectrons: 550.000000
SCF: Cycle: 28   F: -4771.437659168473147   dF: -5.083e-04   |Residual|: 1.398e-02   |deigs|: 4.507e-05  t[s]:  15332.15
	FillingsUpdate:  mu: +0.751510169  nElectrons: 550.000000
SCF: Cycle: 29   F: -4771.438110878991210   dF: -4.517e-04   |Residual|: 4.842e-03   |deigs|: 3.015e-05  t[s]:  15399.47
	FillingsUpdate:  mu: +0.751511603  nElectrons: 550.000000
SCF: Cycle: 30   F: -4771.438166507459755   dF: -5.563e-05   |Residual|: 1.785e-03   |deigs|: 1.451e-05  t[s]:  15473.17
	FillingsUpdate:  mu: +0.751513633  nElectrons: 550.000000
SCF: Cycle: 31   F: -4771.438157377075186   dF: +9.130e-06   |Residual|: 2.345e-03   |deigs|: 6.981e-06  t[s]:  15544.29
	FillingsUpdate:  mu: +0.751517134  nElectrons: 550.000000
SCF: Cycle: 32   F: -4771.438100792159275   dF: +5.658e-05   |Residual|: 4.939e-03   |deigs|: 1.422e-05  t[s]:  15615.99
	FillingsUpdate:  mu: +0.751515997  nElectrons: 550.000000
SCF: Cycle: 33   F: -4771.438172339569974   dF: -7.155e-05   |Residual|: 7.917e-04   |deigs|: 1.260e-05  t[s]:  15684.44
	FillingsUpdate:  mu: +0.751514525  nElectrons: 550.000000
SCF: Cycle: 34   F: -4771.438170177437314   dF: +2.162e-06   |Residual|: 1.272e-03   |deigs|: 4.102e-06  t[s]:  15752.65
	FillingsUpdate:  mu: +0.751513943  nElectrons: 550.000000
SCF: Cycle: 35   F: -4771.438165611411932   dF: +4.566e-06   |Residual|: 1.719e-03   |deigs|: 6.326e-06  t[s]:  15821.10
	FillingsUpdate:  mu: +0.751512492  nElectrons: 550.000000
SCF: Cycle: 36   F: -4771.438170117926347   dF: -4.507e-06   |Residual|: 1.216e-03   |deigs|: 5.402e-06  t[s]:  15892.25
	FillingsUpdate:  mu: +0.751514007  nElectrons: 550.000000
SCF: Cycle: 37   F: -4771.438173033982821   dF: -2.916e-06   |Residual|: 5.669e-04   |deigs|: 4.070e-06  t[s]:  15961.80
	FillingsUpdate:  mu: +0.751514324  nElectrons: 550.000000
SCF: Cycle: 38   F: -4771.438172444682095   dF: +5.893e-07   |Residual|: 7.655e-04   |deigs|: 2.510e-06  t[s]:  16030.59
	FillingsUpdate:  mu: +0.751514230  nElectrons: 550.000000
SCF: Cycle: 39   F: -4771.438173431001815   dF: -9.863e-07   |Residual|: 4.688e-04   |deigs|: 2.634e-06  t[s]:  16103.67
	FillingsUpdate:  mu: +0.751514374  nElectrons: 550.000000
SCF: Cycle: 40   F: -4771.438173063350405   dF: +3.677e-07   |Residual|: 5.816e-04   |deigs|: 1.884e-06  t[s]:  16176.14
	FillingsUpdate:  mu: +0.751514198  nElectrons: 550.000000
SCF: Cycle: 41   F: -4771.438173144972097   dF: -8.162e-08   |Residual|: 5.964e-04   |deigs|: 2.256e-06  t[s]:  16245.55
	FillingsUpdate:  mu: +0.751514387  nElectrons: 550.000000
SCF: Cycle: 42   F: -4771.438173380562148   dF: -2.356e-07   |Residual|: 4.638e-04   |deigs|: 1.548e-06  t[s]:  16317.65
	FillingsUpdate:  mu: +0.751514675  nElectrons: 550.000000
SCF: Cycle: 43   F: -4771.438173617558277   dF: -2.370e-07   |Residual|: 3.614e-04   |deigs|: 1.281e-06  t[s]:  16393.91
	FillingsUpdate:  mu: +0.751514541  nElectrons: 550.000000
SCF: Cycle: 44   F: -4771.438173959641972   dF: -3.421e-07   |Residual|: 1.300e-04   |deigs|: 1.025e-06  t[s]:  16463.89
	FillingsUpdate:  mu: +0.751514465  nElectrons: 550.000000
SCF: Cycle: 45   F: -4771.438173961045322   dF: -1.403e-09   |Residual|: 1.342e-04   |deigs|: 4.608e-07  t[s]:  16526.33
	FillingsUpdate:  mu: +0.751514498  nElectrons: 550.000000
SCF: Cycle: 46   F: -4771.438173929595905   dF: +3.145e-08   |Residual|: 1.674e-04   |deigs|: 5.739e-07  t[s]:  16594.95
	FillingsUpdate:  mu: +0.751514459  nElectrons: 550.000000
SCF: Cycle: 47   F: -4771.438173979337989   dF: -4.974e-08   |Residual|: 1.035e-04   |deigs|: 5.506e-07  t[s]:  16664.28
	FillingsUpdate:  mu: +0.751514428  nElectrons: 550.000000
SCF: Cycle: 48   F: -4771.438173945675771   dF: +3.366e-08   |Residual|: 1.395e-04   |deigs|: 5.619e-07  t[s]:  16736.80
	FillingsUpdate:  mu: +0.751514483  nElectrons: 550.000000
SCF: Cycle: 49   F: -4771.438173993943565   dF: -4.827e-08   |Residual|: 7.204e-05   |deigs|: 3.795e-07  t[s]:  16810.14
Setting wave functions to eigenvectors of Hamiltonian

# Ionic positions in lattice coordinates:
ion Co  -0.000548369082642  -0.000855455643787  -0.001121454380768 1
ion Co  -0.021649402968875   0.249039729221903   0.235463075467407 1
ion Co   0.265704894787586  -0.000586438124507   0.235257897201084 1
ion Co   0.244786428728875   0.249184480828893  -0.015264492218665 1
ion Co   0.008556482123175  -0.003703159222400   0.504393499520669 1
ion Co  -0.014878270769152   0.257144540319048   0.746227349632777 1
ion Co   0.270815321630502   0.000430569603030   0.762171992576485 1
ion Co   0.255750575499673   0.250129793373016   0.513707484849752 1
ion Co  -0.008282675645522   0.496493308267747   0.002969919979541 1
ion Co   0.010270384860117   0.761514840192014   0.259611331746896 1
ion Co   0.251916508237772   0.519929013449143   0.253240283956182 1
ion Co   0.252815311574653   0.756911002691034  -0.011933721976804 1
ion Co  -0.006252602781168   0.490775638315719   0.507237008022696 1
ion Co   0.005071033666125   0.755318894014840   0.751867061240850 1
ion Co   0.241357077908227   0.497007198157252   0.745077335425361 1
ion Co   0.254140400346353   0.752390744021810   0.503493994870133 1
ion Co   0.510933674119504  -0.005122373896998  -0.007068840720617 1
ion Co   0.498668540626234   0.252725591320674   0.257833866337804 1
ion Co   0.744215232002759  -0.000943378612952   0.235916171616100 1
ion Co   0.750284509375830   0.248651385810639  -0.009018267384720 1
ion Co   0.500356074311410  -0.000635105982541   0.499073176689179 1
ion Co   0.482530835236787   0.246510384479264   0.757813459829072 1
ion Co   0.762170318409446  -0.009745355973474   0.734624950123714 1
ion Co   0.760465544787614   0.243941688197393   0.500674682869099 1
ion Co   0.482781983723742   0.503930546138717   0.009432950832179 1
ion Co   0.488611775002361   0.759854513680265   0.258962874100685 1
ion Co   0.745004000102422   0.499315979954278   0.246817391773139 1
ion Co   0.752678808518631   0.748248626559322  -0.006841170405715 1
ion Co   0.500754168855794   0.504754757526135   0.502998013012660 1
ion Co   0.504065886726639   0.750202618171028   0.743815710642610 1
ion Co   0.745938168558473   0.504633603971197   0.762343412222195 1
ion Co   0.748788804110507   0.744875855438916   0.502040604835818 1
ion O   0.220868577416148   0.280235963753384   0.282592447713201 1

# Forces in Lattice coordinates:
force Co  -0.060178437928678  -0.078423961420572  -0.108513067727896 1
force Co  -0.456974387920608  -0.105225377740949   0.129076233427014 1
force Co  -0.292304494272443  -0.135026701357420   0.127220721994572 1
force Co  -0.013421986883358   0.056604764539117   0.068290720531349 1
force Co  -0.064815679531685   0.033810340280683  -0.051909466125232 1
force Co   0.225999146284198  -0.185299372361007   0.140983972966705 1
force Co  -0.460236033558343  -0.096868006167448  -0.296193385958734 1
force Co  -0.025793589907206  -0.226902670296417   1.243576476188552 1
force Co   0.102844019317108   0.246798414250960  -0.120257420768798 1
force Co  -0.208687818801752  -0.119524639345947  -0.183730681711053 1
force Co  -0.093063734013688   0.755950122114156  -0.111724770677147 1
force Co  -0.063005469019896  -0.156166007452909   0.196430243653237 1
force Co  -0.080461347759670   0.328026634506882  -0.093353351728239 1
force Co  -0.037664450493612  -0.143523118851978  -0.057100678577089 1
force Co   0.112343798153108   0.165276010111922   0.126825378798372 1
force Co  -0.091401827094006   0.023696533703307   0.074898864197697 1
force Co   0.023441854176236   0.040815629906783   0.031375657380897 1
force Co   0.372420884787595  -0.000263355847727  -0.182734023093845 1
force Co   0.101286258244579  -0.033786787848216   0.272924779511971 1
force Co  -0.207671727236124   0.002480046757755   0.038365969852493 1
force Co   0.133660343313850   0.000136652562017   0.107346118682403 1
force Co   0.556111414351993   0.230135125565474  -0.102500844999444 1
force Co  -0.196999383004220   0.164879828531397   0.221514894734570 1
force Co  -0.307583456758148   0.062271308535211  -0.051117980413848 1
force Co   0.317216682241330   0.016006929041954  -0.252818739668490 1
force Co   0.333635885539840  -0.171909537762142  -0.197971149358242 1
force Co   0.001447586390163   0.108085598362051   0.042354618545462 1
force Co  -0.040956466113032   0.041483254810234   0.195699955195742 1
force Co   0.137225659911635  -0.051189243403783   0.081235080716447 1
force Co  -0.040150457945972  -0.052995940850002   0.132592506695404 1
force Co  -0.031718557243639  -0.110631163742723  -0.201168638498775 1
force Co   0.098714751585102   0.037085944984569  -0.176581660566370 1
force O   0.286335444097565  -0.623916933849030  -1.060998810369401 1

# Energy components:
   Eewald =    -3297.6716440702466571
       EH =     1361.7756884752552651
     Eloc =    -3844.7789587577372004
      Enl =      824.9517751079708887
      Exc =     -521.4430397630637799
 Exc_core =       16.9300912406071191
       KE =      689.3468271729593653
-------------------------------------
     Etot =    -4770.8892605942546652
       TS =        0.5489168405532940
-------------------------------------
        F =    -4771.4381774348075851

IonicMinimize: Iter:   3  F: -4771.438177434807585  |grad|_K:  1.985e-02  alpha:  5.429e-01  linmin: -9.900e-01  t[s]:  16824.04

#--- Lowdin population analysis ---
# oxidation-state Co +0.012 +0.011 +0.023 +0.024 +0.020 +0.008 +0.008 +0.006 +0.014 +0.023 +0.009 +0.012 +0.020 +0.015 +0.010 +0.008 +0.011 +0.020 +0.017 +0.013 +0.011 +0.015 +0.015 +0.019 +0.020 +0.008 +0.021 +0.020 +0.015 +0.011 +0.019 +0.019
# oxidation-state O +0.133


-------- Electronic minimization -----------
Will mix electronic density at each iteration.
	FillingsUpdate:  mu: +0.751514483  nElectrons: 550.000000
	FillingsUpdate:  mu: +0.754618288  nElectrons: 550.000000
SCF: Cycle:  0   F: -4732.249952926650622   dF: +3.782e+01   |Residual|: 3.114e+00   |deigs|: 3.743e-03  t[s]:  16984.05
	FillingsUpdate:  mu: +0.899011734  nElectrons: 550.000000
SCF: Cycle:  1   F: -4529.741573359379800   dF: +2.025e+02   |Residual|: 9.770e+00   |deigs|: 2.347e-01  t[s]:  17102.82
	FillingsUpdate:  mu: +0.798290070  nElectrons: 550.000000
SCF: Cycle:  2   F: -4675.624182296074650   dF: -1.459e+02   |Residual|: 6.375e+00   |deigs|: 1.503e-01  t[s]:  17226.10
	FillingsUpdate:  mu: +0.769972105  nElectrons: 550.000000
SCF: Cycle:  3   F: -4740.255888476351174   dF: -6.463e+01   |Residual|: 3.557e+00   |deigs|: 4.724e-02  t[s]:  17349.07
	FillingsUpdate:  mu: +0.763392708  nElectrons: 550.000000
SCF: Cycle:  4   F: -4739.917910274310088   dF: +3.380e-01   |Residual|: 3.364e+00   |deigs|: 2.383e-02  t[s]:  17468.69
	FillingsUpdate:  mu: +0.757503479  nElectrons: 550.000000
SCF: Cycle:  5   F: -4752.392216213591382   dF: -1.247e+01   |Residual|: 2.648e+00   |deigs|: 2.344e-02  t[s]:  17585.95
	FillingsUpdate:  mu: +0.757727304  nElectrons: 550.000000
SCF: Cycle:  6   F: -4761.856503168101881   dF: -9.464e+00   |Residual|: 1.892e+00   |deigs|: 1.208e-02  t[s]:  17703.50
	FillingsUpdate:  mu: +0.758826883  nElectrons: 550.000000
SCF: Cycle:  7   F: -4743.510128301177247   dF: +1.835e+01   |Residual|: 3.079e+00   |deigs|: 7.491e-03  t[s]:  17820.38
	FillingsUpdate:  mu: +0.752627927  nElectrons: 550.000000
SCF: Cycle:  8   F: -4766.329232357426008   dF: -2.282e+01   |Residual|: 1.436e+00   |deigs|: 1.042e-02  t[s]:  17935.92
	FillingsUpdate:  mu: +0.750341060  nElectrons: 550.000000
SCF: Cycle:  9   F: -4770.661934575939995   dF: -4.333e+00   |Residual|: 5.119e-01   |deigs|: 4.660e-03  t[s]:  18059.08
	FillingsUpdate:  mu: +0.750815979  nElectrons: 550.000000
SCF: Cycle: 10   F: -4769.340021260984940   dF: +1.322e+00   |Residual|: 8.312e-01   |deigs|: 2.919e-03  t[s]:  18174.96
	FillingsUpdate:  mu: +0.751310360  nElectrons: 550.000000
SCF: Cycle: 11   F: -4770.019986044345387   dF: -6.800e-01   |Residual|: 6.804e-01   |deigs|: 1.548e-03  t[s]:  18297.94
	FillingsUpdate:  mu: +0.751730078  nElectrons: 550.000000
SCF: Cycle: 12   F: -4771.152180636478988   dF: -1.132e+00   |Residual|: 3.615e-01   |deigs|: 4.108e-03  t[s]:  18412.75
	FillingsUpdate:  mu: +0.751510006  nElectrons: 550.000000
SCF: Cycle: 13   F: -4771.250313357521009   dF: -9.813e-02   |Residual|: 2.930e-01   |deigs|: 8.369e-04  t[s]:  18527.80
	FillingsUpdate:  mu: +0.751573505  nElectrons: 550.000000
SCF: Cycle: 14   F: -4770.991434661788844   dF: +2.589e-01   |Residual|: 4.192e-01   |deigs|: 6.814e-04  t[s]:  18644.02
	FillingsUpdate:  mu: +0.751137459  nElectrons: 550.000000
SCF: Cycle: 15   F: -4771.384177764677588   dF: -3.927e-01   |Residual|: 1.896e-01   |deigs|: 1.046e-03  t[s]:  18746.81
	FillingsUpdate:  mu: +0.751470479  nElectrons: 550.000000
SCF: Cycle: 16   F: -4771.228099503565318   dF: +1.561e-01   |Residual|: 3.010e-01   |deigs|: 8.183e-04  t[s]:  18857.76
	FillingsUpdate:  mu: +0.751481670  nElectrons: 550.000000
SCF: Cycle: 17   F: -4771.394812364957033   dF: -1.667e-01   |Residual|: 1.729e-01   |deigs|: 7.940e-04  t[s]:  18958.40
	FillingsUpdate:  mu: +0.751395424  nElectrons: 550.000000
SCF: Cycle: 18   F: -4771.438121153521934   dF: -4.331e-02   |Residual|: 1.107e-01   |deigs|: 4.037e-04  t[s]:  19026.42
	FillingsUpdate:  mu: +0.751336973  nElectrons: 550.000000
SCF: Cycle: 19   F: -4771.455716521880277   dF: -1.760e-02   |Residual|: 8.639e-02   |deigs|: 3.149e-04  t[s]:  19098.52
	FillingsUpdate:  mu: +0.751496512  nElectrons: 550.000000
SCF: Cycle: 20   F: -4771.407601415724457   dF: +4.812e-02   |Residual|: 1.580e-01   |deigs|: 2.992e-04  t[s]:  19167.44
	FillingsUpdate:  mu: +0.751477502  nElectrons: 550.000000
SCF: Cycle: 21   F: -4771.409912040147901   dF: -2.311e-03   |Residual|: 1.472e-01   |deigs|: 2.695e-04  t[s]:  19237.85
	FillingsUpdate:  mu: +0.751449056  nElectrons: 550.000000
SCF: Cycle: 22   F: -4771.472396887406831   dF: -6.248e-02   |Residual|: 1.640e-02   |deigs|: 2.758e-04  t[s]:  19311.50
	FillingsUpdate:  mu: +0.751395686  nElectrons: 550.000000
[...]
-------------------------------------
        F =    -4771.5291389945514311

IonicMinimize: Iter:  12  F: -4771.529138994551431  |grad|_K:  2.188e-04  alpha:  1.000e+00  linmin: -3.939e-01  t[s]:  51979.23

#--- Lowdin population analysis ---
# oxidation-state Co +0.016 +0.033 +0.033 +0.033 +0.016 +0.010 +0.010 +0.034 +0.016 +0.010 +0.033 +0.010 +0.016 +0.014 +0.010 +0.010 +0.016 +0.033 +0.010 +0.010 +0.016 +0.010 +0.014 +0.010 +0.016 +0.010 +0.010 +0.014 +0.016 +0.014 +0.014 +0.014
# oxidation-state O +0.075


-------- Electronic minimization -----------
Will mix electronic density at each iteration.
	FillingsUpdate:  mu: +0.751307571  nElectrons: 550.000000
	FillingsUpdate:  mu: +0.751306919  nElectrons: 550.000000
SCF: Cycle:  0   F: -4771.529105037741829   dF: +3.131e-05   |Residual|: 3.441e-03   |deigs|: 2.907e-07  t[s]:  52099.05
	FillingsUpdate:  mu: +0.751299799  nElectrons: 550.000000
SCF: Cycle:  1   F: -4771.524919175204559   dF: +4.186e-03   |Residual|: 3.706e-02   |deigs|: 1.377e-04  t[s]:  52173.72
	FillingsUpdate:  mu: +0.751304847  nElectrons: 550.000000
SCF: Cycle:  2   F: -4771.529129685688531   dF: -4.211e-03   |Residual|: 3.064e-03   |deigs|: 1.163e-04  t[s]:  52241.49
	FillingsUpdate:  mu: +0.751306378  nElectrons: 550.000000
SCF: Cycle:  3   F: -4771.529100021681188   dF: +2.966e-05   |Residual|: 4.144e-03   |deigs|: 1.591e-05  t[s]:  52312.54
	FillingsUpdate:  mu: +0.751308644  nElectrons: 550.000000
SCF: Cycle:  4   F: -4771.529134915032955   dF: -3.489e-05   |Residual|: 2.429e-03   |deigs|: 1.232e-05  t[s]:  52382.93
	FillingsUpdate:  mu: +0.751308266  nElectrons: 550.000000
SCF: Cycle:  5   F: -4771.529148099226404   dF: -1.318e-05   |Residual|: 1.020e-03   |deigs|: 8.274e-06  t[s]:  52453.70
	FillingsUpdate:  mu: +0.751304839  nElectrons: 550.000000
SCF: Cycle:  6   F: -4771.529144398987228   dF: +3.700e-06   |Residual|: 1.660e-03   |deigs|: 6.770e-06  t[s]:  52525.37
	FillingsUpdate:  mu: +0.751304327  nElectrons: 550.000000
SCF: Cycle:  7   F: -4771.529150762866266   dF: -6.364e-06   |Residual|: 2.801e-04   |deigs|: 4.538e-06  t[s]:  52593.99
	FillingsUpdate:  mu: +0.751305962  nElectrons: 550.000000
SCF: Cycle:  8   F: -4771.529149999309993   dF: +7.636e-07   |Residual|: 6.364e-04   |deigs|: 2.376e-06  t[s]:  52653.13
	FillingsUpdate:  mu: +0.751307111  nElectrons: 550.000000
SCF: Cycle:  9   F: -4771.529150934823519   dF: -9.355e-07   |Residual|: 1.246e-04   |deigs|: 1.796e-06  t[s]:  52723.68
	FillingsUpdate:  mu: +0.751306371  nElectrons: 550.000000
SCF: Cycle: 10   F: -4771.529150840214243   dF: +9.461e-08   |Residual|: 2.327e-04   |deigs|: 9.988e-07  t[s]:  52784.77
	FillingsUpdate:  mu: +0.751305821  nElectrons: 550.000000
SCF: Cycle: 11   F: -4771.529150962897802   dF: -1.227e-07   |Residual|: 6.590e-05   |deigs|: 7.215e-07  t[s]:  52856.90
	FillingsUpdate:  mu: +0.751305534  nElectrons: 550.000000
SCF: Cycle: 12   F: -4771.529150846638004   dF: +1.163e-07   |Residual|: 2.108e-04   |deigs|: 6.699e-07  t[s]:  52928.58
	FillingsUpdate:  mu: +0.751306007  nElectrons: 550.000000
SCF: Cycle: 13   F: -4771.529150972090065   dF: -1.255e-07   |Residual|: 3.228e-05   |deigs|: 6.670e-07  t[s]:  52998.14
	FillingsUpdate:  mu: +0.751306025  nElectrons: 550.000000
SCF: Cycle: 14   F: -4771.529150967493479   dF: +4.597e-09   |Residual|: 5.262e-05   |deigs|: 2.036e-07  t[s]:  53048.80
	FillingsUpdate:  mu: +0.751306020  nElectrons: 550.000000
SCF: Cycle: 15   F: -4771.529150973718970   dF: -6.225e-09   |Residual|: 1.353e-05   |deigs|: 1.263e-07  t[s]:  53106.51
	FillingsUpdate:  mu: +0.751306009  nElectrons: 550.000000
SCF: Cycle: 16   F: -4771.529150974070944   dF: -3.520e-10   |Residual|: 1.670e-05   |deigs|: 6.954e-08  t[s]:  53147.76
SCF: Converged (|Delta E|<1.000000e-08 for 2 iters).

Setting wave functions to eigenvectors of Hamiltonian

# Ionic positions in lattice coordinates:
ion Co  -0.004713402115281  -0.001632686763838  -0.002715744013849 1
ion Co  -0.019880527995023   0.251547157493480   0.250511716533043 1
ion Co   0.248903686743771  -0.016934186038256   0.250464296876299 1
ion Co   0.248831341277332   0.251528518818876  -0.018354942675116 1
ion Co  -0.004776204348826  -0.001593457379507   0.503897179761038 1
ion Co  -0.004363915757912   0.251522990826409   0.750471036402666 1
ion Co   0.248833051644173  -0.001462142987890   0.750519083364875 1
ion Co   0.248829298810058   0.251317298038947   0.519206769978033 1
ion Co  -0.004680345522747   0.505070994102306  -0.002790160519567 1
ion Co  -0.004297412782702   0.751603063942120   0.250527956357800 1
ion Co   0.248804918742231   0.520282855282056   0.250257193968554 1
ion Co   0.248776533162613   0.751572976865471  -0.002413207506627 1
ion Co  -0.004453255853038   0.505068609802048   0.503681025489104 1
ion Co  -0.001446190430777   0.751516891898801   0.750464452551872 1
ion Co   0.248721618571255   0.504644529346964   0.750320938916097 1
ion Co   0.248726890968402   0.751624613694068   0.503292637492502 1
ion Co   0.502141339705830  -0.001751403244343  -0.002880274967579 1
ion Co   0.517212692660701   0.251472991557491   0.250381676371711 1
ion Co   0.748813546328285  -0.001270466130088   0.250575113032919 1
ion Co   0.748793574277246   0.251561697590754  -0.002310716784506 1
ion Co   0.502126903030425  -0.001722400545547   0.503916963016582 1
ion Co   0.501818764195746   0.251612154942200   0.750393786050343 1
ion Co   0.748818956328987   0.001187675273992   0.750445330554751 1
ion Co   0.748776887103566   0.251645622433589   0.503250108649795 1
ion Co   0.502011463385186   0.505087580571472  -0.002953245409895 1
ion Co   0.501698417054625   0.751556010291659   0.250389984977303 1
ion Co   0.748732038733022   0.504540112982656   0.250410712505043 1
ion Co   0.748798159372895   0.751498877500013   0.000117432488308 1
ion Co   0.501870336566456   0.505102065359435   0.503688023934896 1
ion Co   0.499080330250857   0.751447365059898   0.750390253768833 1
ion Co   0.748887272836199   0.501748998075115   0.750339246664084 1
ion Co   0.748841941691291   0.751426292057716   0.500744578096748 1
ion O   0.248451291365155   0.251738799281932   0.250170794073940 1

# Forces in Lattice coordinates:
force Co   0.001743995050483  -0.002419958694824  -0.001174817612482 1
force Co   0.000129430949084  -0.001876934741040   0.000161702110950 1
force Co   0.001760902220180  -0.004542880431334   0.000119719465679 1
force Co   0.003190278026334  -0.002947458187549   0.001548630191593 1
force Co   0.002158080538979  -0.002774717341314  -0.000904318318406 1
force Co   0.003635835627344  -0.002285040844526   0.000088967423190 1
force Co   0.001580231229418  -0.000365370036519  -0.000344857876825 1
force Co   0.001055771558169  -0.000055562553097  -0.007822323412425 1
force Co   0.001822514077312  -0.002613813077870   0.000568730368246 1
force Co   0.003053543170389  -0.002857096414842  -0.000714989290065 1
force Co   0.001373239496838  -0.004395962290625   0.002027641480886 1
force Co   0.002558612633469  -0.002586821930411   0.000105416295643 1
force Co   0.000723840076762  -0.002301710295840   0.000244041775857 1
force Co   0.002220248624606  -0.002771384610797  -0.000805886349543 1
force Co   0.002501558482684  -0.003831383137793   0.000330687658632 1
force Co   0.002289136197674  -0.001840924335657  -0.000722945494669 1
force Co   0.001324960085719  -0.002706819863999  -0.000167801286757 1
force Co   0.002904003580757  -0.002700508107444  -0.000159565573252 1
force Co   0.002386694276757  -0.003436458198689  -0.000590926349285 1
force Co   0.001503494222598  -0.002773531954920  -0.001456215946893 1
force Co   0.001962496587323  -0.002857107554698  -0.001630329490742 1
force Co  -0.000269523291971  -0.004161536950550  -0.001474484790854 1
force Co   0.002113439730715  -0.002706770282399  -0.000346692251048 1
force Co   0.001309499838669  -0.002875315693616   0.001338712579682 1
force Co   0.002167616783909  -0.002776484343193   0.000289838530550 1
force Co   0.001923199170853  -0.002704678899388  -0.000772750392306 1
force Co   0.002211553307072  -0.001320999602996   0.000057978670287 1
force Co   0.002325956759304  -0.002785213760013  -0.000187834181762 1
force Co   0.002461363339148  -0.002786279231475  -0.000069553321028 1
force Co   0.002445187303055  -0.002484171976538  -0.000389282262156 1
force Co   0.001579070825167  -0.002998776516979  -0.000162786864157 1
force Co   0.002072012197903  -0.001860567681591  -0.000513768045804 1
force O   0.004846549485157  -0.000509711603483   0.007152893912686 1

# Energy components:
   Eewald =    -3304.7868147236399636
       EH =     1355.0301374912630763
     Eloc =    -3830.6312734037546761
      Enl =      824.8844326901692057
      Exc =     -521.3103219614006321
 Exc_core =       16.9293374400070888
       KE =      688.9059312067183782
-------------------------------------
     Etot =    -4770.9785712606380912
       TS =        0.5505797134332193
-------------------------------------
        F =    -4771.5291509740709444

IonicMinimize: Iter:  13  F: -4771.529150974070944  |grad|_K:  1.080e-04  alpha:  1.000e+00  linmin: -3.118e-01  t[s]:  53160.80

#--- Lowdin population analysis ---
# oxidation-state Co +0.016 +0.033 +0.033 +0.033 +0.016 +0.010 +0.010 +0.033 +0.016 +0.010 +0.033 +0.010 +0.016 +0.014 +0.010 +0.010 +0.016 +0.033 +0.010 +0.010 +0.016 +0.010 +0.014 +0.010 +0.016 +0.010 +0.010 +0.014 +0.016 +0.014 +0.014 +0.014
# oxidation-state O +0.076


-------- Electronic minimization -----------
Will mix electronic density at each iteration.
	FillingsUpdate:  mu: +0.751306009  nElectrons: 550.000000
	FillingsUpdate:  mu: +0.751306231  nElectrons: 550.000000
SCF: Cycle:  0   F: -4771.529140232395548   dF: +7.689e-06   |Residual|: 2.038e-03   |deigs|: 1.273e-07  t[s]:  53279.75
	FillingsUpdate:  mu: +0.751303266  nElectrons: 550.000000
SCF: Cycle:  1   F: -4771.527659926430715   dF: +1.480e-03   |Residual|: 2.163e-02   |deigs|: 6.141e-05  t[s]:  53351.03
	FillingsUpdate:  mu: +0.751305156  nElectrons: 550.000000
SCF: Cycle:  2   F: -4771.529148515460292   dF: -1.489e-03   |Residual|: 1.627e-03   |deigs|: 5.374e-05  t[s]:  53420.67
	FillingsUpdate:  mu: +0.751306050  nElectrons: 550.000000
SCF: Cycle:  3   F: -4771.529131839874935   dF: +1.668e-05   |Residual|: 2.848e-03   |deigs|: 1.068e-05  t[s]:  53491.09
	FillingsUpdate:  mu: +0.751306894  nElectrons: 550.000000
SCF: Cycle:  4   F: -4771.529148152544622   dF: -1.631e-05   |Residual|: 1.571e-03   |deigs|: 7.612e-06  t[s]:  53558.58
	FillingsUpdate:  mu: +0.751306712  nElectrons: 550.000000
SCF: Cycle:  5   F: -4771.529154033168197   dF: -5.881e-06   |Residual|: 3.913e-04   |deigs|: 4.733e-06  t[s]:  53629.25
	FillingsUpdate:  mu: +0.751305250  nElectrons: 550.000000
SCF: Cycle:  6   F: -4771.529152741646612   dF: +1.292e-06   |Residual|: 8.280e-04   |deigs|: 3.094e-06  t[s]:  53695.34
	FillingsUpdate:  mu: +0.751304940  nElectrons: 550.000000
SCF: Cycle:  7   F: -4771.529154364450733   dF: -1.623e-06   |Residual|: 1.567e-04   |deigs|: 2.190e-06  t[s]:  53764.04
	FillingsUpdate:  mu: +0.751305672  nElectrons: 550.000000
SCF: Cycle:  8   F: -4771.529154047827433   dF: +3.166e-07   |Residual|: 3.879e-04   |deigs|: 1.290e-06  t[s]:  53832.38
	FillingsUpdate:  mu: +0.751306226  nElectrons: 550.000000
SCF: Cycle:  9   F: -4771.529154419577026   dF: -3.717e-07   |Residual|: 6.146e-05   |deigs|: 1.034e-06  t[s]:  53901.67
	FillingsUpdate:  mu: +0.751306019  nElectrons: 550.000000
SCF: Cycle: 10   F: -4771.529154400287553   dF: +1.929e-08   |Residual|: 1.011e-04   |deigs|: 3.634e-07  t[s]:  53953.96
	FillingsUpdate:  mu: +0.751305587  nElectrons: 550.000000
SCF: Cycle: 11   F: -4771.529154427064896   dF: -2.678e-08   |Residual|: 3.602e-05   |deigs|: 4.206e-07  t[s]:  54021.59
	FillingsUpdate:  mu: +0.751305471  nElectrons: 550.000000
SCF: Cycle: 12   F: -4771.529154421150452   dF: +5.914e-09   |Residual|: 6.052e-05   |deigs|: 2.961e-07  t[s]:  54090.08
	FillingsUpdate:  mu: +0.751305756  nElectrons: 550.000000
SCF: Cycle: 13   F: -4771.529154430020753   dF: -8.870e-09   |Residual|: 1.957e-05   |deigs|: 3.100e-07  t[s]:  54155.72
	FillingsUpdate:  mu: +0.751305766  nElectrons: 550.000000
SCF: Cycle: 14   F: -4771.529154428603761   dF: +1.417e-09   |Residual|: 2.849e-05   |deigs|: 8.778e-08  t[s]:  54201.97
	FillingsUpdate:  mu: +0.751305743  nElectrons: 550.000000
SCF: Cycle: 15   F: -4771.529154430884773   dF: -2.281e-09   |Residual|: 5.589e-06   |deigs|: 8.151e-08  t[s]:  54243.92
	FillingsUpdate:  mu: +0.751305730  nElectrons: 550.000000
SCF: Cycle: 16   F: -4771.529154430240851   dF: +6.439e-10   |Residual|: 1.639e-05   |deigs|: 5.119e-08  t[s]:  54284.33
	FillingsUpdate:  mu: +0.751305729  nElectrons: 550.000000
SCF: Cycle: 17   F: -4771.529154430089875   dF: +1.510e-10   |Residual|: 3.152e-06   |deigs|: 4.521e-08  t[s]:  54325.81
	FillingsUpdate:  mu: +0.751305727  nElectrons: 550.000000
SCF: Cycle: 18   F: -4771.529154430707422   dF: -6.175e-10   |Residual|: 4.004e-06   |deigs|: 1.600e-08  t[s]:  54366.48
	FillingsUpdate:  mu: +0.751305727  nElectrons: 550.000000
SCF: Cycle: 19   F: -4771.529154430320887   dF: +3.865e-10   |Residual|: 3.238e-06   |deigs|: 1.241e-08  t[s]:  54407.47
	FillingsUpdate:  mu: +0.751305721  nElectrons: 550.000000
SCF: Cycle: 20   F: -4771.529154430884773   dF: -5.639e-10   |Residual|: 4.591e-06   |deigs|: 1.627e-08  t[s]:  54449.33
	FillingsUpdate:  mu: +0.751305735  nElectrons: 550.000000
SCF: Cycle: 21   F: -4771.529154430746530   dF: +1.382e-10   |Residual|: 4.737e-06   |deigs|: 2.277e-08  t[s]:  54489.84
	FillingsUpdate:  mu: +0.751305728  nElectrons: 550.000000
SCF: Cycle: 22   F: -4771.529154430737435   dF: +9.095e-12   |Residual|: 6.502e-07   |deigs|: 1.325e-08  t[s]:  54530.80
	FillingsUpdate:  mu: +0.751305728  nElectrons: 550.000000
SCF: Cycle: 23   F: -4771.529154430178096   dF: +5.593e-10   |Residual|: 1.030e-06   |deigs|: 4.413e-09  t[s]:  54571.27
	FillingsUpdate:  mu: +0.751305728  nElectrons: 550.000000
SCF: Cycle: 24   F: -4771.529154430641029   dF: -4.629e-10   |Residual|: 6.597e-07   |deigs|: 4.149e-09  t[s]:  54613.25
SCF: Converged (|deigs|<1.000000e-08 for 2 iters).

Setting wave functions to eigenvectors of Hamiltonian

# Ionic positions in lattice coordinates:
ion Co  -0.004700332795633  -0.001607296866491  -0.002749943433114 1
ion Co  -0.019921944373071   0.251564186516488   0.250495036514598 1
ion Co   0.248921951992597  -0.016965625481372   0.250441290907497 1
ion Co   0.248853779488265   0.251504621400738  -0.018222708305089 1
ion Co  -0.004748007453131  -0.001604920972875   0.503864532268787 1
ion Co  -0.004313660314300   0.251557830873211   0.750456103446208 1
ion Co   0.248867521736910  -0.001352272036674   0.750503747456010 1
ion Co   0.248809170808747   0.251396982351680   0.519012187216456 1
ion Co  -0.004708868283477   0.505046060589656  -0.002742301437337 1
ion Co  -0.004212167052608   0.751597820333466   0.250531499778424 1
ion Co   0.248767927700700   0.520255667140425   0.250342100470093 1
ion Co   0.248801548498681   0.751555814631073  -0.002423979689522 1
ion Co  -0.004552189992237   0.505085044842859   0.503730831972037 1
ion Co  -0.001424897572783   0.751526904595228   0.750453556357321 1
ion Co   0.248707153804706   0.504574183480381   0.750317139679914 1
ion Co   0.248749574957044   0.751645506173005   0.503265139823715 1
ion Co   0.502131973510896  -0.001753177931147  -0.002882227581707 1
ion Co   0.517305993648679   0.251464502913988   0.250389033087077 1
ion Co   0.748833327611703  -0.001302390388632   0.250535403536871 1
ion Co   0.748776683584313   0.251545375881644  -0.002392024514768 1
ion Co   0.502125680653989  -0.001721125073670   0.503832983236175 1
ion Co   0.501664096829458   0.251541717545456   0.750327893483868 1
ion Co   0.748837386508108   0.001167059827120   0.750413400000748 1
ion Co   0.748770899711995   0.251630489695479   0.503322660627648 1
ion Co   0.501968716291891   0.505073185700905  -0.002899541155745 1
ion Co   0.501662613445745   0.751535276956604   0.250386023971196 1
ion Co   0.748733220503908   0.504591508883873   0.250425645164399 1
ion Co   0.748815357606717   0.751490990848160   0.000122368086636 1
ion Co   0.501896349544407   0.505101391024100   0.503701218643964 1
ion Co   0.499090448873481   0.751447555041729   0.750375769214054 1
ion Co   0.748837465130675   0.501746630874727   0.750379805450437 1
ion Co   0.748830980820346   0.751453066206646   0.500747488281526 1
ion O   0.248512244573280   0.251767434422220   0.250349867441623 1

# Forces in Lattice coordinates:
force Co   0.002013685623382  -0.002871841784627  -0.000992170525810 1
force Co   0.000844368751774  -0.002227825544274   0.000071982082175 1
force Co   0.001614655408262  -0.002933312499190  -0.000374693055506 1
force Co   0.002611025649230  -0.002479142229673   0.000284764484997 1
force Co   0.001969427962758  -0.002461229186230  -0.000310540367755 1
force Co   0.003846317861610  -0.002788188271971   0.000511681300752 1
force Co   0.001124181109034  -0.002187581502530  -0.000442345125295 1
force Co   0.001073289902260  -0.001438100650451  -0.000573498261076 1
force Co   0.002588661482512  -0.002348023810963  -0.000368014594490 1
force Co   0.001617864040964  -0.002621000837680  -0.001144505761572 1
force Co   0.001707979075026  -0.002541454053031   0.000195069568716 1
force Co   0.002034663697441  -0.002516696632408  -0.000414478708764 1
force Co   0.001811224611299  -0.002182469452259  -0.000089839642737 1
force Co   0.002194386546639  -0.003101211520671  -0.000237135226158 1
force Co   0.002463398644085  -0.002865605968797   0.000740228686905 1
force Co   0.001885283742763  -0.002433399142283   0.000849872730325 1
force Co   0.001586269727324  -0.002857152392783  -0.000507684766455 1
force Co   0.001837239590547  -0.002622091902842  -0.000992886477127 1
force Co   0.002434505507120  -0.003093825379230  -0.000460216708140 1
force Co   0.001622469455065  -0.002584844536176  -0.000830162423096 1
force Co   0.001969340594956  -0.003159175336552  -0.000267380795213 1
force Co   0.002021818107420  -0.002963335134391  -0.000189034183230 1
force Co   0.001691593273122  -0.002303245209734   0.000297227107220 1
force Co   0.001722684133529  -0.002843037112439   0.000886414883232 1
force Co   0.002514891871975  -0.002863182303092  -0.000989554961795 1
force Co   0.002540094259206  -0.002594339077226  -0.001238113128283 1
force Co   0.002307128923394  -0.002118336599101  -0.000375421947244 1
force Co   0.002121750141746  -0.002603927986027  -0.000398656436265 1
force Co   0.002189858284808  -0.002624181013717   0.000132992189135 1
force Co   0.001604637937665  -0.002313771942433   0.000173036457130 1
force Co   0.001812032937080  -0.003085458095246  -0.000247003926339 1
force Co   0.002316427740997  -0.002085521001445  -0.000657007206071 1
force O   0.003758791153392  -0.002008165398356   0.001516014305631 1

# Energy components:
   Eewald =    -3304.7913793602874648
       EH =     1355.0247958633487997
     Eloc =    -3830.6214854225972886
      Enl =      824.8845670953076024
      Exc =     -521.3103799179457383
 Exc_core =       16.9293333247787281
       KE =      688.9059659326973133
-------------------------------------
     Etot =    -4770.9785824846967444
       TS =        0.5505719459440298
-------------------------------------
        F =    -4771.5291544306410287

IonicMinimize: Iter:  14  F: -4771.529154430641029  |grad|_K:  4.235e-05  alpha:  1.000e+00  linmin: -9.943e-02  t[s]:  54627.02
IonicMinimize: Converged (|grad|_K<1.000000e-04).

#--- Lowdin population analysis ---
# oxidation-state Co +0.016 +0.033 +0.033 +0.033 +0.016 +0.010 +0.010 +0.033 +0.016 +0.010 +0.033 +0.010 +0.016 +0.014 +0.010 +0.010 +0.016 +0.033 +0.010 +0.010 +0.016 +0.010 +0.014 +0.010 +0.016 +0.010 +0.010 +0.014 +0.016 +0.014 +0.014 +0.014
# oxidation-state O +0.076


Dumping 'Co_oct.Ecomponents' ... done
End date and time: Tue Jun 18 03:35:41 2024  (Duration: 0-15:10:38.48)
Done!
