--------------------------------------------------------------------------
[[33053,1],4]: A high-performance Open MPI point-to-point messaging module
was unable to find any relevant network interfaces:

Module: OpenFabrics (openib)
  Host: node3224

Another transport will be used instead, although this may result in
lower performance.
--------------------------------------------------------------------------

*************** JDFTx 1.7.0  ***************

Start date and time: Sun Jan 28 11:48:27 2024
Executable jdftx with command-line: -i /home/cam559/Valla_project/Ta/Ta16O_tet.in
Running on hosts (process indices):  node3224.physics.cornell.edu (0-9)
Divided in process groups (process indices):  0 (0)  1 (1)  2 (2)  3 (3)  4 (4)  5 (5)  6 (6)  7 (7)  8 (8)  9 (9)
Resource initialization completed at t[s]:      0.00
Run totals: 10 processes, 40 threads, 0 GPUs


Input parsed successfully to the following command list (including defaults):

basis kpoint-dependent
coords-type Cartesian
core-overlap-check vector
coulomb-interaction Periodic
davidson-band-ratio 1.1
dump End Ecomponents
dump-name Ta16.$VAR
elec-cutoff 20 100
elec-eigen-algo Davidson
elec-ex-corr gga-PBE
elec-smearing Fermi 0.004
electronic-minimize  \
	dirUpdateScheme      FletcherReeves \
	linminMethod         DirUpdateRecommended \
	nIterations          100 \
	history              15 \
	knormThreshold       0 \
	energyDiffThreshold  1e-08 \
	nEnergyDiff          2 \
	alphaTstart          1 \
	alphaTmin            1e-10 \
	updateTestStepSize   yes \
	alphaTreduceFactor   0.1 \
	alphaTincreaseFactor 3 \
	nAlphaAdjustMax      3 \
	wolfeEnergy          0.0001 \
	wolfeGradient        0.9 \
	fdTest               no
exchange-regularization WignerSeitzTruncated
fluid None
fluid-ex-corr lda-TF lda-PZ
fluid-gummel-loop 10 1.000000e-05
fluid-minimize  \
	dirUpdateScheme      PolakRibiere \
	linminMethod         DirUpdateRecommended \
	nIterations          100 \
	history              15 \
	knormThreshold       0 \
	energyDiffThreshold  0 \
	nEnergyDiff          2 \
	alphaTstart          1 \
	alphaTmin            1e-10 \
	updateTestStepSize   yes \
	alphaTreduceFactor   0.1 \
	alphaTincreaseFactor 3 \
	nAlphaAdjustMax      3 \
	wolfeEnergy          0.0001 \
	wolfeGradient        0.9 \
	fdTest               no
fluid-solvent H2O 55.338 ScalarEOS \
	epsBulk 78.4 \
	pMol 0.92466 \
	epsInf 1.77 \
	Pvap 1.06736e-10 \
	sigmaBulk 4.62e-05 \
	Rvdw 2.61727 \
	Res 1.42 \
	tauNuc 343133 \
	poleEl 15 7 1
forces-output-coords Positions
initial-state Ta16.$VAR
ion Ta   0.001000000000000   0.000000000000000   0.000000000000000 1
ion Ta   3.118048000000000   3.117048000000000   3.118048000000000 1
ion Ta   0.000000000000000   0.000000000000000   6.235096000000000 1
ion Ta   3.118048000000000   3.118048000000000   9.354144000000000 1
ion Ta   0.000000000000000   6.236096000000000   0.000000000000000 1
ion Ta   3.118048000000000   9.354144000000000   3.118048000000000 1
ion Ta   0.000000000000000   6.236096000000000   6.236096000000000 1
ion Ta   3.118048000000000   9.354144000000000   9.354144000000000 1
ion Ta   6.236096000000000   0.000000000000000   0.000000000000000 1
ion Ta   9.354144000000000   3.118048000000000   3.118048000000000 1
ion Ta   6.236096000000000   0.000000000000000   6.236096000000000 1
ion Ta   9.344144000000000   3.118048000000000   9.354144000000000 1
ion Ta   6.236096000000000   6.236096000000000   0.000000000000000 1
ion Ta   9.354144000000000   9.354144000000000   3.128048000000001 1
ion Ta   6.236096000000000   6.236096000000000   6.236096000000000 1
ion Ta   9.354144000000000   9.355143999999999   9.354144000000000 1
ion O   1.577921000000000   3.136945000000000   0.018897000000000 1
ion-species GBRV/$ID_pbe.uspp
ion-width 0
ionic-minimize  \
	dirUpdateScheme      L-BFGS \
	linminMethod         DirUpdateRecommended \
	nIterations          30 \
	history              15 \
	knormThreshold       0.0001 \
	energyDiffThreshold  1e-06 \
	nEnergyDiff          2 \
	alphaTstart          1 \
	alphaTmin            1e-10 \
	updateTestStepSize   yes \
	alphaTreduceFactor   0.1 \
	alphaTincreaseFactor 3 \
	nAlphaAdjustMax      3 \
	wolfeEnergy          0.0001 \
	wolfeGradient        0.9 \
	fdTest               no
kpoint   0.000000000000   0.000000000000   0.000000000000  1.00000000000000
kpoint-folding 4 4 4 
latt-move-scale 1 1 1
latt-scale 1 1 1 
lattice  \
	  12.472192000000000    0.000000000000000    0.000000000000000  \
	   0.000000000000000   12.472192000000000    0.000000000000000  \
	   0.000000000000000    0.000000000000000   12.472192000000000 
lattice-minimize  \
	dirUpdateScheme      L-BFGS \
	linminMethod         DirUpdateRecommended \
	nIterations          0 \
	history              15 \
	knormThreshold       0 \
	energyDiffThreshold  1e-06 \
	nEnergyDiff          2 \
	alphaTstart          1 \
	alphaTmin            1e-10 \
	updateTestStepSize   yes \
	alphaTreduceFactor   0.1 \
	alphaTincreaseFactor 3 \
	nAlphaAdjustMax      3 \
	wolfeEnergy          0.0001 \
	wolfeGradient        0.9 \
	fdTest               no
lcao-params -1 1e-06 0.004
pcm-variant GLSSA13
spintype no-spin
subspace-rotation-factor 1 yes
symmetries automatic
symmetry-threshold 0.0001



---------- Setting up symmetries ----------

Found 48 point-group symmetries of the bravais lattice
Found 1 space-group symmetries with basis
Applied RMS atom displacement 0 bohrs to make symmetries exact.

---------- Initializing the Grid ----------
R = 
[      12.4722            0            0  ]
[            0      12.4722            0  ]
[            0            0      12.4722  ]
unit cell volume = 1940.12
G =
[   0.503776          0          0  ]
[          0   0.503776          0  ]
[          0          0   0.503776  ]
Minimum fftbox size, Smin = [  60  60  60  ]
Chosen fftbox size, S = [  60  60  60  ]

---------- Initializing tighter grid for wavefunction operations ----------
R = 
[      12.4722            0            0  ]
[            0      12.4722            0  ]
[            0            0      12.4722  ]
unit cell volume = 1940.12
G =
[   0.503776          0          0  ]
[          0   0.503776          0  ]
[          0          0   0.503776  ]
Minimum fftbox size, Smin = [  52  52  52  ]
Chosen fftbox size, S = [  54  54  54  ]

---------- Exchange Correlation functional ----------
Initalized PBE GGA exchange.
Initalized PBE GGA correlation.

---------- Setting up pseudopotentials ----------
Width of ionic core gaussian charges (only for fluid interactions / plotting) set to 0

Reading pseudopotential file '/home/cam559/JDFTx/build/pseudopotentials/GBRV/ta_pbe.uspp':
  Title: Ta.  Created by USPP 7.3.6 on 14-9-2013
  Reference state energy: -70.583193.  13 valence electrons in orbitals:
    |500>  occupation: 2  eigenvalue: -2.682396
    |510>  occupation: 6  eigenvalue: -1.447928
    |520>  occupation: 3  eigenvalue: -0.131987
    |600>  occupation: 2  eigenvalue: -0.199982
    |610>  occupation: 0  eigenvalue: -0.051129
  lMax: 3  lLocal: 3  QijEcut: 5
  7 projectors sampled on a log grid with 667 points:
    l: 0  eig: -2.682397  rCut: 1.4
    l: 0  eig: -0.199983  rCut: 1.4
    l: 1  eig: -1.447928  rCut: 1.5
    l: 1  eig: -0.051130  rCut: 1.5
    l: 2  eig: -0.131987  rCut: 1.7
    l: 2  eig: 0.150000  rCut: 1.7
    l: 3  eig: 0.250000  rCut: 2.3
  Partial core density with radius 1.2
  Transforming core density to a uniform radial grid of dG=0.02 with 1314 points.
  Transforming local potential to a uniform radial grid of dG=0.02 with 1314 points.
  Transforming nonlocal projectors to a uniform radial grid of dG=0.02 with 432 points.
  Transforming density augmentations to a uniform radial grid of dG=0.02 with 1314 points.
  Transforming atomic orbitals to a uniform radial grid of dG=0.02 with 432 points.
  Core radius for overlap checks: 2.30 bohrs.

Reading pseudopotential file '/home/cam559/JDFTx/build/pseudopotentials/GBRV/o_pbe.uspp':
  Title: O.  Created by USPP 7.3.6 on 3-2-2014
  Reference state energy: -15.894388.  6 valence electrons in orbitals:
    |200>  occupation: 2  eigenvalue: -0.878823
    |210>  occupation: 4  eigenvalue: -0.332131
  lMax: 2  lLocal: 2  QijEcut: 6
  5 projectors sampled on a log grid with 511 points:
    l: 0  eig: -0.878823  rCut: 1.25
    l: 0  eig: 0.000000  rCut: 1.25
    l: 1  eig: -0.332132  rCut: 1.25
    l: 1  eig: 0.000000  rCut: 1.25
    l: 2  eig: 1.000000  rCut: 1.25
  Partial core density with radius 0.7
  Transforming core density to a uniform radial grid of dG=0.02 with 1314 points.
  Transforming local potential to a uniform radial grid of dG=0.02 with 1314 points.
  Transforming nonlocal projectors to a uniform radial grid of dG=0.02 with 432 points.
  Transforming density augmentations to a uniform radial grid of dG=0.02 with 1314 points.
  Transforming atomic orbitals to a uniform radial grid of dG=0.02 with 432 points.
  Core radius for overlap checks: 1.25 bohrs.

Initialized 2 species with 17 total atoms.

Folded 1 k-points by 4x4x4 to 64 k-points.

---------- Setting up k-points, bands, fillings ----------
Adding inversion symmetry to k-mesh for non-inversion-symmetric unit cell.
Reduced to 36 k-points under symmetry. 
Computing the number of bands and number of electrons
Calculating initial fillings.
nElectrons: 214.000000   nBands: 212   nStates: 36

----- Setting up reduced wavefunction bases (one per k-point) -----
average nbasis = 8280.516 , ideal nbasis = 8288.336

---------- Setting up ewald sum ----------
Optimum gaussian width for ewald sums = 3.102973 bohr.
Real space sum over 729 unit cells with max indices [  4  4  4  ]
Reciprocal space sum over 4913 terms with max indices [  8  8  8  ]

---------- Allocating electronic variables ----------
Initializing wave functions:  linear combination of atomic orbitals
Ta pseudo-atom occupations:   s ( 2 2 )  p ( 6 0 )  d ( 3 )
O pseudo-atom occupations:   s ( 2 )  p ( 4 )
	FillingsUpdate:  mu: +0.708775522  nElectrons: 214.000000
LCAOMinimize: Iter:   0  F: -954.7883449785573475  |grad|_K:  6.865e-04  alpha:  1.000e+00
	FillingsUpdate:  mu: +0.705362633  nElectrons: 214.000000
LCAOMinimize: Iter:   1  F: -954.8654218027417073  |grad|_K:  4.215e-04  alpha:  1.713e-01  linmin: -7.322e-02  cgtest:  2.013e-01  t[s]:    104.56
	FillingsUpdate:  mu: +0.706551080  nElectrons: 214.000000
LCAOMinimize: Iter:   2  F: -954.8949683541511604  |grad|_K:  1.898e-04  alpha:  1.855e-01  linmin:  1.894e-02  cgtest: -2.806e-01  t[s]:    137.14
	FillingsUpdate:  mu: +0.706928056  nElectrons: 214.000000
LCAOMinimize: Iter:   3  F: -954.8998688838976250  |grad|_K:  1.169e-04  alpha:  1.801e-01  linmin:  1.130e-03  cgtest:  3.203e-01  t[s]:    169.90
	FillingsUpdate:  mu: +0.707245837  nElectrons: 214.000000
LCAOMinimize: Iter:   4  F: -954.9030039466779272  |grad|_K:  6.943e-05  alpha:  2.807e-01  linmin: -1.407e-03  cgtest: -5.633e-03  t[s]:    203.25
	FillingsUpdate:  mu: +0.707574620  nElectrons: 214.000000
LCAOMinimize: Iter:   5  F: -954.9035293737226766  |grad|_K:  2.193e-05  alpha:  1.324e-01  linmin: -1.573e-03  cgtest: -1.383e-02  t[s]:    236.02
	FillingsUpdate:  mu: +0.707703605  nElectrons: 214.000000
LCAOMinimize: Iter:   6  F: -954.9036725157485535  |grad|_K:  1.695e-05  alpha:  3.643e-01  linmin:  6.675e-04  cgtest: -3.870e-03  t[s]:    267.70
	FillingsUpdate:  mu: +0.707698775  nElectrons: 214.000000
LCAOMinimize: Iter:   7  F: -954.9036998625027763  |grad|_K:  4.353e-06  alpha:  1.169e-01  linmin: -3.631e-04  cgtest:  1.635e-02  t[s]:    300.06
	FillingsUpdate:  mu: +0.707704113  nElectrons: 214.000000
LCAOMinimize: Iter:   8  F: -954.9037033999015875  |grad|_K:  2.897e-06  alpha:  2.285e-01  linmin:  7.955e-05  cgtest: -1.579e-03  t[s]:    333.94
	FillingsUpdate:  mu: +0.707719520  nElectrons: 214.000000
LCAOMinimize: Iter:   9  F: -954.9037053010534919  |grad|_K:  1.026e-06  alpha:  2.775e-01  linmin:  1.137e-04  cgtest:  1.119e-03  t[s]:    366.57
	FillingsUpdate:  mu: +0.707721553  nElectrons: 214.000000
LCAOMinimize: Iter:  10  F: -954.9037054115250385  |grad|_K:  5.414e-07  alpha:  1.287e-01  linmin:  3.784e-05  cgtest:  2.679e-04  t[s]:    398.54
	FillingsUpdate:  mu: +0.707721132  nElectrons: 214.000000
LCAOMinimize: Iter:  11  F: -954.9037054864070342  |grad|_K:  3.108e-07  alpha:  3.129e-01  linmin:  6.052e-05  cgtest: -3.153e-04  t[s]:    431.40
LCAOMinimize: Converged (|Delta F|<1.000000e-06 for 2 iters).


---- Citations for features of the code used in this run ----

   Software package:
      R. Sundararaman, K. Letchworth-Weaver, K.A. Schwarz, D. Gunceler, Y. Ozhabes and T.A. Arias, 'JDFTx: software for joint density-functional theory', SoftwareX 6, 278 (2017)

   gga-PBE exchange-correlation functional:
      J.P. Perdew, K. Burke and M. Ernzerhof, Phys. Rev. Lett. 77, 3865 (1996)

   Pseudopotentials:
      KF Garrity, JW Bennett, KM Rabe and D Vanderbilt, Comput. Mater. Sci. 81, 446 (2014)

   Total energy minimization with Auxiliary Hamiltonian:
      C. Freysoldt, S. Boeck, and J. Neugebauer, Phys. Rev. B 79, 241103(R) (2009)

This list may not be complete. Please suggest additional citations or
report any other bugs at https://github.com/shankar1729/jdftx/issues

Initialization completed successfully at t[s]:    454.79


-------- Electronic minimization -----------
	FillingsUpdate:  mu: +0.707721132  nElectrons: 214.000000
ElecMinimize: Iter:   0  F: -954.903705486406693  |grad|_K:  5.763e-05  alpha:  1.000e+00
	FillingsUpdate:  mu: +0.704678484  nElectrons: 214.000000
	SubspaceRotationAdjust: set factor to 1
ElecMinimize: Iter:   1  F: -955.015779549091917  |grad|_K:  2.771e-05  alpha:  5.267e-01  linmin:  6.512e-04  t[s]:    628.40
	FillingsUpdate:  mu: +0.704055628  nElectrons: 214.000000
	SubspaceRotationAdjust: set factor to 0.91
ElecMinimize: Iter:   2  F: -955.036930370685354  |grad|_K:  1.685e-05  alpha:  4.317e-01  linmin:  9.412e-05  t[s]:    748.49
	FillingsUpdate:  mu: +0.703231783  nElectrons: 214.000000
	SubspaceRotationAdjust: set factor to 0.636
ElecMinimize: Iter:   3  F: -955.041631798607796  |grad|_K:  1.466e-05  alpha:  2.573e-01  linmin: -1.453e-05  t[s]:    871.42
	FillingsUpdate:  mu: +0.703018558  nElectrons: 214.000000
	SubspaceRotationAdjust: set factor to 0.527
ElecMinimize: Iter:   4  F: -955.044423842566061  |grad|_K:  6.067e-06  alpha:  2.020e-01  linmin:  5.582e-05  t[s]:    992.63
	FillingsUpdate:  mu: +0.703180615  nElectrons: 214.000000
	SubspaceRotationAdjust: set factor to 0.409
ElecMinimize: Iter:   5  F: -955.045338558550156  |grad|_K:  3.746e-06  alpha:  3.921e-01  linmin:  1.250e-04  t[s]:   1112.24
	FillingsUpdate:  mu: +0.703091476  nElectrons: 214.000000
	SubspaceRotationAdjust: set factor to 0.296
ElecMinimize: Iter:   6  F: -955.045574292602964  |grad|_K:  1.904e-06  alpha:  2.649e-01  linmin:  9.782e-06  t[s]:   1235.25
	FillingsUpdate:  mu: +0.703104037  nElectrons: 214.000000
	SubspaceRotationAdjust: set factor to 0.38
ElecMinimize: Iter:   7  F: -955.045678519024705  |grad|_K:  1.100e-06  alpha:  4.499e-01  linmin:  1.277e-05  t[s]:   1358.56
	FillingsUpdate:  mu: +0.703151240  nElectrons: 214.000000
	SubspaceRotationAdjust: set factor to 0.322
ElecMinimize: Iter:   8  F: -955.045709959944929  |grad|_K:  6.168e-07  alpha:  4.065e-01  linmin:  1.315e-06  t[s]:   1480.82
	FillingsUpdate:  mu: +0.703158203  nElectrons: 214.000000
	SubspaceRotationAdjust: set factor to 0.446
ElecMinimize: Iter:   9  F: -955.045721192139808  |grad|_K:  3.639e-07  alpha:  4.610e-01  linmin: -4.083e-06  t[s]:   1607.84
	FillingsUpdate:  mu: +0.703154372  nElectrons: 214.000000
	SubspaceRotationAdjust: set factor to 0.49
ElecMinimize: Iter:  10  F: -955.045725416339337  |grad|_K:  2.544e-07  alpha:  4.971e-01  linmin: -7.189e-06  t[s]:   1733.39
	FillingsUpdate:  mu: +0.703159347  nElectrons: 214.000000
	SubspaceRotationAdjust: set factor to 0.427
ElecMinimize: Iter:  11  F: -955.045727151255164  |grad|_K:  1.740e-07  alpha:  4.165e-01  linmin: -2.838e-06  t[s]:   1855.97
	FillingsUpdate:  mu: +0.703155438  nElectrons: 214.000000
	SubspaceRotationAdjust: set factor to 0.452
ElecMinimize: Iter:  12  F: -955.045727987595910  |grad|_K:  9.650e-08  alpha:  4.295e-01  linmin: -1.082e-06  t[s]:   1981.72
	FillingsUpdate:  mu: +0.703154599  nElectrons: 214.000000
	SubspaceRotationAdjust: set factor to 0.499
ElecMinimize: Iter:  13  F: -955.045728268800531  |grad|_K:  5.475e-08  alpha:  4.703e-01  linmin: -5.266e-07  t[s]:   2102.18
	FillingsUpdate:  mu: +0.703156150  nElectrons: 214.000000
	SubspaceRotationAdjust: set factor to 0.399
ElecMinimize: Iter:  14  F: -955.045728348170883  |grad|_K:  3.198e-08  alpha:  4.132e-01  linmin:  1.108e-07  t[s]:   2224.01
	FillingsUpdate:  mu: +0.703155416  nElectrons: 214.000000
	SubspaceRotationAdjust: set factor to 0.297
ElecMinimize: Iter:  15  F: -955.045728372159260  |grad|_K:  1.704e-08  alpha:  3.668e-01  linmin:  5.938e-08  t[s]:   2343.00
	FillingsUpdate:  mu: +0.703155534  nElectrons: 214.000000
	SubspaceRotationAdjust: set factor to 0.367
ElecMinimize: Iter:  16  F: -955.045728380088235  |grad|_K:  8.505e-09  alpha:  4.313e-01  linmin:  1.327e-06  t[s]:   2466.96
	FillingsUpdate:  mu: +0.703155610  nElectrons: 214.000000
	SubspaceRotationAdjust: set factor to 0.396
ElecMinimize: Iter:  17  F: -955.045728382161428  |grad|_K:  4.922e-09  alpha:  4.647e-01  linmin:  1.187e-06  t[s]:   2590.04
ElecMinimize: Converged (|Delta F|<1.000000e-08 for 2 iters).
Setting wave functions to eigenvectors of Hamiltonian

# Ionic positions in cartesian coordinates:
ion Ta   0.001000000000000   0.000000000000000   0.000000000000000 1
ion Ta   3.118048000000000   3.117048000000000   3.118048000000000 1
ion Ta   0.000000000000000   0.000000000000000   6.235096000000000 1
ion Ta   3.118048000000000   3.118048000000000   9.354144000000000 1
ion Ta   0.000000000000000   6.236096000000000   0.000000000000000 1
ion Ta   3.118048000000000   9.354144000000000   3.118048000000000 1
ion Ta   0.000000000000000   6.236096000000000   6.236096000000000 1
ion Ta   3.118048000000000   9.354144000000000   9.354144000000000 1
ion Ta   6.236096000000000   0.000000000000000   0.000000000000000 1
ion Ta   9.354144000000000   3.118048000000000   3.118048000000000 1
ion Ta   6.236096000000000   0.000000000000000   6.236096000000000 1
ion Ta   9.344144000000000   3.118048000000000   9.354144000000000 1
ion Ta   6.236096000000000   6.236096000000000   0.000000000000000 1
ion Ta   9.354144000000000   9.354144000000000   3.128048000000001 1
ion Ta   6.236096000000000   6.236096000000000   6.236096000000000 1
ion Ta   9.354144000000000   9.355143999999999   9.354144000000000 1
ion O   1.577921000000000   3.136945000000000   0.018897000000000 1

# Forces in Cartesian coordinates:
force Ta  -0.057510563584850  -0.100091843319776  -0.000997364928329 1
force Ta   0.063786375849605  -0.001031269103330   0.114374555887327 1
force Ta  -0.003034449712869   0.000916233540114   0.000502983042777 1
force Ta   0.058176397466464  -0.001047154439042  -0.105731306108885 1
force Ta  -0.062581066648232   0.108275525534940  -0.001078746469178 1
force Ta   0.003011189941756   0.000156795956053  -0.000639027324528 1
force Ta  -0.002979687005811  -0.000854112490683   0.000391715878003 1
force Ta   0.002856916300228   0.000174960492870   0.000820146316437 1
force Ta   0.019068661583908  -0.020660325829925   0.000136014015945 1
force Ta  -0.018938879590977  -0.000048495911496   0.020020061956219 1
force Ta   0.009536388044245  -0.008825769409088   0.000208930206578 1
force Ta  -0.017403143130098  -0.000034371942611  -0.019720355268892 1
force Ta   0.019251835751091   0.020736012820506   0.000138655781444 1
force Ta  -0.009183045421011   0.000160886080772   0.007166278899911 1
force Ta   0.009252912712135   0.008756746782736   0.000223931539593 1
force Ta  -0.009657360608946   0.000068364568073  -0.008329593607175 1
force O  -0.003679388591457  -0.006613525848914  -0.007439526321870 1

# Energy components:
   Eewald =     -801.9530074500223691
       EH =      120.2298384612019646
     Eloc =     -183.4409181402791944
      Enl =     -277.9433617661876497
      Exc =     -342.2637779011042767
 Exc_core =      196.0817527060371503
       KE =      334.2680695240145496
-------------------------------------
     Etot =     -955.0214045663398110
       TS =        0.0243238158215652
-------------------------------------
        F =     -955.0457283821614283

IonicMinimize: Iter:   0  F: -955.045728382161428  |grad|_K:  3.556e-02  t[s]:   2610.14

#--- Lowdin population analysis ---
# oxidation-state Ta +0.023 +0.027 +0.008 +0.024 +0.027 +0.008 +0.008 +0.008 -0.001 -0.001 +0.008 -0.001 -0.001 +0.009 +0.008 +0.009
# oxidation-state O -0.050


-------- Electronic minimization -----------
	FillingsUpdate:  mu: +0.709497591  nElectrons: 214.000000
ElecMinimize: Iter:   0  F: -954.213376589238123  |grad|_K:  1.803e-04  alpha:  1.000e+00
	FillingsUpdate:  mu: +0.709097221  nElectrons: 214.000000
	SubspaceRotationAdjust: set factor to 0.229
ElecMinimize: Iter:   1  F: -954.868434333444156  |grad|_K:  7.242e-05  alpha:  3.387e-01  linmin:  1.199e-02  t[s]:   2823.21
	FillingsUpdate:  mu: +0.703616564  nElectrons: 214.000000
	SubspaceRotationAdjust: set factor to 0.255
ElecMinimize: Iter:   2  F: -954.982983817745776  |grad|_K:  3.208e-05  alpha:  3.594e-01  linmin:  2.531e-04  t[s]:   2943.92
	FillingsUpdate:  mu: +0.703262259  nElectrons: 214.000000
	SubspaceRotationAdjust: set factor to 0.288
ElecMinimize: Iter:   3  F: -955.033291844008431  |grad|_K:  2.797e-05  alpha:  7.662e-01  linmin:  2.064e-05  t[s]:   3066.33
	FillingsUpdate:  mu: +0.703944918  nElectrons: 214.000000
	SubspaceRotationAdjust: set factor to 0.275
ElecMinimize: Iter:   4  F: -955.068797266280058  |grad|_K:  2.040e-05  alpha:  7.080e-01  linmin:  1.918e-04  t[s]:   3188.55
	FillingsUpdate:  mu: +0.703526230  nElectrons: 214.000000
	SubspaceRotationAdjust: set factor to 0.309
ElecMinimize: Iter:   5  F: -955.081525763426725  |grad|_K:  9.580e-06  alpha:  4.805e-01  linmin:  9.648e-06  t[s]:   3311.43
	FillingsUpdate:  mu: +0.703341099  nElectrons: 214.000000
	SubspaceRotationAdjust: set factor to 0.353
ElecMinimize: Iter:   6  F: -955.084319089392011  |grad|_K:  5.153e-06  alpha:  4.754e-01  linmin: -7.892e-06  t[s]:   3434.46
	FillingsUpdate:  mu: +0.703449834  nElectrons: 214.000000
	SubspaceRotationAdjust: set factor to 0.413
ElecMinimize: Iter:   7  F: -955.085191035446883  |grad|_K:  3.298e-06  alpha:  5.127e-01  linmin:  2.102e-05  t[s]:   3558.01
	FillingsUpdate:  mu: +0.703455938  nElectrons: 214.000000
	SubspaceRotationAdjust: set factor to 0.485
ElecMinimize: Iter:   8  F: -955.085550460388276  |grad|_K:  2.214e-06  alpha:  5.162e-01  linmin:  2.601e-05  t[s]:   3677.62
	FillingsUpdate:  mu: +0.703402311  nElectrons: 214.000000
	SubspaceRotationAdjust: set factor to 0.459
ElecMinimize: Iter:   9  F: -955.085692513025947  |grad|_K:  1.508e-06  alpha:  4.530e-01  linmin:  3.880e-06  t[s]:   3800.80
	FillingsUpdate:  mu: +0.703439302  nElectrons: 214.000000
	SubspaceRotationAdjust: set factor to 0.409
ElecMinimize: Iter:  10  F: -955.085753475967749  |grad|_K:  8.709e-07  alpha:  4.186e-01  linmin:  4.152e-06  t[s]:   3923.57
	FillingsUpdate:  mu: +0.703425022  nElectrons: 214.000000
	SubspaceRotationAdjust: set factor to 0.452
ElecMinimize: Iter:  11  F: -955.085776277818240  |grad|_K:  4.751e-07  alpha:  4.696e-01  linmin:  1.800e-06  t[s]:   4045.49
	FillingsUpdate:  mu: +0.703424796  nElectrons: 214.000000
	SubspaceRotationAdjust: set factor to 0.555
ElecMinimize: Iter:  12  F: -955.085782804182259  |grad|_K:  2.779e-07  alpha:  4.515e-01  linmin:  8.130e-09  t[s]:   4164.94
	FillingsUpdate:  mu: +0.703427206  nElectrons: 214.000000
	SubspaceRotationAdjust: set factor to 0.618
ElecMinimize: Iter:  13  F: -955.085784916170837  |grad|_K:  1.756e-07  alpha:  4.270e-01  linmin: -2.504e-07  t[s]:   4289.29
	FillingsUpdate:  mu: +0.703424424  nElectrons: 214.000000
	SubspaceRotationAdjust: set factor to 0.504
ElecMinimize: Iter:  14  F: -955.085785672618954  |grad|_K:  1.169e-07  alpha:  3.830e-01  linmin: -2.737e-07  t[s]:   4412.48
	FillingsUpdate:  mu: +0.703426504  nElectrons: 214.000000
	SubspaceRotationAdjust: set factor to 0.348
ElecMinimize: Iter:  15  F: -955.085785925204505  |grad|_K:  6.459e-08  alpha:  2.887e-01  linmin:  3.276e-08  t[s]:   4534.95
	FillingsUpdate:  mu: +0.703425949  nElectrons: 214.000000
	SubspaceRotationAdjust: set factor to 0.397
ElecMinimize: Iter:  16  F: -955.085786027294489  |grad|_K:  3.089e-08  alpha:  3.816e-01  linmin: -1.225e-06  t[s]:   4660.52
	FillingsUpdate:  mu: +0.703425609  nElectrons: 214.000000
	SubspaceRotationAdjust: set factor to 0.416
ElecMinimize: Iter:  17  F: -955.085786054601044  |grad|_K:  1.755e-08  alpha:  4.460e-01  linmin: -3.361e-06  t[s]:   4781.60
	FillingsUpdate:  mu: +0.703425979  nElectrons: 214.000000
	SubspaceRotationAdjust: set factor to 0.422
ElecMinimize: Iter:  18  F: -955.085786063418254  |grad|_K:  1.039e-08  alpha:  4.415e-01  linmin:  2.132e-06  t[s]:   4904.89
	FillingsUpdate:  mu: +0.703425879  nElectrons: 214.000000
	SubspaceRotationAdjust: set factor to 0.482
ElecMinimize: Iter:  19  F: -955.085786066274636  |grad|_K:  6.319e-09  alpha:  4.065e-01  linmin: -7.840e-06  t[s]:   5029.32
ElecMinimize: Converged (|Delta F|<1.000000e-08 for 2 iters).
Setting wave functions to eigenvectors of Hamiltonian

# Ionic positions in cartesian coordinates:
ion Ta  -0.042912943236963  -0.076430276221147  -0.000763698962030 1
ion Ta   3.166755470797600   3.116258802945459   3.205380465077485 1
ion Ta  -0.002315848987579   0.000697884993945   6.235477942889510 1
ion Ta   3.162471780516590   3.117246673155726   9.273407129077960 1
ion Ta  -0.047784698742779   6.318771733086241  -0.000825840612457 1
ion Ta   3.120348505312256   9.354261990531667   3.117557921933789 1
ion Ta  -0.002274033055331   6.235442076917654   6.236392981051908 1
ion Ta   3.120230704412913   9.354275860683121   9.354768123721605 1
ion Ta   6.250657735305186  -0.015777632621025   0.000101731176325 1
ion Ta   9.339683781276777   3.118009232926250   3.133332873978591 1
ion Ta   6.243379042816731  -0.006740953536425   6.236253408819945 1
ion Ta   9.330856445216344   3.118020017764285   9.339083723355190 1
ion Ta   6.250797604186331   6.251927953269554   0.000103748386449 1
ion Ta   9.347133181107372   9.354265113685861   3.133517929643339 1
ion Ta   6.243162585561081   6.242780776222701   6.236264863599279 1
ion Ta   9.346771001572636   9.355194465730081   9.347781527819148 1
ion O   1.575112685940834   3.131893280466048   0.013214169043962 1

# Forces in Cartesian coordinates:
force Ta  -0.035346428037378  -0.065603198770329  -0.000252376263096 1
force Ta   0.036634825350543  -0.000256743548406   0.070726332190882 1
force Ta  -0.002426327123513   0.001881753932521   0.000395584549860 1
force Ta   0.035245330331396  -0.000341318361823  -0.068652161927230 1
force Ta  -0.036613817161062   0.067948835379433  -0.000263670934169 1
force Ta   0.002355083274416   0.000108687152432  -0.001664792461850 1
force Ta  -0.002387179380405  -0.001820709376457   0.000287564652033 1
force Ta   0.002232923452101   0.000124233283123   0.001840974673642 1
force Ta   0.015813430974113  -0.016735734809410   0.000178972491661 1
force Ta  -0.015692246362770   0.000024542897415   0.016373090286640 1
force Ta   0.010603651837846  -0.008751828028616   0.000266101274962 1
force Ta  -0.014616944393711   0.000021720992753  -0.016205016463688 1
force Ta   0.015749387309785   0.016741080401686   0.000193671282143 1
force Ta  -0.010192909376072   0.000208704362111   0.007136811451113 1
force Ta   0.010348110288991   0.008602719079253   0.000270931469123 1
force Ta  -0.010641525863231   0.000125130724080  -0.008318984360879 1
force O  -0.001068131110413  -0.002249664282035  -0.002293668010681 1

# Energy components:
   Eewald =     -804.0003154137259571
       EH =      118.4001272536486624
     Eloc =     -179.4916240333481880
      Enl =     -277.9331422357856241
      Exc =     -342.2132832109585934
 Exc_core =      196.0817511476665516
       KE =      334.0952983194126773
-------------------------------------
     Etot =     -955.0611881730903860
       TS =        0.0245978931842732
-------------------------------------
        F =     -955.0857860662746361

IonicMinimize: Iter:   1  F: -955.085786066274636  |grad|_K:  2.284e-02  alpha:  7.636e-01  linmin: -9.948e-01  t[s]:   5049.15

#--- Lowdin population analysis ---
# oxidation-state Ta +0.042 +0.044 +0.005 +0.042 +0.044 +0.005 +0.005 +0.005 +0.005 +0.005 -0.003 +0.004 +0.005 -0.001 -0.002 -0.001
# oxidation-state O -0.094


-------- Electronic minimization -----------
	FillingsUpdate:  mu: +0.714171564  nElectrons: 214.000000
ElecMinimize: Iter:   0  F: -954.024143893895939  |grad|_K:  2.128e-04  alpha:  1.000e+00
	FillingsUpdate:  mu: +0.710745296  nElectrons: 214.000000
	SubspaceRotationAdjust: set factor to 0.267
ElecMinimize: Iter:   1  F: -954.819644151039256  |grad|_K:  9.877e-05  alpha:  3.036e-01  linmin:  1.362e-02  t[s]:   5257.90
	FillingsUpdate:  mu: +0.704062259  nElectrons: 214.000000
	SubspaceRotationAdjust: set factor to 0.339
ElecMinimize: Iter:   2  F: -954.994997409563439  |grad|_K:  3.638e-05  alpha:  3.005e-01  linmin:  2.925e-04  t[s]:   5379.06
	FillingsUpdate:  mu: +0.703645752  nElectrons: 214.000000
	SubspaceRotationAdjust: set factor to 0.29
ElecMinimize: Iter:   3  F: -955.053011830966398  |grad|_K:  3.148e-05  alpha:  6.871e-01  linmin:  1.741e-06  t[s]:   5500.66
	FillingsUpdate:  mu: +0.704403409  nElectrons: 214.000000
	SubspaceRotationAdjust: set factor to 0.256
ElecMinimize: Iter:   4  F: -955.092473609674016  |grad|_K:  2.296e-05  alpha:  6.208e-01  linmin:  1.692e-04  t[s]:   5624.33
	FillingsUpdate:  mu: +0.703926502  nElectrons: 214.000000
	SubspaceRotationAdjust: set factor to 0.369
ElecMinimize: Iter:   5  F: -955.108097617036151  |grad|_K:  1.027e-05  alpha:  4.655e-01  linmin:  7.537e-06  t[s]:   5746.67
	FillingsUpdate:  mu: +0.703625875  nElectrons: 214.000000
	SubspaceRotationAdjust: set factor to 0.379
ElecMinimize: Iter:   6  F: -955.110888796101790  |grad|_K:  5.150e-06  alpha:  4.136e-01  linmin:  8.012e-06  t[s]:   5871.14
	FillingsUpdate:  mu: +0.703676508  nElectrons: 214.000000
	SubspaceRotationAdjust: set factor to 0.466
ElecMinimize: Iter:   7  F: -955.111697754634520  |grad|_K:  3.342e-06  alpha:  4.763e-01  linmin:  3.360e-05  t[s]:   5993.83
	FillingsUpdate:  mu: +0.703706117  nElectrons: 214.000000
	SubspaceRotationAdjust: set factor to 0.478
ElecMinimize: Iter:   8  F: -955.112067879595429  |grad|_K:  2.431e-06  alpha:  5.179e-01  linmin:  3.583e-05  t[s]:   6120.42
	FillingsUpdate:  mu: +0.703634805  nElectrons: 214.000000
	SubspaceRotationAdjust: set factor to 0.407
ElecMinimize: Iter:   9  F: -955.112217045540092  |grad|_K:  1.544e-06  alpha:  3.945e-01  linmin:  1.868e-07  t[s]:   6245.00
	FillingsUpdate:  mu: +0.703658431  nElectrons: 214.000000
	SubspaceRotationAdjust: set factor to 0.408
ElecMinimize: Iter:  10  F: -955.112282968546879  |grad|_K:  8.366e-07  alpha:  4.320e-01  linmin:  5.400e-06  t[s]:   6367.73
	FillingsUpdate:  mu: +0.703658872  nElectrons: 214.000000
	SubspaceRotationAdjust: set factor to 0.514
ElecMinimize: Iter:  11  F: -955.112304403247322  |grad|_K:  4.741e-07  alpha:  4.784e-01  linmin:  5.434e-07  t[s]:   6492.10
	FillingsUpdate:  mu: +0.703652211  nElectrons: 214.000000
	SubspaceRotationAdjust: set factor to 0.495
ElecMinimize: Iter:  12  F: -955.112310558788749  |grad|_K:  3.000e-07  alpha:  4.276e-01  linmin:  2.154e-07  t[s]:   6615.41
	FillingsUpdate:  mu: +0.703657748  nElectrons: 214.000000
	SubspaceRotationAdjust: set factor to 0.413
ElecMinimize: Iter:  13  F: -955.112312627183428  |grad|_K:  1.847e-07  alpha:  3.588e-01  linmin:  1.070e-07  t[s]:   6739.41
	FillingsUpdate:  mu: +0.703656024  nElectrons: 214.000000
	SubspaceRotationAdjust: set factor to 0.417
ElecMinimize: Iter:  14  F: -955.112313511159527  |grad|_K:  9.954e-08  alpha:  4.047e-01  linmin: -5.214e-08  t[s]:   6866.36
	FillingsUpdate:  mu: +0.703656422  nElectrons: 214.000000
	SubspaceRotationAdjust: set factor to 0.498
ElecMinimize: Iter:  15  F: -955.112313802168842  |grad|_K:  5.202e-08  alpha:  4.588e-01  linmin:  7.400e-07  t[s]:   6990.18
	FillingsUpdate:  mu: +0.703657144  nElectrons: 214.000000
	SubspaceRotationAdjust: set factor to 0.512
ElecMinimize: Iter:  16  F: -955.112313878867894  |grad|_K:  3.056e-08  alpha:  4.431e-01  linmin:  2.454e-06  t[s]:   7115.57
	FillingsUpdate:  mu: +0.703656566  nElectrons: 214.000000
	SubspaceRotationAdjust: set factor to 0.439
ElecMinimize: Iter:  17  F: -955.112313901296602  |grad|_K:  1.842e-08  alpha:  3.756e-01  linmin:  4.549e-07  t[s]:   7238.47
	FillingsUpdate:  mu: +0.703656864  nElectrons: 214.000000
	SubspaceRotationAdjust: set factor to 0.371
ElecMinimize: Iter:  18  F: -955.112313909665886  |grad|_K:  1.079e-08  alpha:  3.892e-01  linmin:  6.644e-06  t[s]:   7362.76
	FillingsUpdate:  mu: +0.703656837  nElectrons: 214.000000
	SubspaceRotationAdjust: set factor to 0.372
ElecMinimize: Iter:  19  F: -955.112313912456102  |grad|_K:  6.058e-09  alpha:  3.843e-01  linmin:  7.114e-06  t[s]:   7486.40
ElecMinimize: Converged (|Delta F|<1.000000e-08 for 2 iters).
Setting wave functions to eigenvectors of Hamiltonian

# Ionic positions in cartesian coordinates:
ion Ta  -0.085776241552876  -0.164508195021802  -0.000317668826899 1
ion Ta   3.205819559670290   3.116731522876050   3.292043286081622 1
ion Ta  -0.006430518849928   0.005727902825683   6.236137783980925 1
ion Ta   3.204144940620730   3.117460775540296   9.182504423468592 1
ion Ta  -0.088327800378882   6.404089710766064  -0.000312728573953 1
ion Ta   3.124255001750636   9.354416926577285   3.112885437008984 1
ion Ta  -0.006329778813518   6.230528662171124   6.236839156102372 1
ion Ta   3.123932030507193   9.354458789484811   9.359789190300818 1
ion Ta   6.278371555214438  -0.044497204250624   0.000517532184260 1
ion Ta   9.312200330503911   3.118149809778230   3.161674339697706 1
ion Ta   6.266128863410668  -0.024297359492726   6.236863132819845 1
ion Ta   9.304951089922959   3.118133177754724   9.310912051152098 1
ion Ta   6.278065317813919   6.280563002768657   0.000564648799992 1
ion Ta   9.325282257480982   9.354744729236046   3.147871821826886 1
ion Ta   6.265432903399265   6.259928698150351   6.236871287593857 1
ion Ta   9.324048361042365   9.355517021508343   9.331019154523299 1
ion O   1.576305128257847   3.132949029327489   0.015186151859596 1

# Forces in Cartesian coordinates:
force Ta  -0.015972991522140  -0.032679958880149  -0.000273926586238 1
force Ta   0.017583089371598  -0.000242135388060   0.037921748588381 1
force Ta  -0.001882755802802   0.001759777893144   0.000302256858013 1
force Ta   0.015656388483010  -0.000294328169279  -0.034604700818426 1
force Ta  -0.017490276560080   0.035507070068760  -0.000311635183682 1
force Ta   0.001746326756509   0.000114822426490  -0.001552415969505 1
force Ta  -0.001857019855773  -0.001639055630011   0.000219725044370 1
force Ta   0.001691434819240   0.000121458675781   0.001781021046907 1
force Ta   0.010519507001770  -0.010201201057349   0.000087585242236 1
force Ta  -0.010528378736142  -0.000004104483345   0.009971007703714 1
force Ta   0.008465804873614  -0.006750492155073   0.000122490247521 1
force Ta  -0.009775675729162  -0.000003933199621  -0.009876252573288 1
force Ta   0.010442754114496   0.010178345367869   0.000090271750954 1
force Ta  -0.008200715602578   0.000100455501064   0.005586931375030 1
force Ta   0.008295224451054   0.006724150827939   0.000132527395601 1
force Ta  -0.008500674625708   0.000023702786907  -0.006399682309212 1
force O  -0.000225284407577  -0.002684628822004  -0.003148778425385 1

# Energy components:
   Eewald =     -805.5795284601123285
       EH =      117.0148662806682722
     Eloc =     -176.4717268106309120
      Enl =     -277.9366266705047792
      Exc =     -342.1801391852559391
 Exc_core =      196.0817803492847133
       KE =      333.9837703380177345
-------------------------------------
     Etot =     -955.0876041585332814
       TS =        0.0247097539228138
-------------------------------------
        F =     -955.1123139124561021

IonicMinimize: Iter:   2  F: -955.112313912456102  |grad|_K:  1.204e-02  alpha:  5.818e-01  linmin: -9.956e-01  t[s]:   7506.30

#--- Lowdin population analysis ---
# oxidation-state Ta +0.061 +0.063 +0.003 +0.061 +0.063 +0.003 +0.003 +0.003 +0.011 +0.011 -0.016 +0.011 +0.012 -0.015 -0.016 -0.015
# oxidation-state O -0.137


-------- Electronic minimization -----------
	FillingsUpdate:  mu: +0.717831215  nElectrons: 214.000000
ElecMinimize: Iter:   0  F: -953.867916514654439  |grad|_K:  2.160e-04  alpha:  1.000e+00
	FillingsUpdate:  mu: +0.708199739  nElectrons: 214.000000
	SubspaceRotationAdjust: set factor to 0.22
ElecMinimize: Iter:   1  F: -954.812498676211703  |grad|_K:  7.834e-05  alpha:  3.391e-01  linmin:  1.189e-02  t[s]:   7723.52
	FillingsUpdate:  mu: +0.704423270  nElectrons: 214.000000
	SubspaceRotationAdjust: set factor to 0.249
ElecMinimize: Iter:   2  F: -954.973274880040549  |grad|_K:  3.852e-05  alpha:  4.285e-01  linmin:  1.454e-04  t[s]:   7843.22
	FillingsUpdate:  mu: +0.704074975  nElectrons: 214.000000
	SubspaceRotationAdjust: set factor to 0.326
ElecMinimize: Iter:   3  F: -955.052367009999102  |grad|_K:  3.390e-05  alpha:  8.351e-01  linmin:  1.021e-04  t[s]:   7964.86
	FillingsUpdate:  mu: +0.704492317  nElectrons: 214.000000
	SubspaceRotationAdjust: set factor to 0.328
ElecMinimize: Iter:   4  F: -955.103374797061747  |grad|_K:  2.268e-05  alpha:  6.942e-01  linmin:  6.078e-05  t[s]:   8087.31
	FillingsUpdate:  mu: +0.704129617  nElectrons: 214.000000
	SubspaceRotationAdjust: set factor to 0.342
ElecMinimize: Iter:   5  F: -955.118672116899802  |grad|_K:  1.089e-05  alpha:  4.649e-01  linmin:  6.295e-06  t[s]:   8209.10
	FillingsUpdate:  mu: +0.703905015  nElectrons: 214.000000
	SubspaceRotationAdjust: set factor to 0.404
ElecMinimize: Iter:   6  F: -955.122352258987576  |grad|_K:  6.174e-06  alpha:  4.845e-01  linmin:  5.501e-06  t[s]:   8332.97
	FillingsUpdate:  mu: +0.703990017  nElectrons: 214.000000
	SubspaceRotationAdjust: set factor to 0.45
ElecMinimize: Iter:   7  F: -955.123541533671641  |grad|_K:  3.828e-06  alpha:  4.873e-01  linmin:  4.312e-05  t[s]:   8455.07
	FillingsUpdate:  mu: +0.703911278  nElectrons: 214.000000
	SubspaceRotationAdjust: set factor to 0.592
ElecMinimize: Iter:   8  F: -955.124019271453449  |grad|_K:  2.340e-06  alpha:  5.096e-01  linmin:  1.950e-05  t[s]:   8580.30
	FillingsUpdate:  mu: +0.703876809  nElectrons: 214.000000
	SubspaceRotationAdjust: set factor to 0.594
ElecMinimize: Iter:   9  F: -955.124189720042978  |grad|_K:  1.639e-06  alpha:  4.863e-01  linmin: -1.695e-07  t[s]:   8702.88
	FillingsUpdate:  mu: +0.703912876  nElectrons: 214.000000
	SubspaceRotationAdjust: set factor to 0.418
ElecMinimize: Iter:  10  F: -955.124242991670258  |grad|_K:  1.090e-06  alpha:  3.096e-01  linmin: -2.524e-07  t[s]:   8825.85
	FillingsUpdate:  mu: +0.703896816  nElectrons: 214.000000
	SubspaceRotationAdjust: set factor to 0.358
ElecMinimize: Iter:  11  F: -955.124268344709321  |grad|_K:  5.531e-07  alpha:  3.332e-01  linmin: -2.300e-07  t[s]:   8945.00
	FillingsUpdate:  mu: +0.703896079  nElectrons: 214.000000
	SubspaceRotationAdjust: set factor to 0.483
ElecMinimize: Iter:  12  F: -955.124276466441302  |grad|_K:  3.027e-07  alpha:  4.146e-01  linmin:  5.220e-08  t[s]:   9067.18
	FillingsUpdate:  mu: +0.703900231  nElectrons: 214.000000
	SubspaceRotationAdjust: set factor to 0.516
ElecMinimize: Iter:  13  F: -955.124278954779584  |grad|_K:  1.831e-07  alpha:  4.240e-01  linmin:  2.310e-07  t[s]:   9193.76
	FillingsUpdate:  mu: +0.703898089  nElectrons: 214.000000
	SubspaceRotationAdjust: set factor to 0.457
ElecMinimize: Iter:  14  F: -955.124279847566527  |grad|_K:  1.197e-07  alpha:  4.158e-01  linmin: -8.239e-07  t[s]:   9318.88
	FillingsUpdate:  mu: +0.703900360  nElectrons: 214.000000
	SubspaceRotationAdjust: set factor to 0.372
ElecMinimize: Iter:  15  F: -955.124280173130046  |grad|_K:  6.747e-08  alpha:  3.550e-01  linmin: -3.315e-07  t[s]:   9442.48
	FillingsUpdate:  mu: +0.703900240  nElectrons: 214.000000
	SubspaceRotationAdjust: set factor to 0.421
ElecMinimize: Iter:  16  F: -955.124280291899709  |grad|_K:  3.376e-08  alpha:  4.077e-01  linmin:  1.507e-07  t[s]:   9565.76
	FillingsUpdate:  mu: +0.703900061  nElectrons: 214.000000
	SubspaceRotationAdjust: set factor to 0.479
ElecMinimize: Iter:  17  F: -955.124280325335235  |grad|_K:  1.948e-08  alpha:  4.598e-01  linmin:  9.253e-06  t[s]:   9687.06
	FillingsUpdate:  mu: +0.703900404  nElectrons: 214.000000
	SubspaceRotationAdjust: set factor to 0.46
ElecMinimize: Iter:  18  F: -955.124280336075572  |grad|_K:  1.182e-08  alpha:  4.409e-01  linmin: -2.629e-06  t[s]:   9807.22
	FillingsUpdate:  mu: +0.703900258  nElectrons: 214.000000
	SubspaceRotationAdjust: set factor to 0.375
ElecMinimize: Iter:  19  F: -955.124280339420125  |grad|_K:  7.124e-09  alpha:  3.675e-01  linmin: -1.092e-05  t[s]:   9929.45
	FillingsUpdate:  mu: +0.703900297  nElectrons: 214.000000
	SubspaceRotationAdjust: set factor to 0.39
ElecMinimize: Iter:  20  F: -955.124280340766404  |grad|_K:  4.041e-09  alpha:  4.173e-01  linmin:  4.332e-06  t[s]:  10050.75
ElecMinimize: Converged (|Delta F|<1.000000e-08 for 2 iters).
Setting wave functions to eigenvectors of Hamiltonian

# Ionic positions in cartesian coordinates:
ion Ta  -0.117659080079791  -0.246739594644346  -0.000654114141246 1
ion Ta   3.239020753065634   3.116595686283294   3.386370706832669 1
ion Ta  -0.013616771595671   0.014505193950457   6.237265979869226 1
ion Ta   3.233613564314664   3.117033986566084   9.095601968199462 1
ion Ta  -0.122474565041216   6.492022143742509  -0.000746704213277 1
ion Ta   3.130763248189695   9.354859133741892   3.104920249668327 1
ion Ta  -0.013429991772782   6.222300628410885   6.237625093755285 1
ion Ta   3.130278604763855   9.354921580725149   9.368758312641548 1
ion Ta   6.317387657598836  -0.080574344467584   0.000885863556100 1
ion Ta   9.273072783353273   3.118194584034420   3.197135283463414 1
ion Ta   6.303199745889586  -0.052577149117885   6.237369851901473 1
ion Ta   9.268377411766529   3.118160311009477   9.275642207056233 1
ion Ta   6.316443047180378   6.316425171702219   0.000951885783565 1
ion Ta   9.289369045017279   9.355169498746911   3.171361692428226 1
ion Ta   6.301841100423855   6.288057467620287   6.237412979283428 1
ion Ta   9.286941486417867   9.355620405055225   9.304146553354398 1
ion O   1.578944960508006   3.126122296641007   0.007001190561169 1

# Forces in Cartesian coordinates:
force Ta  -0.003252796077684  -0.007133806271103   0.000143042114618 1
force Ta   0.002590221790645   0.000137778190133   0.007700489986244 1
force Ta  -0.001438303219862   0.000368502603798   0.000097495565777 1
force Ta   0.003170099536921   0.000088302922774  -0.008433386706212 1
force Ta  -0.002865565012275   0.006695407671775   0.000142829724094 1
force Ta   0.001181769621798   0.000044129647665  -0.000402567882681 1
force Ta  -0.001472333679176  -0.000269115509696   0.000049951317321 1
force Ta   0.001168878716882   0.000055391433456   0.000558491410906 1
force Ta   0.003703192310608  -0.002145063539451   0.000113432080086 1
force Ta  -0.003880711587660   0.000078681638452   0.002178542284133 1
force Ta   0.002447749007514  -0.002496572248429   0.000076915439397 1
force Ta  -0.003534276339381   0.000088583030196  -0.001997394541226 1
force Ta   0.003673778258357   0.002247738076163   0.000113063586138 1
force Ta  -0.002398510197638   0.000046051882658   0.001846988067827 1
force Ta   0.002430007345095   0.002480247549843   0.000081325619248 1
force Ta  -0.002408058015154   0.000010210984193  -0.002217226024310 1
force O   0.000843391842119  -0.000295357395461  -0.000016011890312 1

# Energy components:
   Eewald =     -806.4522676068680767
       EH =      116.2975469430847113
     Eloc =     -174.8483936440329956
      Enl =     -277.9550815777852222
      Exc =     -342.1673117231505898
 Exc_core =      196.0818491261411225
       KE =      333.9438488649536225
-------------------------------------
     Etot =     -955.0998096176572290
       TS =        0.0244707231091894
-------------------------------------
        F =     -955.1242803407664042

IonicMinimize: Iter:   3  F: -955.124280340766404  |grad|_K:  2.757e-03  alpha:  8.790e-01  linmin: -9.844e-01  t[s]:  10070.12

#--- Lowdin population analysis ---
# oxidation-state Ta +0.081 +0.081 +0.003 +0.081 +0.081 +0.003 +0.003 +0.003 +0.018 +0.017 -0.032 +0.017 +0.018 -0.030 -0.031 -0.031
# oxidation-state O -0.176


-------- Electronic minimization -----------
	FillingsUpdate:  mu: +0.704753639  nElectrons: 214.000000
ElecMinimize: Iter:   0  F: -954.990562622870584  |grad|_K:  7.128e-05  alpha:  1.000e+00
	FillingsUpdate:  mu: +0.704443593  nElectrons: 214.000000
	SubspaceRotationAdjust: set factor to 0.229
ElecMinimize: Iter:   1  F: -955.092044352815719  |grad|_K:  2.521e-05  alpha:  3.182e-01  linmin:  3.917e-03  t[s]:  10278.73
	FillingsUpdate:  mu: +0.704017837  nElectrons: 214.000000
	SubspaceRotationAdjust: set factor to 0.259
ElecMinimize: Iter:   2  F: -955.109290124597464  |grad|_K:  1.259e-05  alpha:  4.302e-01  linmin:  9.595e-05  t[s]:  10399.94
	FillingsUpdate:  mu: +0.703943795  nElectrons: 214.000000
	SubspaceRotationAdjust: set factor to 0.361
ElecMinimize: Iter:   3  F: -955.118102273112413  |grad|_K:  1.097e-05  alpha:  8.703e-01  linmin:  3.918e-05  t[s]:  10526.21
	FillingsUpdate:  mu: +0.704136938  nElectrons: 214.000000
	SubspaceRotationAdjust: set factor to 0.365
ElecMinimize: Iter:   4  F: -955.123174263260807  |grad|_K:  6.851e-06  alpha:  6.586e-01  linmin:  3.292e-06  t[s]:  10649.81
	FillingsUpdate:  mu: +0.704024675  nElectrons: 214.000000
	SubspaceRotationAdjust: set factor to 0.385
ElecMinimize: Iter:   5  F: -955.124559341128133  |grad|_K:  3.289e-06  alpha:  4.607e-01  linmin:  3.512e-06  t[s]:  10771.11
	FillingsUpdate:  mu: +0.703982012  nElectrons: 214.000000
	SubspaceRotationAdjust: set factor to 0.47
ElecMinimize: Iter:   6  F: -955.124906501571104  |grad|_K:  1.890e-06  alpha:  5.011e-01  linmin:  4.285e-06  t[s]:  10894.30
	FillingsUpdate:  mu: +0.704009249  nElectrons: 214.000000
	SubspaceRotationAdjust: set factor to 0.47
ElecMinimize: Iter:   7  F: -955.125009575167155  |grad|_K:  1.208e-06  alpha:  4.506e-01  linmin:  9.908e-06  t[s]:  11019.00
	FillingsUpdate:  mu: +0.703974558  nElectrons: 214.000000
	SubspaceRotationAdjust: set factor to 0.46
ElecMinimize: Iter:   8  F: -955.125050923489994  |grad|_K:  6.935e-07  alpha:  4.429e-01  linmin:  4.956e-07  t[s]:  11142.98
	FillingsUpdate:  mu: +0.703984020  nElectrons: 214.000000
	SubspaceRotationAdjust: set factor to 0.424
ElecMinimize: Iter:   9  F: -955.125066475660560  |grad|_K:  4.018e-07  alpha:  5.049e-01  linmin:  2.885e-06  t[s]:  11262.00
	FillingsUpdate:  mu: +0.703977431  nElectrons: 214.000000
	SubspaceRotationAdjust: set factor to 0.376
ElecMinimize: Iter:  10  F: -955.125071002759682  |grad|_K:  2.295e-07  alpha:  4.379e-01  linmin:  3.457e-08  t[s]:  11380.47
	FillingsUpdate:  mu: +0.703981232  nElectrons: 214.000000
	SubspaceRotationAdjust: set factor to 0.353
ElecMinimize: Iter:  11  F: -955.125072458601267  |grad|_K:  1.262e-07  alpha:  4.315e-01  linmin: -4.927e-07  t[s]:  11500.19
	FillingsUpdate:  mu: +0.703980269  nElectrons: 214.000000
	SubspaceRotationAdjust: set factor to 0.416
ElecMinimize: Iter:  12  F: -955.125072947332114  |grad|_K:  7.140e-08  alpha:  4.789e-01  linmin:  3.445e-07  t[s]:  11619.89
	FillingsUpdate:  mu: +0.703980172  nElectrons: 214.000000
	SubspaceRotationAdjust: set factor to 0.528
ElecMinimize: Iter:  13  F: -955.125073105077945  |grad|_K:  4.342e-08  alpha:  4.829e-01  linmin: -4.314e-06  t[s]:  11739.53
	FillingsUpdate:  mu: +0.703980940  nElectrons: 214.000000
	SubspaceRotationAdjust: set factor to 0.631
ElecMinimize: Iter:  14  F: -955.125073164882110  |grad|_K:  2.729e-08  alpha:  4.953e-01  linmin: -1.365e-06  t[s]:  11860.38
	FillingsUpdate:  mu: +0.703980606  nElectrons: 214.000000
	SubspaceRotationAdjust: set factor to 0.504
ElecMinimize: Iter:  15  F: -955.125073184020380  |grad|_K:  1.940e-08  alpha:  4.010e-01  linmin: -8.675e-06  t[s]:  11980.73
	FillingsUpdate:  mu: +0.703980917  nElectrons: 214.000000
	SubspaceRotationAdjust: set factor to 0.304
ElecMinimize: Iter:  16  F: -955.125073190137755  |grad|_K:  9.625e-09  alpha:  2.542e-01  linmin:  2.110e-06  t[s]:  12106.43
	FillingsUpdate:  mu: +0.703980929  nElectrons: 214.000000
	SubspaceRotationAdjust: set factor to 0.328
ElecMinimize: Iter:  17  F: -955.125073192687978  |grad|_K:  4.943e-09  alpha:  4.377e-01  linmin:  4.454e-05  t[s]:  12224.71
ElecMinimize: Converged (|Delta F|<1.000000e-08 for 2 iters).
Setting wave functions to eigenvectors of Hamiltonian

# Ionic positions in cartesian coordinates:
ion Ta  -0.126589745082924  -0.271602901792336   0.000102437334140 1
ion Ta   3.244091931813459   3.117363381163559   3.412490209736284 1
ion Ta  -0.020173667749209   0.016923633658467   6.237724460466989 1
ion Ta   3.241836853201736   3.117554314862952   9.065462404619806 1
ion Ta  -0.129048906624994   6.514115699733900   0.000014552581639 1
ion Ta   3.136155867643216   9.355072148098879   3.102385529364811 1
ion Ta  -0.020134610894812   6.220360972333227   6.237856381819253 1
ion Ta   3.135619582566977   9.355183429019810   9.372030393342309 1
ion Ta   6.334853475252866  -0.090718938614870   0.001395222644585 1
ion Ta   9.254827311444235   3.118553581758359   3.207453331813283 1
ion Ta   6.316429290759813  -0.065159757652330   6.237726030849672 1
ion Ta   9.251675774514281   3.118557850170331   9.266070578102557 1
ion Ta   6.333678968313396   6.326983038526546   0.001462128833443 1
ion Ta   9.276450082674163   9.355396670608616   3.180836304754268 1
ion Ta   6.314964387645296   6.300555708859858   6.237789201868622 1
ion Ta   9.273922794574689   9.355671790952696   9.292846681423526 1
ion O   1.583513609947814   3.125286378312333   0.007403150444812 1

# Forces in Cartesian coordinates:
force Ta   0.000128239425716   0.000339492799722   0.000001240403401 1
force Ta  -0.000271091553507   0.000047610545665   0.000868203441613 1
force Ta  -0.000951995221906  -0.000094250507905   0.000018679947649 1
force Ta  -0.000379594798313   0.000029481069335  -0.000458458825603 1
force Ta   0.000113639351283  -0.000214260078218   0.000013544562288 1
force Ta   0.000624911218775   0.000019474346439   0.000017540772075 1
force Ta  -0.000961927539542   0.000180836509541   0.000002326416310 1
force Ta   0.000661176375917   0.000023929116387   0.000101542053818 1
force Ta   0.000973567859341   0.000215109922402   0.000015544756760 1
force Ta  -0.001255946582569   0.000034154761970  -0.000179535973206 1
force Ta  -0.000400588496808  -0.000357118842072  -0.000044586535791 1
force Ta  -0.001052730742417   0.000037572195948   0.000302213044776 1
force Ta   0.000995524121773  -0.000117165819687   0.000010741597512 1
force Ta   0.000299910414491  -0.000038555895591   0.000119361802539 1
force Ta  -0.000329916472155   0.000502348265882  -0.000038666984876 1
force Ta   0.000433274261921  -0.000064693041015  -0.000049760196752 1
force O   0.001323087156096  -0.000535855260199  -0.000662686832628 1

# Energy components:
   Eewald =     -806.5597983955858581
       EH =      116.2277157309528093
     Eloc =     -174.6656700130681372
      Enl =     -277.9638244110648202
      Exc =     -342.1676507779363305
 Exc_core =      196.0818789921924576
       KE =      333.9465826511831779
-------------------------------------
     Etot =     -955.1007662233266728
       TS =        0.0243069693613394
-------------------------------------
        F =     -955.1250731926879780

IonicMinimize: Iter:   4  F: -955.125073192687978  |grad|_K:  4.917e-04  alpha:  1.000e+00  linmin: -3.778e-01  t[s]:  12243.94

#--- Lowdin population analysis ---
# oxidation-state Ta +0.087 +0.087 +0.003 +0.086 +0.087 +0.004 +0.003 +0.004 +0.019 +0.018 -0.037 +0.018 +0.020 -0.036 -0.036 -0.036
# oxidation-state O -0.186


-------- Electronic minimization -----------
	FillingsUpdate:  mu: +0.703973405  nElectrons: 214.000000
ElecMinimize: Iter:   0  F: -955.125080805935227  |grad|_K:  6.449e-07  alpha:  1.000e+00
	FillingsUpdate:  mu: +0.703994202  nElectrons: 214.000000
	SubspaceRotationAdjust: set factor to 0.205
ElecMinimize: Iter:   1  F: -955.125095899466942  |grad|_K:  4.953e-07  alpha:  5.668e-01  linmin:  9.584e-06  t[s]:  12470.49
	FillingsUpdate:  mu: +0.703985357  nElectrons: 214.000000
	SubspaceRotationAdjust: set factor to 0.217
ElecMinimize: Iter:   2  F: -955.125109053592951  |grad|_K:  3.849e-07  alpha:  8.375e-01  linmin:  8.433e-06  t[s]:  12597.53
	FillingsUpdate:  mu: +0.703986084  nElectrons: 214.000000
	SubspaceRotationAdjust: set factor to 0.283
ElecMinimize: Iter:   3  F: -955.125115699535627  |grad|_K:  2.234e-07  alpha:  7.008e-01  linmin: -5.073e-08  t[s]:  12721.36
	FillingsUpdate:  mu: +0.703988331  nElectrons: 214.000000
	SubspaceRotationAdjust: set factor to 0.321
ElecMinimize: Iter:   4  F: -955.125117267435826  |grad|_K:  1.335e-07  alpha:  4.908e-01  linmin: -9.238e-07  t[s]:  12848.98
	FillingsUpdate:  mu: +0.703987579  nElectrons: 214.000000
	SubspaceRotationAdjust: set factor to 0.429
ElecMinimize: Iter:   5  F: -955.125117754432608  |grad|_K:  7.763e-08  alpha:  4.268e-01  linmin: -1.108e-06  t[s]:  12975.20
	FillingsUpdate:  mu: +0.703986405  nElectrons: 214.000000
	SubspaceRotationAdjust: set factor to 0.531
ElecMinimize: Iter:   6  F: -955.125117943384453  |grad|_K:  5.053e-08  alpha:  4.896e-01  linmin:  1.387e-06  t[s]:  13097.19
	FillingsUpdate:  mu: +0.703986692  nElectrons: 214.000000
	SubspaceRotationAdjust: set factor to 0.616
ElecMinimize: Iter:   7  F: -955.125118029490977  |grad|_K:  3.103e-08  alpha:  5.265e-01  linmin: -3.123e-06  t[s]:  13222.07
	FillingsUpdate:  mu: +0.703986375  nElectrons: 214.000000
	SubspaceRotationAdjust: set factor to 0.581
ElecMinimize: Iter:   8  F: -955.125118057266150  |grad|_K:  1.824e-08  alpha:  4.503e-01  linmin:  2.930e-06  t[s]:  13346.37
	FillingsUpdate:  mu: +0.703986603  nElectrons: 214.000000
	SubspaceRotationAdjust: set factor to 0.39
ElecMinimize: Iter:   9  F: -955.125118063940363  |grad|_K:  1.185e-08  alpha:  3.147e-01  linmin:  2.008e-06  t[s]:  13470.52
	FillingsUpdate:  mu: +0.703986521  nElectrons: 214.000000
	SubspaceRotationAdjust: set factor to 0.279
ElecMinimize: Iter:  10  F: -955.125118066679306  |grad|_K:  5.696e-09  alpha:  3.044e-01  linmin: -3.238e-06  t[s]:  13595.61
ElecMinimize: Converged (|Delta F|<1.000000e-08 for 2 iters).
Setting wave functions to eigenvectors of Hamiltonian

# Ionic positions in cartesian coordinates:
ion Ta  -0.126436359753952  -0.271271373616419   0.000121448081263 1
ion Ta   3.243239571016779   3.117584961805493   3.417255087483825 1
ion Ta  -0.024364600661873   0.016640243204214   6.237811565200601 1
ion Ta   3.240622220460466   3.117691241769159   9.062282008597329 1
ion Ta  -0.128883156281240   6.514225333549952   0.000085222727307 1
ion Ta   3.138966259911854   9.355159465284421   3.102336821427042 1
ion Ta  -0.024370856447238   6.221018604409318   6.237866953418291 1
ion Ta   3.138579470231091   9.355290893363849   9.372584461846817 1
ion Ta   6.339624325968324  -0.090286613848372   0.001467733124265 1
ion Ta   9.248877021987992   3.118705317129945   3.207161376179076 1
ion Ta   6.315321289254878  -0.067149829577246   6.237543409767762 1
ion Ta   9.246631082276187   3.118724797443919   9.266879469806204 1
ion Ta   6.338531338553797   6.326967264989842   0.001514751326575 1
ion Ta   9.277176314870342   9.355242273985219   3.181708416282885 1
ion Ta   6.314146014087124   6.303146000892220   6.237632022180482 1
ion Ta   9.275198587894295   9.355401535237633   9.292179156508288 1
ion O   1.589214476631173   3.123006883976855   0.004619096041987 1

# Forces in Cartesian coordinates:
force Ta   0.000244659968366   0.000631201921169   0.000079887926405 1
force Ta  -0.000777924886863   0.000085738876247   0.000154230882854 1
force Ta  -0.000583457997190  -0.000039432392305   0.000007261145472 1
force Ta  -0.000468065801238   0.000074143888372  -0.000563895280201 1
force Ta   0.000479829899052  -0.000983261815634   0.000091268307702 1
force Ta   0.000253657668580   0.000012655527347  -0.000048781096190 1
force Ta  -0.000578873368299   0.000077756155692  -0.000000683944611 1
force Ta   0.000292882978675   0.000014000291610   0.000092318746291 1
force Ta   0.000401211540709   0.000184164956653   0.000030637850446 1
force Ta  -0.000720680281035   0.000036812045751  -0.000194963259212 1
force Ta  -0.000484571995404  -0.000188289048048   0.000015657760778 1
force Ta  -0.000590112825090   0.000037911265655   0.000284942459914 1
force Ta   0.000427221873534  -0.000098550166339   0.000029328553145 1
force Ta   0.000362962405385   0.000000278253520  -0.000099266920843 1
force Ta  -0.000443162648010   0.000275276166038   0.000017679778484 1
force Ta   0.000457926229550  -0.000013994851186   0.000132392520402 1
force O   0.001671553671455  -0.000102676868942   0.000004393751902 1

# Energy components:
   Eewald =     -806.5623747995151689
       EH =      116.2273222322211268
     Eloc =     -174.6625724603140100
      Enl =     -277.9647870737700259
      Exc =     -342.1679685943594222
 Exc_core =      196.0818822125359020
       KE =      333.9476617853144944
-------------------------------------
     Etot =     -955.1008366978871891
       TS =        0.0242813687921043
-------------------------------------
        F =     -955.1251180666793061

IonicMinimize: Iter:   5  F: -955.125118066679306  |grad|_K:  4.151e-04  alpha:  1.000e+00  linmin: -7.279e-01  t[s]:  13616.17

#--- Lowdin population analysis ---
# oxidation-state Ta +0.088 +0.087 +0.004 +0.087 +0.088 +0.004 +0.004 +0.004 +0.019 +0.018 -0.037 +0.017 +0.020 -0.036 -0.037 -0.037
# oxidation-state O -0.187


-------- Electronic minimization -----------
	FillingsUpdate:  mu: +0.703997966  nElectrons: 214.000000
ElecMinimize: Iter:   0  F: -955.077510079327340  |grad|_K:  3.733e-05  alpha:  1.000e+00
	FillingsUpdate:  mu: +0.704059348  nElectrons: 214.000000
	SubspaceRotationAdjust: set factor to 0.249
ElecMinimize: Iter:   1  F: -955.113087006419391  |grad|_K:  1.099e-05  alpha:  3.989e-01  linmin:  1.462e-04  t[s]:  13832.97
	FillingsUpdate:  mu: +0.703949032  nElectrons: 214.000000
	SubspaceRotationAdjust: set factor to 0.335
ElecMinimize: Iter:   2  F: -955.118560720993969  |grad|_K:  9.004e-06  alpha:  7.086e-01  linmin:  1.690e-05  t[s]:  13959.45
	FillingsUpdate:  mu: +0.704021413  nElectrons: 214.000000
	SubspaceRotationAdjust: set factor to 0.41
ElecMinimize: Iter:   3  F: -955.122930799597611  |grad|_K:  7.389e-06  alpha:  8.421e-01  linmin: -6.230e-06  t[s]:  14087.43
	FillingsUpdate:  mu: +0.704044453  nElectrons: 214.000000
	SubspaceRotationAdjust: set factor to 0.462
ElecMinimize: Iter:   4  F: -955.124648864606115  |grad|_K:  3.901e-06  alpha:  4.912e-01  linmin: -8.728e-07  t[s]:  14214.77
	FillingsUpdate:  mu: +0.703982181  nElectrons: 214.000000
	SubspaceRotationAdjust: set factor to 0.47
ElecMinimize: Iter:   5  F: -955.125072434214076  |grad|_K:  2.021e-06  alpha:  4.346e-01  linmin:  1.451e-07  t[s]:  14339.53
	FillingsUpdate:  mu: +0.704004308  nElectrons: 214.000000
	SubspaceRotationAdjust: set factor to 0.453
ElecMinimize: Iter:   6  F: -955.125182517767144  |grad|_K:  1.109e-06  alpha:  4.209e-01  linmin: -1.517e-06  t[s]:  14461.22
	FillingsUpdate:  mu: +0.703983583  nElectrons: 214.000000
	SubspaceRotationAdjust: set factor to 0.458
ElecMinimize: Iter:   7  F: -955.125215898881947  |grad|_K:  6.204e-07  alpha:  4.239e-01  linmin:  3.266e-06  t[s]:  14585.75
	FillingsUpdate:  mu: +0.703988461  nElectrons: 214.000000
	SubspaceRotationAdjust: set factor to 0.443
ElecMinimize: Iter:   8  F: -955.125227144755513  |grad|_K:  3.889e-07  alpha:  4.563e-01  linmin:  1.417e-06  t[s]:  14708.31
	FillingsUpdate:  mu: +0.703987270  nElectrons: 214.000000
	SubspaceRotationAdjust: set factor to 0.373
ElecMinimize: Iter:   9  F: -955.125231311319340  |grad|_K:  2.408e-07  alpha:  4.303e-01  linmin: -5.992e-08  t[s]:  14832.37
	FillingsUpdate:  mu: +0.703987232  nElectrons: 214.000000
	SubspaceRotationAdjust: set factor to 0.35
ElecMinimize: Iter:  10  F: -955.125232905835219  |grad|_K:  1.305e-07  alpha:  4.294e-01  linmin:  6.165e-07  t[s]:  14956.67
	FillingsUpdate:  mu: +0.703987206  nElectrons: 214.000000
	SubspaceRotationAdjust: set factor to 0.425
ElecMinimize: Iter:  11  F: -955.125233432209484  |grad|_K:  7.421e-08  alpha:  4.829e-01  linmin:  1.092e-06  t[s]:  15077.73
	FillingsUpdate:  mu: +0.703987293  nElectrons: 214.000000
	SubspaceRotationAdjust: set factor to 0.49
ElecMinimize: Iter:  12  F: -955.125233596839621  |grad|_K:  4.239e-08  alpha:  4.667e-01  linmin: -4.976e-06  t[s]:  15203.87
	FillingsUpdate:  mu: +0.703987373  nElectrons: 214.000000
	SubspaceRotationAdjust: set factor to 0.462
ElecMinimize: Iter:  13  F: -955.125233647955838  |grad|_K:  2.609e-08  alpha:  4.437e-01  linmin: -1.420e-05  t[s]:  15325.32
	FillingsUpdate:  mu: +0.703987367  nElectrons: 214.000000
	SubspaceRotationAdjust: set factor to 0.371
ElecMinimize: Iter:  14  F: -955.125233664963957  |grad|_K:  1.606e-08  alpha:  3.882e-01  linmin: -1.342e-05  t[s]:  15451.96
	FillingsUpdate:  mu: +0.703987558  nElectrons: 214.000000
	SubspaceRotationAdjust: set factor to 0.335
ElecMinimize: Iter:  15  F: -955.125233671830074  |grad|_K:  8.147e-09  alpha:  4.176e-01  linmin:  9.285e-06  t[s]:  15580.23
	FillingsUpdate:  mu: +0.703987479  nElectrons: 214.000000
	SubspaceRotationAdjust: set factor to 0.368
ElecMinimize: Iter:  16  F: -955.125233673628827  |grad|_K:  4.131e-09  alpha:  4.259e-01  linmin: -5.722e-05  t[s]:  15704.52
ElecMinimize: Converged (|Delta F|<1.000000e-08 for 2 iters).
Setting wave functions to eigenvectors of Hamiltonian

# Ionic positions in cartesian coordinates:
ion Ta  -0.125182415292357  -0.266907605808052   0.001159162768861 1
ion Ta   3.234358137362239   3.118963325015424   3.429676761055008 1
ion Ta  -0.037367846204251   0.015924843026403   6.238025293924901 1
ion Ta   3.235285761205257   3.118804272259081   9.046513187105852 1
ion Ta  -0.124624719521523   6.505973172629773   0.001328801288209 1
ion Ta   3.146071202361047   9.355441968163330   3.101487361615914 1
ion Ta  -0.037378000776697   6.222704147277081   6.237869883880059 1
ion Ta   3.146362749998589   9.355618499991188   9.374604201588635 1
ion Ta   6.352081325162286  -0.088474128674317   0.001958196770958 1
ion Ta   9.230923017496622   3.119379258609840   3.205345199945379 1
ion Ta   6.308740560495943  -0.072909626925870   6.237524185605254 1
ion Ta   9.231584728931928   3.119434416644046   9.270484022293582 1
ion Ta   6.351416906688718   6.326782888632279   0.001964132131849 1
ion Ta   9.281838604421814   9.355072260446242   3.182168258392868 1
ion Ta   6.308435708670311   6.310739098444512   6.237671294134707 1
ion Ta   9.281731602855801   9.354895301725143   9.292209908024343 1
ion O   1.617795676144273   3.118654908543892   0.001059149473620 1

# Forces in Cartesian coordinates:
force Ta   0.000430880352642   0.001813169550982   0.000042285176787 1
force Ta  -0.001051801892094   0.000018672783382   0.000218044762550 1
force Ta   0.000260431776261   0.000031963182014  -0.000028995752414 1
force Ta  -0.001042094671267   0.000031345520802  -0.000381495363311 1
force Ta   0.000462429479081  -0.001992310246555   0.000040738251366 1
force Ta  -0.000807313024763  -0.000017378643464  -0.000174239829048 1
force Ta   0.000291165779242  -0.000074171210748  -0.000012249561345 1
force Ta  -0.000780982599101  -0.000027700384378   0.000095103601229 1
force Ta  -0.001116943884418  -0.000129044234698  -0.000027971312491 1
force Ta   0.000665128633113  -0.000013660362938  -0.000121510603922 1
force Ta  -0.000246456593981   0.000134034035542   0.000025149646791 1
force Ta   0.000559481774258  -0.000018425151094   0.000068718620090 1
force Ta  -0.001068829953223   0.000131127382460  -0.000021371661468 1
force Ta   0.000122677474693   0.000007127143445  -0.000468904514539 1
force Ta  -0.000231867765544  -0.000073614523498   0.000016998123653 1
force Ta   0.000147483124911   0.000027703412276   0.000612145433288 1
force O   0.003370735655336   0.000141686574941   0.000153427125945 1

# Energy components:
   Eewald =     -806.5526079084390858
       EH =      116.2394856154921854
     Eloc =     -174.6849674609553631
      Enl =     -277.9672264507948967
      Exc =     -342.1692182267768203
 Exc_core =      196.0818892779332430
       KE =      333.9516253717608834
-------------------------------------
     Etot =     -955.1010197817797689
       TS =        0.0242138918490671
-------------------------------------
        F =     -955.1252336736288271

IonicMinimize: Iter:   6  F: -955.125233673628827  |grad|_K:  7.261e-04  alpha:  1.000e+00  linmin: -2.865e-01  t[s]:  15723.91

#--- Lowdin population analysis ---
# oxidation-state Ta +0.090 +0.088 +0.004 +0.089 +0.090 +0.005 +0.004 +0.005 +0.020 +0.016 -0.039 +0.016 +0.020 -0.038 -0.039 -0.038
# oxidation-state O -0.188


-------- Electronic minimization -----------
	FillingsUpdate:  mu: +0.705578487  nElectrons: 214.000000
ElecMinimize: Iter:   0  F: -954.752848609094826  |grad|_K:  1.066e-04  alpha:  1.000e+00
	FillingsUpdate:  mu: +0.704585777  nElectrons: 214.000000
	SubspaceRotationAdjust: set factor to 0.305
ElecMinimize: Iter:   1  F: -955.041337191573120  |grad|_K:  3.443e-05  alpha:  3.983e-01  linmin:  8.690e-04  t[s]:  15931.09
	FillingsUpdate:  mu: +0.704035992  nElectrons: 214.000000
	SubspaceRotationAdjust: set factor to 0.262
ElecMinimize: Iter:   2  F: -955.082027891540747  |grad|_K:  2.469e-05  alpha:  5.387e-01  linmin:  1.319e-04  t[s]:  16052.94
	FillingsUpdate:  mu: +0.704188310  nElectrons: 214.000000
	SubspaceRotationAdjust: set factor to 0.303
ElecMinimize: Iter:   3  F: -955.111709493975013  |grad|_K:  1.707e-05  alpha:  7.623e-01  linmin: -4.732e-05  t[s]:  16176.57
	FillingsUpdate:  mu: +0.704075679  nElectrons: 214.000000
	SubspaceRotationAdjust: set factor to 0.361
ElecMinimize: Iter:   4  F: -955.122268982349283  |grad|_K:  8.668e-06  alpha:  5.645e-01  linmin:  3.745e-06  t[s]:  16299.31
	FillingsUpdate:  mu: +0.703952311  nElectrons: 214.000000
	SubspaceRotationAdjust: set factor to 0.406
ElecMinimize: Iter:   5  F: -955.124506037775973  |grad|_K:  4.840e-06  alpha:  4.650e-01  linmin: -2.031e-06  t[s]:  16423.22
	FillingsUpdate:  mu: +0.703970694  nElectrons: 214.000000
	SubspaceRotationAdjust: set factor to 0.529
ElecMinimize: Iter:   6  F: -955.125183443050446  |grad|_K:  2.849e-06  alpha:  4.516e-01  linmin: -1.415e-06  t[s]:  16543.11
	FillingsUpdate:  mu: +0.703957768  nElectrons: 214.000000
	SubspaceRotationAdjust: set factor to 0.631
ElecMinimize: Iter:   7  F: -955.125437878544403  |grad|_K:  1.930e-06  alpha:  4.895e-01  linmin:  8.909e-06  t[s]:  16667.11
	FillingsUpdate:  mu: +0.703932417  nElectrons: 214.000000
	SubspaceRotationAdjust: set factor to 0.57
ElecMinimize: Iter:   8  F: -955.125539692198799  |grad|_K:  1.373e-06  alpha:  4.269e-01  linmin:  5.384e-06  t[s]:  16790.79
	FillingsUpdate:  mu: +0.703942218  nElectrons: 214.000000
	SubspaceRotationAdjust: set factor to 0.397
ElecMinimize: Iter:   9  F: -955.125580583532042  |grad|_K:  8.358e-07  alpha:  3.387e-01  linmin: -3.673e-07  t[s]:  16914.24
	FillingsUpdate:  mu: +0.703941549  nElectrons: 214.000000
	SubspaceRotationAdjust: set factor to 0.356
ElecMinimize: Iter:  10  F: -955.125596415973177  |grad|_K:  4.127e-07  alpha:  3.539e-01  linmin:  2.405e-06  t[s]:  17038.25
	FillingsUpdate:  mu: +0.703938202  nElectrons: 214.000000
	SubspaceRotationAdjust: set factor to 0.393
ElecMinimize: Iter:  11  F: -955.125601152075546  |grad|_K:  2.126e-07  alpha:  4.343e-01  linmin:  1.484e-06  t[s]:  17160.94
	FillingsUpdate:  mu: +0.703941388  nElectrons: 214.000000
	SubspaceRotationAdjust: set factor to 0.431
ElecMinimize: Iter:  12  F: -955.125602509902251  |grad|_K:  1.185e-07  alpha:  4.691e-01  linmin: -5.802e-07  t[s]:  17285.77
	FillingsUpdate:  mu: +0.703941094  nElectrons: 214.000000
	SubspaceRotationAdjust: set factor to 0.517
ElecMinimize: Iter:  13  F: -955.125602932744641  |grad|_K:  7.248e-08  alpha:  4.705e-01  linmin: -2.390e-08  t[s]:  17410.51
	FillingsUpdate:  mu: +0.703941061  nElectrons: 214.000000
	SubspaceRotationAdjust: set factor to 0.572
ElecMinimize: Iter:  14  F: -955.125603088398293  |grad|_K:  4.947e-08  alpha:  4.624e-01  linmin: -3.100e-06  t[s]:  17534.71
	FillingsUpdate:  mu: +0.703942017  nElectrons: 214.000000
	SubspaceRotationAdjust: set factor to 0.488
ElecMinimize: Iter:  15  F: -955.125603153268003  |grad|_K:  3.173e-08  alpha:  4.142e-01  linmin:  6.656e-06  t[s]:  17657.47
	FillingsUpdate:  mu: +0.703941517  nElectrons: 214.000000
	SubspaceRotationAdjust: set factor to 0.345
ElecMinimize: Iter:  16  F: -955.125603175669426  |grad|_K:  1.783e-08  alpha:  3.482e-01  linmin: -2.393e-07  t[s]:  17780.06
	FillingsUpdate:  mu: +0.703941758  nElectrons: 214.000000
	SubspaceRotationAdjust: set factor to 0.333
ElecMinimize: Iter:  17  F: -955.125603183794283  |grad|_K:  9.687e-09  alpha:  3.948e-01  linmin: -1.730e-05  t[s]:  17901.41
	FillingsUpdate:  mu: +0.703941765  nElectrons: 214.000000
	SubspaceRotationAdjust: set factor to 0.412
ElecMinimize: Iter:  18  F: -955.125603186427497  |grad|_K:  5.382e-09  alpha:  4.433e-01  linmin: -3.872e-05  t[s]:  18024.15
ElecMinimize: Converged (|Delta F|<1.000000e-08 for 2 iters).
Setting wave functions to eigenvectors of Hamiltonian

# Ionic positions in cartesian coordinates:
ion Ta  -0.120421145872439  -0.245002562809880   0.003727896804949 1
ion Ta   3.207213461901678   3.122476530569127   3.469711054903001 1
ion Ta  -0.071323118849914   0.013940367570576   6.238407548345712 1
ion Ta   3.215099744054088   3.121688403027614   9.001035149784959 1
ion Ta  -0.113239435616444   6.475289751656093   0.004426070937952 1
ion Ta   3.160480496837013   9.356085692651980   3.098340249775237 1
ion Ta  -0.071187997482176   6.227162342844231   6.237784479733500 1
ion Ta   3.162724107236989   9.356318156855918   9.380570341785075 1
ion Ta   6.379282485783838  -0.084741478453168   0.002925928578199 1
ion Ta   9.186142519694265   3.121021658512138   3.199905825663285 1
ion Ta   6.290070988670149  -0.087814663642513   6.237323420885552 1
ion Ta   9.193992788215802   3.121147041576307   9.280336840359992 1
ion Ta   6.380094815724195   6.327393607348887   0.002856233385833 1
ion Ta   9.294695974117040   9.354475615439018   3.180920094043695 1
ion Ta   6.292307372723414   6.331210955045630   6.237581767135138 1
ion Ta   9.299868608742980   9.353515575768393   9.295995348068612 1
ion O   1.716271334119526   3.105930006039646  -0.010799250190690 1

# Forces in Cartesian coordinates:
force Ta   0.000267743614575   0.004331412258808   0.000055886742277 1
force Ta  -0.001993085437050  -0.000141249029736   0.000213670707696 1
force Ta   0.002073822074631  -0.000234671989361  -0.000075101452187 1
force Ta  -0.002024400501608  -0.000057768563548  -0.001234883958158 1
force Ta   0.000082345686098  -0.004502966241341  -0.000001599751598 1
force Ta  -0.003390151106819  -0.000093657865490  -0.000279430408544 1
force Ta   0.002145341919847  -0.000008539884797  -0.000000456176470 1
force Ta  -0.003405688677017  -0.000133346402658  -0.000135243295448 1
force Ta  -0.004909318434462  -0.001001897662319  -0.000123614689081 1
force Ta   0.004243641407492  -0.000107806588680  -0.000130740586588 1
force Ta   0.000481482815665   0.000613882669225   0.000140105567754 1
force Ta   0.003468151234868  -0.000122525006623  -0.000311816307432 1
force Ta  -0.004769095085111   0.000829143643193  -0.000099909136104 1
force Ta  -0.000652802291520   0.000070289832141  -0.001598650924086 1
force Ta   0.000411601569006  -0.000750860999230   0.000119063344271 1
force Ta  -0.000926892568216   0.000173086281299   0.001755303405510 1
force O   0.008820028653599   0.001096603753765   0.001740645855874 1

# Energy components:
   Eewald =     -806.4946047432199521
       EH =      116.2991547864173043
     Eloc =     -174.8041564396739034
      Enl =     -277.9742190451474926
      Exc =     -342.1730419995784587
 Exc_core =      196.0818944699803978
       KE =      333.9633561130603425
-------------------------------------
     Etot =     -955.1016168581618331
       TS =        0.0239863282656557
-------------------------------------
        F =     -955.1256031864274973

IonicMinimize: Iter:   7  F: -955.125603186427497  |grad|_K:  2.214e-03  alpha:  9.548e-01  linmin: -1.279e-01  t[s]:  18043.79

#--- Lowdin population analysis ---
# oxidation-state Ta +0.094 +0.089 +0.006 +0.090 +0.093 +0.008 +0.006 +0.008 +0.022 +0.011 -0.041 +0.011 +0.021 -0.040 -0.042 -0.040
# oxidation-state O -0.190


-------- Electronic minimization -----------
	FillingsUpdate:  mu: +0.705331088  nElectrons: 214.000000
ElecMinimize: Iter:   0  F: -954.767364051007689  |grad|_K:  1.056e-04  alpha:  1.000e+00
	FillingsUpdate:  mu: +0.704648820  nElectrons: 214.000000
	SubspaceRotationAdjust: set factor to 0.317
ElecMinimize: Iter:   1  F: -955.047999475524421  |grad|_K:  3.593e-05  alpha:  3.948e-01  linmin:  8.104e-04  t[s]:  18253.12
	FillingsUpdate:  mu: +0.704035480  nElectrons: 214.000000
	SubspaceRotationAdjust: set factor to 0.245
ElecMinimize: Iter:   2  F: -955.085633278976957  |grad|_K:  2.413e-05  alpha:  4.574e-01  linmin:  1.904e-04  t[s]:  18378.51
	FillingsUpdate:  mu: +0.704028833  nElectrons: 214.000000
	SubspaceRotationAdjust: set factor to 0.297
ElecMinimize: Iter:   3  F: -955.112567070468913  |grad|_K:  1.633e-05  alpha:  7.243e-01  linmin: -5.966e-05  t[s]:  18499.40
	FillingsUpdate:  mu: +0.704033500  nElectrons: 214.000000
	SubspaceRotationAdjust: set factor to 0.363
ElecMinimize: Iter:   4  F: -955.122535270682533  |grad|_K:  8.524e-06  alpha:  5.823e-01  linmin:  4.472e-06  t[s]:  18628.39
	FillingsUpdate:  mu: +0.703865492  nElectrons: 214.000000
	SubspaceRotationAdjust: set factor to 0.378
ElecMinimize: Iter:   5  F: -955.124773450982275  |grad|_K:  4.691e-06  alpha:  4.810e-01  linmin:  4.753e-06  t[s]:  18752.02
	FillingsUpdate:  mu: +0.703883336  nElectrons: 214.000000
	SubspaceRotationAdjust: set factor to 0.444
ElecMinimize: Iter:   6  F: -955.125442765188382  |grad|_K:  2.783e-06  alpha:  4.749e-01  linmin: -4.477e-06  t[s]:  18873.89
	FillingsUpdate:  mu: +0.703873764  nElectrons: 214.000000
	SubspaceRotationAdjust: set factor to 0.526
ElecMinimize: Iter:   7  F: -955.125689894326001  |grad|_K:  1.824e-06  alpha:  4.982e-01  linmin:  8.271e-06  t[s]:  18997.04
	FillingsUpdate:  mu: +0.703844165  nElectrons: 214.000000
	SubspaceRotationAdjust: set factor to 0.551
ElecMinimize: Iter:   8  F: -955.125792032271306  |grad|_K:  1.200e-06  alpha:  4.796e-01  linmin:  4.314e-06  t[s]:  19119.82
	FillingsUpdate:  mu: +0.703856380  nElectrons: 214.000000
	SubspaceRotationAdjust: set factor to 0.456
ElecMinimize: Iter:   9  F: -955.125832573290722  |grad|_K:  7.362e-07  alpha:  4.397e-01  linmin:  4.823e-07  t[s]:  19241.25
	FillingsUpdate:  mu: +0.703849099  nElectrons: 214.000000
	SubspaceRotationAdjust: set factor to 0.319
ElecMinimize: Iter:  10  F: -955.125844860093139  |grad|_K:  4.110e-07  alpha:  3.540e-01  linmin:  2.126e-06  t[s]:  19361.17
	FillingsUpdate:  mu: +0.703850885  nElectrons: 214.000000
	SubspaceRotationAdjust: set factor to 0.332
ElecMinimize: Iter:  11  F: -955.125849149058013  |grad|_K:  2.030e-07  alpha:  3.965e-01  linmin: -8.388e-07  t[s]:  19483.67
	FillingsUpdate:  mu: +0.703852438  nElectrons: 214.000000
	SubspaceRotationAdjust: set factor to 0.42
ElecMinimize: Iter:  12  F: -955.125850385358717  |grad|_K:  1.130e-07  alpha:  4.684e-01  linmin: -7.258e-07  t[s]:  19603.80
	FillingsUpdate:  mu: +0.703851928  nElectrons: 214.000000
	SubspaceRotationAdjust: set factor to 0.475
ElecMinimize: Iter:  13  F: -955.125850761741503  |grad|_K:  7.130e-08  alpha:  4.601e-01  linmin:  9.699e-07  t[s]:  19726.55
	FillingsUpdate:  mu: +0.703852325  nElectrons: 214.000000
	SubspaceRotationAdjust: set factor to 0.539
ElecMinimize: Iter:  14  F: -955.125850919777577  |grad|_K:  4.745e-08  alpha:  4.853e-01  linmin: -1.001e-05  t[s]:  19848.06
	FillingsUpdate:  mu: +0.703852948  nElectrons: 214.000000
	SubspaceRotationAdjust: set factor to 0.487
ElecMinimize: Iter:  15  F: -955.125850985078841  |grad|_K:  3.001e-08  alpha:  4.530e-01  linmin: -5.918e-06  t[s]:  19970.41
	FillingsUpdate:  mu: +0.703852781  nElectrons: 214.000000
	SubspaceRotationAdjust: set factor to 0.359
ElecMinimize: Iter:  16  F: -955.125851005157642  |grad|_K:  1.641e-08  alpha:  3.468e-01  linmin:  2.026e-05  t[s]:  20089.95
	FillingsUpdate:  mu: +0.703852893  nElectrons: 214.000000
	SubspaceRotationAdjust: set factor to 0.306
ElecMinimize: Iter:  17  F: -955.125851011940313  |grad|_K:  8.495e-09  alpha:  3.940e-01  linmin: -5.616e-05  t[s]:  20209.59
	FillingsUpdate:  mu: +0.703852928  nElectrons: 214.000000
	SubspaceRotationAdjust: set factor to 0.339
ElecMinimize: Iter:  18  F: -955.125851013974852  |grad|_K:  4.487e-09  alpha:  4.322e-01  linmin: -4.678e-05  t[s]:  20331.88
ElecMinimize: Converged (|Delta F|<1.000000e-08 for 2 iters).
Setting wave functions to eigenvectors of Hamiltonian

# Ionic positions in cartesian coordinates:
ion Ta  -0.115673550971399  -0.222594542818980   0.006272005320773 1
ion Ta   3.180123842405568   3.125916187020187   3.509171399435000 1
ion Ta  -0.104239347960791   0.011995217956691   6.238760092876139 1
ion Ta   3.194862968793086   3.124525301855376   8.956011810271379 1
ion Ta  -0.101989425200875   6.444153466101478   0.007482516502122 1
ion Ta   3.173923540163681   9.356700611264996   3.095159364289926 1
ion Ta  -0.103940706404216   6.231485848480773   6.237693561244352 1
ion Ta   3.178089063597961   9.356979877938395   9.386431442667009 1
ion Ta   6.404971880320164  -0.081232628499614   0.003852353811583 1
ion Ta   9.142987259794356   3.122615908207419   3.194524318291600 1
ion Ta   6.271680001717696  -0.102260014211602   6.237155205844045 1
ion Ta   9.157762451392735   3.122806581471950   9.289977452421606 1
ion Ta   6.407263983455237   6.328124806550571   0.003713817817055 1
ion Ta   9.307327915411179   9.353905369596193   3.179327052030593 1
ion Ta   6.276401653585995   6.351116886782836   6.237516558158700 1
ion Ta   9.317656248056252   9.352197466540600   9.300144269340088 1
ion O   1.814865221843373   3.093660655762726  -0.022144220321970 1

# Forces in Cartesian coordinates:
force Ta   0.000465517228968   0.006512412812063   0.000025404327867 1
force Ta  -0.003162055406765  -0.000392893979929  -0.001577332853431 1
force Ta   0.003773412503942  -0.000785112626887  -0.000077100085372 1
force Ta  -0.003337152357709  -0.000205769409854  -0.000550657598244 1
force Ta  -0.000034219609747  -0.006437741597910  -0.000095582134120 1
force Ta  -0.006005495654058  -0.000183093835623  -0.000355048084911 1
force Ta   0.003879095567300   0.000394808997078   0.000053342966703 1
force Ta  -0.006006650760631  -0.000251854062862  -0.000402779865894 1
force Ta  -0.008890984710629  -0.001732601408807  -0.000232399944719 1
force Ta   0.008577438705813  -0.000184056863298  -0.000255387173955 1
force Ta   0.001126973958724   0.001256043733069   0.000272965673830 1
force Ta   0.006993466580109  -0.000211746840037  -0.000643739042393 1
force Ta  -0.008583444277240   0.001436963093943  -0.000191643221624 1
force Ta  -0.001252626608042   0.000117536268654  -0.002818329071437 1
force Ta   0.000992350103509  -0.001535621647772   0.000244437852653 1
[...]
	FillingsUpdate:  mu: +0.702927922  nElectrons: 214.000000
	SubspaceRotationAdjust: set factor to 0.425
ElecMinimize: Iter:   2  F: -955.144425196433644  |grad|_K:  1.029e-05  alpha:  6.305e-01  linmin: -5.920e-05  t[s]:  51930.24
	FillingsUpdate:  mu: +0.702818724  nElectrons: 214.000000
	SubspaceRotationAdjust: set factor to 0.513
ElecMinimize: Iter:   3  F: -955.149571898448244  |grad|_K:  7.778e-06  alpha:  7.577e-01  linmin:  2.953e-05  t[s]:  52054.63
	FillingsUpdate:  mu: +0.702891356  nElectrons: 214.000000
	SubspaceRotationAdjust: set factor to 0.499
ElecMinimize: Iter:   4  F: -955.151391052432587  |grad|_K:  3.786e-06  alpha:  4.707e-01  linmin:  5.004e-06  t[s]:  52179.35
	FillingsUpdate:  mu: +0.702837572  nElectrons: 214.000000
	SubspaceRotationAdjust: set factor to 0.422
ElecMinimize: Iter:   5  F: -955.151794362444889  |grad|_K:  2.060e-06  alpha:  4.394e-01  linmin:  4.342e-06  t[s]:  52302.99
	FillingsUpdate:  mu: +0.702870943  nElectrons: 214.000000
	SubspaceRotationAdjust: set factor to 0.31
ElecMinimize: Iter:   6  F: -955.151888523034245  |grad|_K:  1.075e-06  alpha:  3.465e-01  linmin: -5.449e-06  t[s]:  52427.85
	FillingsUpdate:  mu: +0.702863167  nElectrons: 214.000000
	SubspaceRotationAdjust: set factor to 0.37
ElecMinimize: Iter:   7  F: -955.151921910884539  |grad|_K:  5.559e-07  alpha:  4.512e-01  linmin: -1.298e-06  t[s]:  52549.87
	FillingsUpdate:  mu: +0.702858888  nElectrons: 214.000000
	SubspaceRotationAdjust: set factor to 0.505
ElecMinimize: Iter:   8  F: -955.151931737287896  |grad|_K:  3.646e-07  alpha:  4.966e-01  linmin:  9.504e-07  t[s]:  52671.37
	FillingsUpdate:  mu: +0.702862927  nElectrons: 214.000000
	SubspaceRotationAdjust: set factor to 0.573
ElecMinimize: Iter:   9  F: -955.151936000388787  |grad|_K:  2.733e-07  alpha:  5.008e-01  linmin: -2.927e-07  t[s]:  52790.58
	FillingsUpdate:  mu: +0.702860954  nElectrons: 214.000000
	SubspaceRotationAdjust: set factor to 0.517
ElecMinimize: Iter:  10  F: -955.151938005810507  |grad|_K:  1.755e-07  alpha:  4.194e-01  linmin:  6.166e-08  t[s]:  52914.90
	FillingsUpdate:  mu: +0.702860398  nElectrons: 214.000000
	SubspaceRotationAdjust: set factor to 0.398
ElecMinimize: Iter:  11  F: -955.151938726580852  |grad|_K:  1.022e-07  alpha:  3.654e-01  linmin:  1.130e-06  t[s]:  53036.53
	FillingsUpdate:  mu: +0.702860970  nElectrons: 214.000000
	SubspaceRotationAdjust: set factor to 0.344
ElecMinimize: Iter:  12  F: -955.151938979866486  |grad|_K:  5.413e-08  alpha:  3.785e-01  linmin: -4.230e-06  t[s]:  53156.72
	FillingsUpdate:  mu: +0.702860614  nElectrons: 214.000000
	SubspaceRotationAdjust: set factor to 0.405
ElecMinimize: Iter:  13  F: -955.151939057156937  |grad|_K:  2.813e-08  alpha:  4.119e-01  linmin: -2.101e-05  t[s]:  53276.91
	FillingsUpdate:  mu: +0.702860623  nElectrons: 214.000000
	SubspaceRotationAdjust: set factor to 0.493
ElecMinimize: Iter:  14  F: -955.151939079626459  |grad|_K:  1.730e-08  alpha:  4.428e-01  linmin:  9.469e-05  t[s]:  53397.24
	FillingsUpdate:  mu: +0.702860754  nElectrons: 214.000000
	SubspaceRotationAdjust: set factor to 0.579
ElecMinimize: Iter:  15  F: -955.151939088681161  |grad|_K:  1.155e-08  alpha:  4.747e-01  linmin: -7.468e-05  t[s]:  53519.22
	FillingsUpdate:  mu: +0.702860684  nElectrons: 214.000000
	SubspaceRotationAdjust: set factor to 0.613
ElecMinimize: Iter:  16  F: -955.151939092260591  |grad|_K:  8.087e-09  alpha:  4.223e-01  linmin:  2.660e-05  t[s]:  53642.00
ElecMinimize: Converged (|Delta F|<1.000000e-08 for 2 iters).
Setting wave functions to eigenvectors of Hamiltonian

# Ionic positions in cartesian coordinates:
ion Ta  -0.072457265505552   0.017674796986927   0.001972118663703 1
ion Ta   3.018205331695192   3.124823562375114   3.680688262114490 1
ion Ta  -0.194872649285645  -0.102449692439432   6.237535885539345 1
ion Ta   3.016092487452260   3.124674494723293   8.795619305049817 1
ion Ta  -0.084177755882495   6.227796015369682   0.001795649294334 1
ion Ta   3.023116493411540   9.354512502301302   3.126267000638052 1
ion Ta  -0.200258826719870   6.349533619371164   6.237881432804255 1
ion Ta   3.022895158554380   9.354827227109787   9.348593615038720 1
ion Ta   6.133290563017028   0.006344136864726   0.001124486547296 1
ion Ta   9.268600323192929   3.119632757383876   3.131526738877978 1
ion Ta   6.247027708072290  -0.098418421731085   6.237967062103545 1
ion Ta   9.267631376415506   3.119473654599267   9.343506675306481 1
ion Ta   6.125646222940672   6.220553237888733   0.001133762250648 1
ion Ta   9.263919744834364   9.355575393469774   3.026200896713600 1
ion Ta   6.246966914476952   6.341091772847886   6.238139395549835 1
ion Ta   9.263964706457564   9.355921969187161   9.449953003421102 1
ion O   3.056482466872885   3.098529973691818   0.001143710086797 1

# Forces in Cartesian coordinates:
force Ta  -0.000289608847049  -0.000067544446514  -0.000013511063925 1
force Ta   0.000735920332489  -0.000285273959955   0.001430965513248 1
force Ta  -0.000370169620286  -0.000097622736080   0.000003039971708 1
force Ta   0.000917043977228  -0.000306573891422  -0.001884478429079 1
force Ta   0.000520616640289  -0.000407043580575  -0.000006038456088 1
force Ta   0.000539273146361  -0.000005650219360   0.000390233813133 1
force Ta  -0.000050297489833  -0.000324172384021  -0.000016436532034 1
force Ta   0.000469725737923  -0.000003800663696  -0.000295717005944 1
force Ta  -0.000396947427821   0.001380636447566   0.000075446420090 1
force Ta  -0.000719843238120  -0.000045429090815  -0.000383730514674 1
force Ta  -0.000091616940815  -0.000234186152086  -0.000032020565183 1
force Ta  -0.000536520231531  -0.000034875181013   0.000465286908072 1
force Ta   0.000435191421109  -0.000250880073145   0.000060141281687 1
force Ta  -0.000235205841327  -0.000024863400168  -0.000001002072138 1
force Ta   0.000050447281364   0.000166458708825  -0.000024392837224 1
force Ta  -0.000259021558070  -0.000057410354286  -0.000093139865736 1
force O  -0.000857380682660   0.000583360497989   0.000366746276435 1

# Energy components:
   Eewald =     -806.5727023318985403
       EH =      116.1041399144139348
     Eloc =     -174.4296922364496254
      Enl =     -277.9642256299961787
      Exc =     -342.1238790631362008
 Exc_core =      196.0818273672099394
       KE =      333.7771409511562979
-------------------------------------
     Etot =     -955.1273910287002309
       TS =        0.0245480635604078
-------------------------------------
        F =     -955.1519390922605908

IonicMinimize: Iter:  23  F: -955.151939092260591  |grad|_K:  5.169e-04  alpha:  1.000e+00  linmin: -1.234e-01  t[s]:  53661.82

#--- Lowdin population analysis ---
# oxidation-state Ta +0.066 +0.049 -0.018 +0.049 +0.064 +0.013 -0.019 +0.013 +0.067 +0.014 -0.015 +0.014 +0.067 -0.025 -0.016 -0.025
# oxidation-state O -0.189


-------- Electronic minimization -----------
	FillingsUpdate:  mu: +0.703017263  nElectrons: 214.000000
ElecMinimize: Iter:   0  F: -955.140330666247337  |grad|_K:  2.107e-05  alpha:  1.000e+00
	FillingsUpdate:  mu: +0.702944678  nElectrons: 214.000000
	SubspaceRotationAdjust: set factor to 0.361
ElecMinimize: Iter:   1  F: -955.148973253175541  |grad|_K:  1.173e-05  alpha:  3.041e-01  linmin:  1.798e-05  t[s]:  53871.18
	FillingsUpdate:  mu: +0.702853130  nElectrons: 214.000000
	SubspaceRotationAdjust: set factor to 0.349
ElecMinimize: Iter:   2  F: -955.150980666821738  |grad|_K:  3.828e-06  alpha:  2.279e-01  linmin:  2.374e-08  t[s]:  53995.31
	FillingsUpdate:  mu: +0.702878652  nElectrons: 214.000000
	SubspaceRotationAdjust: set factor to 0.398
ElecMinimize: Iter:   3  F: -955.151568023665391  |grad|_K:  2.694e-06  alpha:  6.258e-01  linmin: -4.222e-06  t[s]:  54116.69
	FillingsUpdate:  mu: +0.702856258  nElectrons: 214.000000
	SubspaceRotationAdjust: set factor to 0.371
ElecMinimize: Iter:   4  F: -955.151845551943779  |grad|_K:  1.956e-06  alpha:  5.971e-01  linmin: -2.288e-06  t[s]:  54236.62
	FillingsUpdate:  mu: +0.702856445  nElectrons: 214.000000
	SubspaceRotationAdjust: set factor to 0.291
ElecMinimize: Iter:   5  F: -955.151949050985763  |grad|_K:  9.773e-07  alpha:  4.223e-01  linmin:  7.944e-07  t[s]:  54355.44
	FillingsUpdate:  mu: +0.702862312  nElectrons: 214.000000
	SubspaceRotationAdjust: set factor to 0.37
ElecMinimize: Iter:   6  F: -955.151977581128904  |grad|_K:  4.749e-07  alpha:  4.665e-01  linmin: -1.369e-06  t[s]:  54474.70
	FillingsUpdate:  mu: +0.702857297  nElectrons: 214.000000
	SubspaceRotationAdjust: set factor to 0.478
ElecMinimize: Iter:   7  F: -955.151984386844788  |grad|_K:  2.707e-07  alpha:  4.712e-01  linmin: -6.796e-07  t[s]:  54593.50
	FillingsUpdate:  mu: +0.702857011  nElectrons: 214.000000
	SubspaceRotationAdjust: set factor to 0.515
ElecMinimize: Iter:   8  F: -955.151986812934183  |grad|_K:  1.876e-07  alpha:  5.171e-01  linmin:  1.156e-06  t[s]:  54717.25
	FillingsUpdate:  mu: +0.702858763  nElectrons: 214.000000
	SubspaceRotationAdjust: set factor to 0.503
ElecMinimize: Iter:   9  F: -955.151987915256768  |grad|_K:  1.349e-07  alpha:  4.893e-01  linmin: -4.832e-07  t[s]:  54835.78
	FillingsUpdate:  mu: +0.702856703  nElectrons: 214.000000
	SubspaceRotationAdjust: set factor to 0.412
ElecMinimize: Iter:  10  F: -955.151988386629682  |grad|_K:  7.829e-08  alpha:  4.044e-01  linmin: -8.930e-07  t[s]:  54953.12
	FillingsUpdate:  mu: +0.702857911  nElectrons: 214.000000
	SubspaceRotationAdjust: set factor to 0.357
ElecMinimize: Iter:  11  F: -955.151988545928020  |grad|_K:  4.032e-08  alpha:  4.058e-01  linmin:  1.645e-05  t[s]:  55071.17
	FillingsUpdate:  mu: +0.702857657  nElectrons: 214.000000
	SubspaceRotationAdjust: set factor to 0.395
ElecMinimize: Iter:  12  F: -955.151988591913891  |grad|_K:  2.071e-08  alpha:  4.417e-01  linmin: -1.646e-05  t[s]:  55194.74
	FillingsUpdate:  mu: +0.702857548  nElectrons: 214.000000
	SubspaceRotationAdjust: set factor to 0.453
ElecMinimize: Iter:  13  F: -955.151988604589860  |grad|_K:  1.125e-08  alpha:  4.591e-01  linmin: -1.131e-04  t[s]:  55312.76
	FillingsUpdate:  mu: +0.702857718  nElectrons: 214.000000
	SubspaceRotationAdjust: set factor to 0.566
ElecMinimize: Iter:  14  F: -955.151988608366537  |grad|_K:  6.579e-09  alpha:  4.550e-01  linmin: -1.012e-04  t[s]:  55431.93
	FillingsUpdate:  mu: +0.702857638  nElectrons: 214.000000
	SubspaceRotationAdjust: set factor to 0.659
ElecMinimize: Iter:  15  F: -955.151988609682576  |grad|_K:  4.192e-09  alpha:  4.523e-01  linmin: -4.951e-04  t[s]:  55552.44
ElecMinimize: Converged (|Delta F|<1.000000e-08 for 2 iters).
Setting wave functions to eigenvectors of Hamiltonian

# Ionic positions in cartesian coordinates:
ion Ta  -0.074936343576959   0.016362180526346   0.001900740815315 1
ion Ta   3.024887685262135   3.122276961554580   3.683176389786908 1
ion Ta  -0.194899134079447  -0.101737969261825   6.237444735510551 1
ion Ta   3.023915215067290   3.121919323549988   8.792159785519107 1
ion Ta  -0.079900981730926   6.224627669516442   0.001746204482737 1
ion Ta   3.027175952865741   9.354551006517481   3.128179477945887 1
ion Ta  -0.197049216077585   6.344611737677590   6.237650154631039 1
ion Ta   3.026498258666976   9.354889948234799   9.347205411012448 1
ion Ta   6.130932083484709   0.015527624963637   0.001576024081832 1
ion Ta   9.264106905212389   3.119254305015986   3.129182776474838 1
ion Ta   6.247676421507890  -0.100735348757347   6.237746963080446 1
ion Ta   9.264310653827666   3.119163185347423   9.346314859630217 1
ion Ta   6.129770742953597   6.220082229918496   0.001472698073401 1
ion Ta   9.262190736037086   9.355532767827544   3.027375909286575 1
ion Ta   6.248242539027290   6.342234243046295   6.237987786189787 1
ion Ta   9.261778386584957   9.355678246891449   9.448099212867614 1
ion O   3.037373094967193   3.105858887431112   0.001829870611294 1

# Forces in Cartesian coordinates:
force Ta   0.000034506700062   0.000006363526218  -0.000019920572676 1
force Ta   0.000124002050787  -0.000100281047069   0.000484685298064 1
force Ta  -0.000302905448830  -0.000309408260854   0.000017435431073 1
force Ta   0.000172513802671  -0.000101915680100  -0.000360304047443 1
force Ta   0.000373247876317  -0.000192786370930  -0.000015605740028 1
force Ta  -0.000004723932832   0.000028395304229   0.000068791567646 1
force Ta  -0.000200491895237   0.000043732862745   0.000015322298198 1
force Ta   0.000026097276558   0.000024612206422  -0.000056607719271 1
force Ta  -0.000277797427993   0.000188064802660   0.000005931433105 1
force Ta  -0.000069432784675   0.000022299078117  -0.000005521218837 1
force Ta   0.000181450147253  -0.000285331671373  -0.000003962835496 1
force Ta  -0.000066580045858   0.000020651774970   0.000011079873078 1
force Ta  -0.000082925641065   0.000083338735079   0.000004815586939 1
force Ta   0.000062277518747   0.000001705905195  -0.000242439128915 1
force Ta   0.000205466112787   0.000142436540140  -0.000006543896963 1
force Ta   0.000128212404943  -0.000005797126685   0.000245686926982 1
force O  -0.000359782293930   0.000408227169378  -0.000105079777431 1

# Energy components:
   Eewald =     -806.5637863947024471
       EH =      116.1126651800556147
     Eloc =     -174.4464322817291020
      Enl =     -277.9644609236776205
      Exc =     -342.1236676393289713
 Exc_core =      196.0818277893827428
       KE =      333.7764195759536960
-------------------------------------
     Etot =     -955.1274346940460873
       TS =        0.0245539156365304
-------------------------------------
        F =     -955.1519886096825758

IonicMinimize: Iter:  24  F: -955.151988609682576  |grad|_K:  1.776e-04  alpha:  1.000e+00  linmin: -5.158e-01  t[s]:  55572.60

#--- Lowdin population analysis ---
# oxidation-state Ta +0.066 +0.048 -0.017 +0.048 +0.066 +0.014 -0.018 +0.014 +0.066 +0.014 -0.017 +0.014 +0.066 -0.025 -0.017 -0.025
# oxidation-state O -0.189


-------- Electronic minimization -----------
	FillingsUpdate:  mu: +0.702871715  nElectrons: 214.000000
ElecMinimize: Iter:   0  F: -955.151961957825279  |grad|_K:  7.691e-07  alpha:  1.000e+00
	FillingsUpdate:  mu: +0.702877208  nElectrons: 214.000000
	SubspaceRotationAdjust: set factor to 0.356
ElecMinimize: Iter:   1  F: -955.151979885432979  |grad|_K:  7.965e-07  alpha:  4.734e-01  linmin:  1.807e-05  t[s]:  55791.17
	FillingsUpdate:  mu: +0.702870234  nElectrons: 214.000000
	SubspaceRotationAdjust: set factor to 0.316
ElecMinimize: Iter:   2  F: -955.151991294270601  |grad|_K:  3.589e-07  alpha:  2.809e-01  linmin: -1.035e-06  t[s]:  55913.23
	FillingsUpdate:  mu: +0.702869681  nElectrons: 214.000000
	SubspaceRotationAdjust: set factor to 0.393
ElecMinimize: Iter:   3  F: -955.151996128240739  |grad|_K:  1.952e-07  alpha:  5.860e-01  linmin:  9.654e-07  t[s]:  56036.87
	FillingsUpdate:  mu: +0.702872152  nElectrons: 214.000000
	SubspaceRotationAdjust: set factor to 0.32
ElecMinimize: Iter:   4  F: -955.151997095721867  |grad|_K:  9.859e-08  alpha:  3.965e-01  linmin: -3.265e-06  t[s]:  56158.70
	FillingsUpdate:  mu: +0.702871989  nElectrons: 214.000000
	SubspaceRotationAdjust: set factor to 0.383
ElecMinimize: Iter:   5  F: -955.151997383069897  |grad|_K:  5.025e-08  alpha:  4.616e-01  linmin:  8.868e-06  t[s]:  56283.98
	FillingsUpdate:  mu: +0.702871606  nElectrons: 214.000000
	SubspaceRotationAdjust: set factor to 0.525
ElecMinimize: Iter:   6  F: -955.151997465657587  |grad|_K:  3.121e-08  alpha:  5.113e-01  linmin:  4.849e-06  t[s]:  56406.17
	FillingsUpdate:  mu: +0.702871924  nElectrons: 214.000000
	SubspaceRotationAdjust: set factor to 0.593
ElecMinimize: Iter:   7  F: -955.151997498000583  |grad|_K:  2.306e-08  alpha:  5.199e-01  linmin:  3.199e-05  t[s]:  56528.28
	FillingsUpdate:  mu: +0.702871790  nElectrons: 214.000000
	SubspaceRotationAdjust: set factor to 0.505
ElecMinimize: Iter:   8  F: -955.151997511661648  |grad|_K:  1.461e-08  alpha:  4.014e-01  linmin:  2.967e-05  t[s]:  56650.10
	FillingsUpdate:  mu: +0.702871780  nElectrons: 214.000000
	SubspaceRotationAdjust: set factor to 0.366
ElecMinimize: Iter:   9  F: -955.151997516338952  |grad|_K:  8.154e-09  alpha:  3.424e-01  linmin: -4.989e-05  t[s]:  56771.96
	FillingsUpdate:  mu: +0.702871841  nElectrons: 214.000000
	SubspaceRotationAdjust: set factor to 0.387
ElecMinimize: Iter:  10  F: -955.151997517912264  |grad|_K:  3.584e-09  alpha:  3.589e-01  linmin: -1.329e-04  t[s]:  56894.37
ElecMinimize: Converged (|Delta F|<1.000000e-08 for 2 iters).
Setting wave functions to eigenvectors of Hamiltonian

# Ionic positions in cartesian coordinates:
ion Ta  -0.075178397762783   0.015622917959325   0.001734879380556 1
ion Ta   3.027435691768899   3.120907883284005   3.684824045493914 1
ion Ta  -0.196622067211548  -0.103849575869595   6.237543744218451 1
ion Ta   3.027225534951796   3.120524733452767   8.790821999964782 1
ion Ta  -0.076146031185061   6.223009862315895   0.001616968719115 1
ion Ta   3.027817213628225   9.354866301724417   3.128873316755120 1
ion Ta  -0.197102207896614   6.343408448640504   6.237714035362793 1
ion Ta   3.027329843086450   9.355177123531803   9.346620416138894 1
ion Ta   6.128547165649862   0.018327135339289   0.001685968720822 1
ion Ta   9.262998455118071   3.119375968885701   3.128883428650191 1
ion Ta   6.249953275354153  -0.103761505379524   6.237690195963905 1
ion Ta   9.263314845302544   3.119282645361412   9.346651665110715 1
ion Ta   6.129931208793482   6.220834053174361   0.001548267243228 1
ion Ta   9.262258382666966   9.355617154014089   3.025817589999017 1
ion Ta   6.250602760125131   6.343528296007023   6.237918273890691 1
ion Ta   9.262228584017130   9.355676261423415   9.449478609395294 1
ion O   3.027478743593297   3.111549296135112   0.001625594992508 1

# Forces in Cartesian coordinates:
force Ta   0.000084983101701   0.000186936783077   0.000002996123078 1
force Ta  -0.000082255514473  -0.000075610611652  -0.000014403325795 1
force Ta  -0.000016143924725  -0.000008132058371   0.000013551307702 1
force Ta  -0.000095393218472  -0.000073958729772  -0.000035007859905 1
force Ta   0.000114240144843  -0.000165335089266   0.000002956202221 1
force Ta  -0.000092283124487  -0.000005580130946  -0.000015262874491 1
force Ta  -0.000048914787236   0.000017459696395   0.000013236014661 1
force Ta  -0.000059538803047  -0.000008264685746   0.000011049895345 1
force Ta  -0.000033556900212  -0.000105559846767  -0.000004154246796 1
force Ta   0.000052309940200  -0.000005100224464  -0.000004703921209 1
force Ta   0.000031528187942  -0.000004494065334   0.000000503115674 1
force Ta   0.000037425622225  -0.000006776572938   0.000001014538073 1
force Ta  -0.000103386834059   0.000074215424230   0.000000572555521 1
force Ta   0.000066708007849  -0.000042807661322  -0.000165109126488 1
force Ta   0.000044004973626  -0.000005547390995  -0.000002590413500 1
force Ta   0.000081070244244  -0.000039971861118   0.000191345011035 1
force O  -0.000058173585713   0.000261097543264   0.000043983515983 1

# Energy components:
   Eewald =     -806.5655880135998359
       EH =      116.1106072897331103
     Eloc =     -174.4421225112816956
      Enl =     -277.9644215776345391
      Exc =     -342.1234264669801064
 Exc_core =      196.0818271309012175
       KE =      333.7756822364109439
-------------------------------------
     Etot =     -955.1274419124509905
       TS =        0.0245556054613188
-------------------------------------
        F =     -955.1519975179122639

IonicMinimize: Iter:  25  F: -955.151997517912264  |grad|_K:  7.847e-05  alpha:  1.000e+00  linmin: -3.149e-01  t[s]:  56912.99
IonicMinimize: Converged (|grad|_K<1.000000e-04).

#--- Lowdin population analysis ---
# oxidation-state Ta +0.066 +0.048 -0.017 +0.048 +0.066 +0.014 -0.017 +0.014 +0.066 +0.014 -0.017 +0.014 +0.066 -0.025 -0.018 -0.025
# oxidation-state O -0.189


Dumping 'Ta16.Ecomponents' ... done
End date and time: Mon Jan 29 03:37:18 2024  (Duration: 0-15:48:50.52)
Done!
