--------------------------------------------------------------------------
[[59698,1],4]: A high-performance Open MPI point-to-point messaging module
was unable to find any relevant network interfaces:

Module: OpenFabrics (openib)
  Host: node3224

Another transport will be used instead, although this may result in
lower performance.
--------------------------------------------------------------------------

*************** JDFTx 1.7.0 (git hash 3664913) ***************

Start date and time: Sat Jul 13 23:52:41 2024
Executable jdftx with command-line: -i Cu_tet.in
Running on hosts (process indices):  node3224.physics.cornell.edu (0-15)
Divided in process groups (process indices):  0 (0)  1 (1)  2 (2)  3 (3)  4 (4)  5 (5)  6 (6)  7 (7)  8 (8)  9 (9)  10 (10)  11 (11)  12 (12)  13 (13)  14 (14)  15 (15)
Resource initialization completed at t[s]:      0.01
Run totals: 16 processes, 32 threads, 0 GPUs


Input parsed successfully to the following command list (including defaults):

basis kpoint-dependent
coords-type Lattice
core-overlap-check vector
coulomb-interaction Periodic
davidson-band-ratio 1.1
dump End Ecomponents
dump-name /data/rc652/Cu/tet/Cu_tet.$VAR
elec-cutoff 20 100
elec-eigen-algo Davidson
elec-ex-corr gga-PBEsol
elec-smearing Fermi 0.01
electronic-minimize  \
	dirUpdateScheme      FletcherReeves \
	linminMethod         DirUpdateRecommended \
	nIterations          100 \
	history              15 \
	knormThreshold       0 \
	maxThreshold         no \
	energyDiffThreshold  1e-08 \
	nEnergyDiff          2 \
	alphaTstart          1 \
	alphaTmin            1e-10 \
	updateTestStepSize   yes \
	alphaTreduceFactor   0.1 \
	alphaTincreaseFactor 3 \
	nAlphaAdjustMax      3 \
	wolfeEnergy          0.0001 \
	wolfeGradient        0.9 \
	fdTest               no
electronic-scf  \
	nIterations	50 \
	energyDiffThreshold	1e-08 \
	residualThreshold	1e-07 \
	mixFraction	0.5 \
	qMetric	0.8 \
	history	10 \
	nEigSteps	2 \
	eigDiffThreshold	1e-08 \
	mixedVariable	Density \
	qKerker	0.8 \
	qKappa	-1 \
	verbose	no \
	mixFractionMag	1.5
exchange-regularization WignerSeitzTruncated
fluid None
fluid-ex-corr lda-TF lda-PZ
fluid-gummel-loop 10 1.000000e-05
fluid-minimize  \
	dirUpdateScheme      PolakRibiere \
	linminMethod         DirUpdateRecommended \
	nIterations          100 \
	history              15 \
	knormThreshold       0 \
	maxThreshold         no \
	energyDiffThreshold  0 \
	nEnergyDiff          2 \
	alphaTstart          1 \
	alphaTmin            1e-10 \
	updateTestStepSize   yes \
	alphaTreduceFactor   0.1 \
	alphaTincreaseFactor 3 \
	nAlphaAdjustMax      3 \
	wolfeEnergy          0.0001 \
	wolfeGradient        0.9 \
	fdTest               no
fluid-solvent H2O 55.338 ScalarEOS \
	epsBulk 78.4 \
	pMol 0.92466 \
	epsInf 1.77 \
	Pvap 1.06736e-10 \
	sigmaBulk 4.62e-05 \
	Rvdw 2.61727 \
	Res 1.42 \
	tauNuc 343133 \
	poleEl 15 7 1
forces-output-coords Positions
ion Cu   0.000000000000000   0.000000000000000  -0.000000000000000 0
ion Cu   0.003490000000000  -0.031120000000000   0.348090000000000 1
ion Cu   0.003610000000000   0.012370000000000   0.667060000000000 1
ion Cu   0.004390000000000   0.346990000000000  -0.004730000000000 1
ion Cu  -0.005170000000000   0.346600000000000   0.335690000000000 1
ion Cu   0.000260000000000   0.349640000000000   0.667670000000000 1
ion Cu  -0.005490000000000   0.674080000000000   0.004190000000000 1
ion Cu   0.001620000000000   0.661800000000000   0.331280000000000 1
ion Cu  -0.015090000000000   0.659810000000000   0.664490000000000 1
ion Cu   0.315960000000000   0.007120000000000  -0.000600000000000 1
ion Cu   0.328800000000000  -0.007540000000000   0.327560000000000 1
ion Cu   0.326740000000000  -0.005490000000000   0.663530000000000 1
ion Cu   0.344990000000000   0.332550000000000  -0.022640000000000 1
ion Cu   0.328060000000000   0.332060000000000   0.331620000000000 1
ion Cu   0.345720000000000   0.335790000000000   0.658800000000000 1
ion Cu   0.325470000000000   0.664560000000000  -0.023490000000000 1
ion Cu   0.320200000000000   0.660610000000000   0.321460000000000 1
ion Cu   0.342350000000000   0.651710000000000   0.657010000000000 1
ion Cu   0.675510000000000   0.003950000000000   0.015280000000000 1
ion Cu   0.672770000000000   0.001450000000000   0.338100000000000 1
ion Cu   0.660260000000000   0.025110000000000   0.669940000000000 1
ion Cu   0.636010000000000   0.330900000000000  -0.011280000000000 1
ion Cu   0.667990000000000   0.346530000000000   0.340290000000000 1
ion Cu   0.662000000000000   0.330330000000000   0.658380000000000 1
ion Cu   0.655180000000000   0.675420000000000   0.005990000000000 1
ion Cu   0.665900000000000   0.663290000000000   0.347950000000000 1
ion Cu   0.673980000000000   0.678040000000000   0.674400000000000 1
ion O   0.064770000000000   0.072960000000000   0.095050000000000 1
ion-species GBRV/$ID_pbesol.uspp
ion-width 0
ionic-minimize  \
	dirUpdateScheme      L-BFGS \
	linminMethod         DirUpdateRecommended \
	nIterations          30 \
	history              15 \
	knormThreshold       0.0001 \
	maxThreshold         no \
	energyDiffThreshold  1e-06 \
	nEnergyDiff          2 \
	alphaTstart          1 \
	alphaTmin            1e-10 \
	updateTestStepSize   yes \
	alphaTreduceFactor   0.1 \
	alphaTincreaseFactor 3 \
	nAlphaAdjustMax      3 \
	wolfeEnergy          0.0001 \
	wolfeGradient        0.9 \
	fdTest               no
kpoint   0.500000000000   0.500000000000   0.500000000000  1.00000000000000
kpoint-folding 3 3 3 
latt-move-scale 1 1 1
latt-scale 1 1 1 
lattice  \
	  -0.000000000000000   10.115784120687186   10.115784120687186  \
	  10.115784120687186    0.000000000000000   10.115784120687186  \
	  10.115784120687186   10.115784120687186    0.000000000000000 
lattice-minimize  \
	dirUpdateScheme      L-BFGS \
	linminMethod         DirUpdateRecommended \
	nIterations          0 \
	history              15 \
	knormThreshold       0 \
	maxThreshold         no \
	energyDiffThreshold  1e-06 \
	nEnergyDiff          2 \
	alphaTstart          1 \
	alphaTmin            1e-10 \
	updateTestStepSize   yes \
	alphaTreduceFactor   0.1 \
	alphaTincreaseFactor 3 \
	nAlphaAdjustMax      3 \
	wolfeEnergy          0.0001 \
	wolfeGradient        0.9 \
	fdTest               no
lcao-params -1 1e-06 0.01
pcm-variant GLSSA13
perturb-minimize  \
	nIterations            0 \
	algorithm              MINRES \
	residualTol            0.0001 \
	residualDiffThreshold  0.0001 \
	CGBypass               no \
	recomputeResidual      no
spintype no-spin
subspace-rotation-factor 1 yes
symmetries automatic
symmetry-threshold 0.0001



---------- Setting up symmetries ----------

Found 48 point-group symmetries of the bravais lattice
Found 1 space-group symmetries with basis
Applied RMS atom displacement 0 bohrs to make symmetries exact.

---------- Initializing the Grid ----------
R = 
[            0      10.1158      10.1158  ]
[      10.1158            0      10.1158  ]
[      10.1158      10.1158            0  ]
unit cell volume = 2070.28
G =
[  -0.310563   0.310563   0.310563  ]
[   0.310563  -0.310563   0.310563  ]
[   0.310563   0.310563  -0.310563  ]
Minimum fftbox size, Smin = [  68  68  68  ]
Chosen fftbox size, S = [  70  70  70  ]

---------- Initializing tighter grid for wavefunction operations ----------
R = 
[            0      10.1158      10.1158  ]
[      10.1158            0      10.1158  ]
[      10.1158      10.1158            0  ]
unit cell volume = 2070.28
G =
[  -0.310563   0.310563   0.310563  ]
[   0.310563  -0.310563   0.310563  ]
[   0.310563   0.310563  -0.310563  ]
Minimum fftbox size, Smin = [  60  60  60  ]
Chosen fftbox size, S = [  60  60  60  ]

---------- Exchange Correlation functional ----------
Initalized PBEsol GGA exchange.
Initalized PBEsol GGA correlation.

---------- Setting up pseudopotentials ----------
Width of ionic core gaussian charges (only for fluid interactions / plotting) set to 0

Reading pseudopotential file '/home/rc652/build/pseudopotentials/GBRV/cu_pbesol.uspp':
  Title: Cu.  Created by USPP 7.3.6 on 3-2-2014
  Reference state energy: -200.900738.  19 valence electrons in orbitals:
    |300>  occupation: 2  eigenvalue: -5.009920
    |310>  occupation: 6  eigenvalue: -3.440538
    |320>  occupation: 8  eigenvalue: -0.926387
    |400>  occupation: 2  eigenvalue: -0.568765
    |410>  occupation: 0  eigenvalue: -0.325798
  lMax: 2  lLocal: 3  QijEcut: 6
  6 projectors sampled on a log grid with 613 points:
    l: 0  eig: -5.009920  rCut: 1.4
    l: 0  eig: -0.568765  rCut: 1.4
    l: 1  eig: -3.440538  rCut: 1.55
    l: 1  eig: -0.325798  rCut: 1.55
    l: 2  eig: -0.926387  rCut: 1.5
    l: 2  eig: 1.500000  rCut: 1.5
  Partial core density with radius 0.8
  Transforming core density to a uniform radial grid of dG=0.02 with 1808 points.
  Transforming local potential to a uniform radial grid of dG=0.02 with 1808 points.
  Transforming nonlocal projectors to a uniform radial grid of dG=0.02 with 432 points.
  Transforming density augmentations to a uniform radial grid of dG=0.02 with 1808 points.
  Transforming atomic orbitals to a uniform radial grid of dG=0.02 with 432 points.
  Core radius for overlap checks: 1.55 bohrs.

Reading pseudopotential file '/home/rc652/build/pseudopotentials/GBRV/o_pbesol.uspp':
  Title: O.  Created by USPP 7.3.6 on 3-2-2014
  Reference state energy: -15.849885.  6 valence electrons in orbitals:
    |200>  occupation: 2  eigenvalue: -0.873214
    |210>  occupation: 4  eigenvalue: -0.330058
  lMax: 2  lLocal: 2  QijEcut: 6
  5 projectors sampled on a log grid with 511 points:
    l: 0  eig: -0.873214  rCut: 1.25
    l: 0  eig: 0.000000  rCut: 1.25
    l: 1  eig: -0.330058  rCut: 1.25
    l: 1  eig: 0.000000  rCut: 1.25
    l: 2  eig: 1.000000  rCut: 1.25
  Partial core density with radius 0.7
  Transforming core density to a uniform radial grid of dG=0.02 with 1808 points.
  Transforming local potential to a uniform radial grid of dG=0.02 with 1808 points.
  Transforming nonlocal projectors to a uniform radial grid of dG=0.02 with 432 points.
  Transforming density augmentations to a uniform radial grid of dG=0.02 with 1808 points.
  Transforming atomic orbitals to a uniform radial grid of dG=0.02 with 432 points.
  Core radius for overlap checks: 1.25 bohrs.

Initialized 2 species with 28 total atoms.

Folded 1 k-points by 3x3x3 to 27 k-points.

---------- Setting up k-points, bands, fillings ----------
Adding inversion symmetry to k-mesh for non-inversion-symmetric unit cell.
Reduced to 14 k-points under symmetry. 
Computing the number of bands and number of electrons
Calculating initial fillings.
nElectrons: 519.000000   nBands: 355   nStates: 14

----- Setting up reduced wavefunction bases (one per k-point) -----
average nbasis = 8844.815 , ideal nbasis = 8844.385

---------- Setting up ewald sum ----------
Optimum gaussian width for ewald sums = 2.959435 bohr.
Real space sum over 729 unit cells with max indices [  4  4  4  ]
Reciprocal space sum over 6859 terms with max indices [  9  9  9  ]

---------- Allocating electronic variables ----------
Initializing wave functions:  linear combination of atomic orbitals
Cu pseudo-atom occupations:   s ( 2 1 )  p ( 6 0 )  d ( 10 )
O pseudo-atom occupations:   s ( 2 )  p ( 4 )
	FillingsUpdate:  mu: +0.510265071  nElectrons: 519.000000
LCAOMinimize: Iter:   0  F: -5382.7038729644673367  |grad|_K:  1.677e-02  alpha:  1.000e+00
	FillingsUpdate:  mu: +1.417154493  nElectrons: 519.000000
LCAOMinimize: Iter:   1  F: -5435.8488497326879951  |grad|_K:  7.368e-03  alpha:  5.274e-01  linmin:  1.523e-01  cgtest: -1.597e+00  t[s]:     32.36
	FillingsUpdate:  mu: +1.371029360  nElectrons: 519.000000
LCAOMinimize: Iter:   2  F: -5438.1865544046750074  |grad|_K:  4.826e-03  alpha:  1.375e-01  linmin:  2.007e-02  cgtest:  9.367e-01  t[s]:     44.55
LCAOMinimize: Encountered beta<0, resetting CG.
LCAOMinimize: 	Wrong curvature in test step, increasing alphaT to 4.126353e-01.
	FillingsUpdate:  mu: +1.282502653  nElectrons: 519.000000
LCAOMinimize: Iter:   3  F: -5444.0853127557738844  |grad|_K:  4.494e-03  alpha: -1.821e+00  linmin: -2.045e-01  cgtest:  7.457e-01  t[s]:     56.52
	FillingsUpdate:  mu: +1.196498790  nElectrons: 519.000000
LCAOMinimize: Iter:   4  F: -5448.5714492435972716  |grad|_K:  4.372e-03  alpha:  9.276e-02  linmin: -2.332e-01  cgtest:  7.985e-01  t[s]:     69.43
LCAOMinimize: 	Wrong curvature in test step, increasing alphaT to 2.782679e-01.
	FillingsUpdate:  mu: +1.088735588  nElectrons: 519.000000
LCAOMinimize: Iter:   5  F: -5452.7470931585403378  |grad|_K:  3.825e-03  alpha: -9.451e-01  linmin: -2.733e-01  cgtest:  8.158e-01  t[s]:     81.51
	FillingsUpdate:  mu: +0.917028673  nElectrons: 519.000000
LCAOMinimize: Iter:   6  F: -5456.3492427792061790  |grad|_K:  2.401e-03  alpha:  1.407e-01  linmin: -3.458e-01  cgtest:  8.648e-01  t[s]:     94.52
LCAOMinimize: Encountered beta<0, resetting CG.
	FillingsUpdate:  mu: +0.755593052  nElectrons: 519.000000
LCAOMinimize: Iter:   7  F: -5457.8248502837914202  |grad|_K:  1.501e-03  alpha:  3.337e-01  linmin:  1.182e-01  cgtest: -2.077e-01  t[s]:    108.14
	FillingsUpdate:  mu: +0.706234094  nElectrons: 519.000000
LCAOMinimize: Iter:   8  F: -5457.9022027784121747  |grad|_K:  6.430e-04  alpha:  5.091e-02  linmin: -5.632e-02  cgtest:  8.034e-01  t[s]:    121.09
LCAOMinimize: Encountered beta<0, resetting CG.
	FillingsUpdate:  mu: +0.704715730  nElectrons: 519.000000
LCAOMinimize: Iter:   9  F: -5457.9375196899945877  |grad|_K:  3.528e-04  alpha:  9.639e-02  linmin:  2.093e-03  cgtest:  1.074e-02  t[s]:    133.93
	FillingsUpdate:  mu: +0.720727352  nElectrons: 519.000000
LCAOMinimize: Iter:  10  F: -5457.9585296136565375  |grad|_K:  1.721e-04  alpha:  1.889e-01  linmin: -9.840e-03  cgtest:  6.073e-03  t[s]:    147.53
	FillingsUpdate:  mu: +0.721419324  nElectrons: 519.000000
LCAOMinimize: Iter:  11  F: -5457.9602860066497669  |grad|_K:  3.258e-05  alpha:  6.726e-02  linmin:  2.828e-02  cgtest: -1.754e-01  t[s]:    162.23
	FillingsUpdate:  mu: +0.721723864  nElectrons: 519.000000
LCAOMinimize: Iter:  12  F: -5457.9603849717759658  |grad|_K:  2.448e-05  alpha:  1.089e-01  linmin:  6.860e-04  cgtest:  5.516e-02  t[s]:    176.48
	FillingsUpdate:  mu: +0.722097642  nElectrons: 519.000000
LCAOMinimize: Iter:  13  F: -5457.9605023899712251  |grad|_K:  2.088e-05  alpha:  2.213e-01  linmin:  2.850e-04  cgtest: -3.720e-02  t[s]:    190.39
	FillingsUpdate:  mu: +0.722098628  nElectrons: 519.000000
LCAOMinimize: Iter:  14  F: -5457.9605409656569464  |grad|_K:  1.175e-05  alpha:  9.975e-02  linmin: -2.876e-04  cgtest:  6.145e-03  t[s]:    204.37
	FillingsUpdate:  mu: +0.721946925  nElectrons: 519.000000
LCAOMinimize: Iter:  15  F: -5457.9605585791359772  |grad|_K:  1.056e-05  alpha:  1.437e-01  linmin:  4.507e-04  cgtest: -2.107e-03  t[s]:    219.31
	FillingsUpdate:  mu: +0.721730319  nElectrons: 519.000000
LCAOMinimize: Iter:  16  F: -5457.9605729966970102  |grad|_K:  5.156e-06  alpha:  1.459e-01  linmin:  1.249e-04  cgtest:  6.099e-03  t[s]:    234.12
	FillingsUpdate:  mu: +0.721704960  nElectrons: 519.000000
LCAOMinimize: Iter:  17  F: -5457.9605748256690276  |grad|_K:  2.052e-06  alpha:  7.753e-02  linmin: -1.267e-04  cgtest:  1.473e-03  t[s]:    248.98
	FillingsUpdate:  mu: +0.721711894  nElectrons: 519.000000
LCAOMinimize: Iter:  18  F: -5457.9605753428486423  |grad|_K:  1.908e-06  alpha:  1.383e-01  linmin: -7.680e-05  cgtest:  1.612e-04  t[s]:    263.46
	FillingsUpdate:  mu: +0.721733403  nElectrons: 519.000000
LCAOMinimize: Iter:  19  F: -5457.9605759217811283  |grad|_K:  1.375e-06  alpha:  1.792e-01  linmin: -1.241e-04  cgtest:  1.519e-04  t[s]:    277.97
LCAOMinimize: Converged (|Delta F|<1.000000e-06 for 2 iters).


---- Citations for features of the code used in this run ----

   Software package:
      R. Sundararaman, K. Letchworth-Weaver, K.A. Schwarz, D. Gunceler, Y. Ozhabes and T.A. Arias, 'JDFTx: software for joint density-functional theory', SoftwareX 6, 278 (2017)

   gga-PBEsol exchange-correlation functional:
      J.P. Perdew et al., Phys. Rev. Lett. 100, 136406 (2008)

   Pseudopotentials:
      KF Garrity, JW Bennett, KM Rabe and D Vanderbilt, Comput. Mater. Sci. 81, 446 (2014)

This list may not be complete. Please suggest additional citations or
report any other bugs at https://github.com/shankar1729/jdftx/issues

Initialization completed successfully at t[s]:    281.70


-------- Electronic minimization -----------
Will mix electronic density at each iteration.
	FillingsUpdate:  mu: +0.721733403  nElectrons: 519.000000
	FillingsUpdate:  mu: +0.710504197  nElectrons: 519.000000
SCF: Cycle:  0   F: -5454.886455656204816   dF: +3.074e+00   |Residual|: 3.281e+00   |deigs|: 4.532e-02  t[s]:    332.45
	FillingsUpdate:  mu: +0.579820940  nElectrons: 519.000000
SCF: Cycle:  1   F: -5455.825625254225088   dF: -9.392e-01   |Residual|: 2.816e+00   |deigs|: 1.947e-01  t[s]:    372.89
	FillingsUpdate:  mu: +0.628198133  nElectrons: 519.000000
SCF: Cycle:  2   F: -5461.883375498161513   dF: -6.058e+00   |Residual|: 1.784e-01   |deigs|: 1.012e-01  t[s]:    412.84
	FillingsUpdate:  mu: +0.636434517  nElectrons: 519.000000
SCF: Cycle:  3   F: -5461.803576940343191   dF: +7.980e-02   |Residual|: 3.227e-01   |deigs|: 1.214e-02  t[s]:    452.91
	FillingsUpdate:  mu: +0.635014425  nElectrons: 519.000000
SCF: Cycle:  4   F: -5461.867738960905626   dF: -6.416e-02   |Residual|: 1.868e-01   |deigs|: 4.873e-03  t[s]:    493.62
	FillingsUpdate:  mu: +0.630739037  nElectrons: 519.000000
SCF: Cycle:  5   F: -5461.894534566221409   dF: -2.680e-02   |Residual|: 3.534e-02   |deigs|: 5.511e-03  t[s]:    534.85
	FillingsUpdate:  mu: +0.630494900  nElectrons: 519.000000
SCF: Cycle:  6   F: -5461.895208357884258   dF: -6.738e-04   |Residual|: 3.226e-02   |deigs|: 9.677e-04  t[s]:    560.69
	FillingsUpdate:  mu: +0.631270918  nElectrons: 519.000000
SCF: Cycle:  7   F: -5461.896186580220274   dF: -9.782e-04   |Residual|: 3.862e-03   |deigs|: 1.133e-03  t[s]:    586.32
	FillingsUpdate:  mu: +0.631310737  nElectrons: 519.000000
SCF: Cycle:  8   F: -5461.896190253530222   dF: -3.673e-06   |Residual|: 4.066e-03   |deigs|: 1.021e-04  t[s]:    612.12
	FillingsUpdate:  mu: +0.631280105  nElectrons: 519.000000
SCF: Cycle:  9   F: -5461.896200878836680   dF: -1.063e-05   |Residual|: 1.960e-03   |deigs|: 5.544e-05  t[s]:    637.45
	FillingsUpdate:  mu: +0.631227471  nElectrons: 519.000000
SCF: Cycle: 10   F: -5461.896204906714956   dF: -4.028e-06   |Residual|: 7.273e-04   |deigs|: 8.190e-05  t[s]:    663.07
	FillingsUpdate:  mu: +0.631224195  nElectrons: 519.000000
SCF: Cycle: 11   F: -5461.896204920036325   dF: -1.332e-08   |Residual|: 6.969e-04   |deigs|: 1.265e-05  t[s]:    689.46
	FillingsUpdate:  mu: +0.631238250  nElectrons: 519.000000
SCF: Cycle: 12   F: -5461.896205384285167   dF: -4.642e-07   |Residual|: 9.576e-05   |deigs|: 2.189e-05  t[s]:    715.44
	FillingsUpdate:  mu: +0.631239973  nElectrons: 519.000000
SCF: Cycle: 13   F: -5461.896205388606177   dF: -4.321e-09   |Residual|: 7.847e-05   |deigs|: 3.593e-06  t[s]:    740.68
	FillingsUpdate:  mu: +0.631240357  nElectrons: 519.000000
SCF: Cycle: 14   F: -5461.896205394787103   dF: -6.181e-09   |Residual|: 2.763e-05   |deigs|: 2.359e-06  t[s]:    766.01
SCF: Converged (|Delta E|<1.000000e-08 for 2 iters).

Setting wave functions to eigenvectors of Hamiltonian

# Ionic positions in lattice coordinates:
ion Cu   0.000000000000000   0.000000000000000   0.000000000000000 0
ion Cu   0.003490000000000  -0.031120000000000   0.348090000000000 1
ion Cu   0.003610000000000   0.012370000000000   0.667060000000000 1
ion Cu   0.004390000000000   0.346990000000000  -0.004730000000000 1
ion Cu  -0.005170000000000   0.346600000000000   0.335690000000000 1
ion Cu   0.000260000000000   0.349640000000000   0.667670000000000 1
ion Cu  -0.005490000000000   0.674080000000000   0.004190000000000 1
ion Cu   0.001620000000000   0.661800000000000   0.331280000000000 1
ion Cu  -0.015090000000000   0.659810000000000   0.664490000000000 1
ion Cu   0.315960000000000   0.007120000000000  -0.000600000000000 1
ion Cu   0.328800000000000  -0.007540000000000   0.327560000000000 1
ion Cu   0.326740000000000  -0.005490000000000   0.663530000000000 1
ion Cu   0.344990000000000   0.332550000000000  -0.022640000000000 1
ion Cu   0.328060000000000   0.332060000000000   0.331620000000000 1
ion Cu   0.345720000000000   0.335790000000000   0.658800000000000 1
ion Cu   0.325470000000000   0.664560000000000  -0.023490000000000 1
ion Cu   0.320200000000000   0.660610000000000   0.321460000000000 1
ion Cu   0.342350000000000   0.651710000000000   0.657010000000000 1
ion Cu   0.675510000000000   0.003950000000000   0.015280000000000 1
ion Cu   0.672770000000000   0.001450000000000   0.338100000000000 1
ion Cu   0.660260000000000   0.025110000000000   0.669940000000000 1
ion Cu   0.636010000000000   0.330900000000000  -0.011280000000000 1
ion Cu   0.667990000000000   0.346530000000000   0.340290000000000 1
ion Cu   0.662000000000000   0.330330000000000   0.658380000000000 1
ion Cu   0.655180000000000   0.675420000000000   0.005990000000000 1
ion Cu   0.665900000000000   0.663290000000000   0.347950000000000 1
ion Cu   0.673980000000000   0.678040000000000   0.674400000000000 1
ion O   0.064770000000000   0.072960000000000   0.095050000000000 1

# Forces in Lattice coordinates:
force Cu  -4.421605933815950  -4.445999355687196  -4.829169564397624 0
force Cu   0.229965454381928   0.289663226168365   2.480938675839369 1
force Cu  -0.180297692195616  -0.205805227027121  -0.156889535897621 1
force Cu  -0.006999066620224   1.149553283931269   0.049818094219415 1
force Cu   0.026267139040115  -0.163485222718531  -0.052184136590869 1
force Cu  -0.222856703057989  -0.365574042167410  -0.218055400070998 1
force Cu  -0.176226015317836  -0.186052613686639  -0.233000184274026 1
force Cu  -0.170490620422972  -0.132830582597055  -0.093261627535083 1
force Cu   0.562941259210332   0.524234071063506   0.479013303808809 1
force Cu   2.734018586659763   0.123115810861361  -0.064151991962115 1
force Cu   0.179371834078073   0.137379027234127   0.159220237389587 1
force Cu   0.191592594046727   0.110941923540135  -0.033168289168637 1
force Cu  -0.282379396934070  -0.102136656026847   0.111452770281211 1
force Cu   0.054344698709219  -0.082953348088207  -0.025230642282381 1
force Cu  -0.379638606774565  -0.201806704862143  -0.266096215651334 1
force Cu   0.238561803792514   0.140926414326419   0.260341541953849 1
force Cu   0.338080898445927   0.070917361585924   0.202724534387022 1
force Cu  -0.110462128716976   0.199010725486353  -0.023646319235745 1
force Cu  -0.395467558959346  -0.476350375725357  -0.363893796145028 1
force Cu  -0.219356055452289  -0.021157983058725   0.032542326062694 1
force Cu  -0.108877802090975  -0.437191316840078  -0.098339857783803 1
force Cu   0.673480662197182   0.629492537508125   0.497738285303278 1
force Cu  -0.227470263939907  -0.230184707306030  -0.376652932696052 1
force Cu   0.467033156428975   0.394070928615424   0.359070303349806 1
force Cu   0.024650083463479   0.004287662005261   0.017513151502812 1
force Cu  -0.033641315930391   0.104922534712371  -0.099640799552155 1
force Cu  -0.412901188391960  -0.227911369803024  -0.255469533449164 1
force O   1.628865554515875   3.401279857484217   2.538853603907918 1

# Energy components:
   Eewald =    -3317.6518392239363493
       EH =     1950.5536562322238296
     Eloc =    -5133.5323955388157628
      Enl =      993.7555215429026703
      Exc =     -522.6776951696342621
 Exc_core =        1.2758223666427146
       KE =      566.4639224363631911
-------------------------------------
     Etot =    -5461.8130073542542959
       TS =        0.0831980405329004
-------------------------------------
        F =    -5461.8962053947871027

IonicMinimize: Iter:   0  F: -5461.896205394787103  |grad|_K:  4.728e-02  t[s]:    771.47

#--- Lowdin population analysis ---
# oxidation-state Cu +0.084 +0.094 +0.076 +0.123 +0.076 +0.076 +0.069 +0.050 +0.055 +0.111 +0.084 +0.074 +0.053 +0.075 +0.056 +0.064 +0.067 +0.085 +0.056 +0.082 +0.069 +0.079 +0.079 +0.050 +0.087 +0.074 +0.073
# oxidation-state O +0.062


-------- Electronic minimization -----------
Will mix electronic density at each iteration.
	FillingsUpdate:  mu: +0.631240357  nElectrons: 519.000000
	FillingsUpdate:  mu: +0.640104618  nElectrons: 519.000000
SCF: Cycle:  0   F: -5458.617341896338075   dF: +2.670e+00   |Residual|: 1.063e+00   |deigs|: 2.253e-03  t[s]:    827.24
	FillingsUpdate:  mu: +0.636905876  nElectrons: 519.000000
SCF: Cycle:  1   F: -5459.043801040593280   dF: -4.265e-01   |Residual|: 1.755e+00   |deigs|: 6.856e-02  t[s]:    868.21
	FillingsUpdate:  mu: +0.627102206  nElectrons: 519.000000
SCF: Cycle:  2   F: -5461.284325618226831   dF: -2.241e+00   |Residual|: 7.491e-01   |deigs|: 4.721e-02  t[s]:    908.18
	FillingsUpdate:  mu: +0.629942442  nElectrons: 519.000000
SCF: Cycle:  3   F: -5461.662524853054492   dF: -3.782e-01   |Residual|: 4.752e-01   |deigs|: 1.432e-02  t[s]:    948.41
	FillingsUpdate:  mu: +0.633977972  nElectrons: 519.000000
SCF: Cycle:  4   F: -5461.788539595540897   dF: -1.260e-01   |Residual|: 3.549e-01   |deigs|: 1.231e-02  t[s]:    988.78
	FillingsUpdate:  mu: +0.629740232  nElectrons: 519.000000
SCF: Cycle:  5   F: -5461.949587307115507   dF: -1.610e-01   |Residual|: 1.064e-01   |deigs|: 5.359e-03  t[s]:   1029.55
	FillingsUpdate:  mu: +0.629852687  nElectrons: 519.000000
SCF: Cycle:  6   F: -5461.950075401167851   dF: -4.881e-04   |Residual|: 8.501e-02   |deigs|: 2.488e-03  t[s]:   1070.47
	FillingsUpdate:  mu: +0.630034245  nElectrons: 519.000000
SCF: Cycle:  7   F: -5461.952699311619654   dF: -2.624e-03   |Residual|: 6.419e-02   |deigs|: 1.692e-03  t[s]:   1107.41
	FillingsUpdate:  mu: +0.630477050  nElectrons: 519.000000
SCF: Cycle:  8   F: -5461.960000943855448   dF: -7.302e-03   |Residual|: 2.105e-02   |deigs|: 1.319e-03  t[s]:   1135.56
	FillingsUpdate:  mu: +0.630525723  nElectrons: 519.000000
SCF: Cycle:  9   F: -5461.960583833951205   dF: -5.829e-04   |Residual|: 3.962e-03   |deigs|: 3.462e-04  t[s]:   1161.53
	FillingsUpdate:  mu: +0.630581285  nElectrons: 519.000000
SCF: Cycle: 10   F: -5461.960594040775504   dF: -1.021e-05   |Residual|: 2.195e-03   |deigs|: 7.992e-05  t[s]:   1187.63
	FillingsUpdate:  mu: +0.630605376  nElectrons: 519.000000
SCF: Cycle: 11   F: -5461.960550222347592   dF: +4.382e-05   |Residual|: 5.419e-03   |deigs|: 1.226e-04  t[s]:   1213.71
	FillingsUpdate:  mu: +0.630566240  nElectrons: 519.000000
SCF: Cycle: 12   F: -5461.960596252205505   dF: -4.603e-05   |Residual|: 1.091e-03   |deigs|: 1.081e-04  t[s]:   1239.30
	FillingsUpdate:  mu: +0.630572125  nElectrons: 519.000000
SCF: Cycle: 13   F: -5461.960597591330952   dF: -1.339e-06   |Residual|: 2.499e-04   |deigs|: 1.749e-05  t[s]:   1265.90
	FillingsUpdate:  mu: +0.630572930  nElectrons: 519.000000
SCF: Cycle: 14   F: -5461.960597646412680   dF: -5.508e-08   |Residual|: 1.568e-04   |deigs|: 4.148e-06  t[s]:   1291.45
	FillingsUpdate:  mu: +0.630573175  nElectrons: 519.000000
SCF: Cycle: 15   F: -5461.960597661061911   dF: -1.465e-08   |Residual|: 1.064e-04   |deigs|: 3.215e-06  t[s]:   1317.68
	FillingsUpdate:  mu: +0.630573137  nElectrons: 519.000000
SCF: Cycle: 16   F: -5461.960597672261429   dF: -1.120e-08   |Residual|: 4.176e-05   |deigs|: 2.340e-06  t[s]:   1343.68
	FillingsUpdate:  mu: +0.630573282  nElectrons: 519.000000
SCF: Cycle: 17   F: -5461.960597673633856   dF: -1.372e-09   |Residual|: 2.414e-05   |deigs|: 1.511e-06  t[s]:   1368.95
	FillingsUpdate:  mu: +0.630573188  nElectrons: 519.000000
SCF: Cycle: 18   F: -5461.960597674064047   dF: -4.302e-10   |Residual|: 1.390e-05   |deigs|: 1.107e-06  t[s]:   1394.27
SCF: Converged (|Delta E|<1.000000e-08 for 2 iters).

Setting wave functions to eigenvectors of Hamiltonian

# Ionic positions in lattice coordinates:
ion Cu   0.000000000000000   0.000000000000000   0.000000000000000 0
ion Cu   0.001448606380953  -0.032927114143898   0.354882383741767 1
ion Cu   0.003435168485574   0.012095066058065   0.666977032057824 1
ion Cu   0.003192688520068   0.350331492390992  -0.005704336748671 1
ion Cu  -0.004881092822712   0.346144238115264   0.335671030968015 1
ion Cu   0.000176664164034   0.348996580557884   0.667605506521297 1
ion Cu  -0.005597554037589   0.673933882206353   0.003859639949605 1
ion Cu   0.001340012184350   0.661667806208012   0.331303091635704 1
ion Cu  -0.014417376571157   0.660330719941456   0.664833254396240 1
ion Cu   0.323949240004104   0.004862945817983  -0.003591972776882 1
ion Cu   0.329036953137840  -0.007467844516294   0.327717869692105 1
ion Cu   0.327227613973696  -0.005318893597547   0.663135556567229 1
ion Cu   0.344149727159517   0.332417076420228  -0.021934707726894 1
ion Cu   0.328326093813280   0.331787277817638   0.331573806292917 1
ion Cu   0.345061664917795   0.335829553019781   0.658587253605673 1
ion Cu   0.325778476992330   0.664485314151983  -0.023096050041550 1
ion Cu   0.320926608219110   0.660288144745155   0.321655412213281 1
ion Cu   0.341852823530416   0.652427326780471   0.656853525732044 1
ion Cu   0.675170381658960   0.003292963046950   0.015064290548007 1
ion Cu   0.672113195826925   0.001571009453572   0.338431752331570 1
ion Cu   0.660464950947349   0.024026508923165   0.670186306327752 1
ion Cu   0.636886335231558   0.331603707100615  -0.011093352684558 1
ion Cu   0.667915854693511   0.346445202061962   0.339630398380961 1
ion Cu   0.662635716004198   0.330679381155738   0.658592023799311 1
ion Cu   0.655231164148747   0.675391253336848   0.006013155788905 1
ion Cu   0.665795800919720   0.663729584468616   0.347586790844129 1
ion Cu   0.673238948066618   0.678024926881405   0.674276776913293 1
ion O   0.063736368255199   0.078882076654700   0.097587548823987 1

# Forces in Lattice coordinates:
force Cu  -3.374597307139862  -3.456395029819792  -3.714076719067880 0
force Cu   0.173875772691531   0.230078175326391   2.006355234105410 1
force Cu  -0.158523748626061  -0.186722041771943  -0.129598223539429 1
force Cu  -0.008383813867647   1.166420637477682   0.016225362887724 1
force Cu   0.024440751859541  -0.154975340803295  -0.047451435457646 1
force Cu  -0.209425616470701  -0.339816950597680  -0.200846291229652 1
force Cu  -0.150483714010027  -0.154336737999362  -0.208895737222537 1
force Cu  -0.148197761176784  -0.105287495477125  -0.081742241222720 1
force Cu   0.515636708091950   0.466086919668646   0.457558925404523 1
force Cu   1.945706084524832   0.009121349477642  -0.092483484859320 1
force Cu   0.173720406000691   0.132063012848114   0.153805710873716 1
force Cu   0.178305062774768   0.108476066807283  -0.022885679266192 1
force Cu  -0.241461577395958  -0.078972130325216   0.117803960740190 1
force Cu   0.051150395695408  -0.078647310040079  -0.026812674097595 1
force Cu  -0.348944671778833  -0.188445540325194  -0.248559992021701 1
force Cu   0.224809382528576   0.144870863363703   0.256172132406476 1
force Cu   0.313492238025598   0.075317401821460   0.187219374472539 1
force Cu  -0.106171631866918   0.186640217767362  -0.019351295511033 1
force Cu  -0.364017200327700  -0.427759804357216  -0.335632190129699 1
force Cu  -0.203263687343666  -0.021912009135121   0.022237547245762 1
force Cu  -0.100286093046317  -0.400340636212938  -0.090267165538409 1
force Cu   0.630864709227014   0.578370643028240   0.467685661175512 1
force Cu  -0.216951403764288  -0.219158051373752  -0.347981769881504 1
force Cu   0.426244881388904   0.361493420632993   0.330731317774148 1
force Cu   0.027685747602532  -0.004373854995158   0.012487834194923 1
force Cu  -0.035228002345284   0.094056620448825  -0.099460083324448 1
force Cu  -0.378284827354967  -0.216544448585891  -0.241450395809446 1
force O   1.357948121937307   2.480554311896255   1.878860530613960 1

# Energy components:
   Eewald =    -3321.6129906167693662
       EH =     1946.9268515240335091
     Eloc =    -5125.8528143679377536
      Enl =      993.6909035200803828
      Exc =     -522.6263756010555426
 Exc_core =        1.2758229920553072
       KE =      566.3212830135460081
-------------------------------------
     Etot =    -5461.8773195360472528
       TS =        0.0832781380169121
-------------------------------------
        F =    -5461.9605976740640472

IonicMinimize: Iter:   1  F: -5461.960597674064047  |grad|_K:  3.699e-02  alpha:  4.016e-01  linmin: -7.356e-01  t[s]:   1399.72

#--- Lowdin population analysis ---
# oxidation-state Cu +0.091 +0.095 +0.076 +0.120 +0.078 +0.078 +0.069 +0.053 +0.053 +0.115 +0.085 +0.074 +0.055 +0.074 +0.058 +0.065 +0.069 +0.086 +0.058 +0.084 +0.068 +0.080 +0.083 +0.052 +0.084 +0.075 +0.075
# oxidation-state O +0.029


-------- Electronic minimization -----------
Will mix electronic density at each iteration.
	FillingsUpdate:  mu: +0.630573188  nElectrons: 519.000000
	FillingsUpdate:  mu: +0.641815498  nElectrons: 519.000000
SCF: Cycle:  0   F: -5456.820428321203508   dF: +4.149e+00   |Residual|: 1.309e+00   |deigs|: 3.251e-03  t[s]:   1455.98
	FillingsUpdate:  mu: +0.640187076  nElectrons: 519.000000
SCF: Cycle:  1   F: -5458.029028517444203   dF: -1.209e+00   |Residual|: 2.071e+00   |deigs|: 8.539e-02  t[s]:   1494.84
	FillingsUpdate:  mu: +0.626133090  nElectrons: 519.000000
SCF: Cycle:  2   F: -5460.986885697017897   dF: -2.958e+00   |Residual|: 9.128e-01   |deigs|: 5.777e-02  t[s]:   1535.38
	FillingsUpdate:  mu: +0.628720035  nElectrons: 519.000000
SCF: Cycle:  3   F: -5461.563933423496565   dF: -5.770e-01   |Residual|: 5.930e-01   |deigs|: 1.649e-02  t[s]:   1575.05
	FillingsUpdate:  mu: +0.634396325  nElectrons: 519.000000
SCF: Cycle:  4   F: -5461.768004033681791   dF: -2.041e-01   |Residual|: 4.462e-01   |deigs|: 1.713e-02  t[s]:   1615.51
	FillingsUpdate:  mu: +0.629233385  nElectrons: 519.000000
SCF: Cycle:  5   F: -5462.005330736331416   dF: -2.373e-01   |Residual|: 1.175e-01   |deigs|: 5.793e-03  t[s]:   1656.30
	FillingsUpdate:  mu: +0.628866846  nElectrons: 519.000000
SCF: Cycle:  6   F: -5462.002735691959970   dF: +2.595e-03   |Residual|: 1.028e-01   |deigs|: 2.359e-03  t[s]:   1695.94
	FillingsUpdate:  mu: +0.629169022  nElectrons: 519.000000
SCF: Cycle:  7   F: -5462.008289273208902   dF: -5.554e-03   |Residual|: 7.074e-02   |deigs|: 1.790e-03  t[s]:   1735.92
	FillingsUpdate:  mu: +0.629794338  nElectrons: 519.000000
SCF: Cycle:  8   F: -5462.017146784296528   dF: -8.858e-03   |Residual|: 2.637e-02   |deigs|: 1.550e-03  t[s]:   1766.87
	FillingsUpdate:  mu: +0.629775593  nElectrons: 519.000000
SCF: Cycle:  9   F: -5462.017902189110828   dF: -7.554e-04   |Residual|: 8.247e-03   |deigs|: 4.147e-04  t[s]:   1792.93
	FillingsUpdate:  mu: +0.629902432  nElectrons: 519.000000
SCF: Cycle: 10   F: -5462.017952310522560   dF: -5.012e-05   |Residual|: 5.944e-03   |deigs|: 2.512e-04  t[s]:   1818.86
	FillingsUpdate:  mu: +0.629892179  nElectrons: 519.000000
SCF: Cycle: 11   F: -5462.017984082190196   dF: -3.177e-05   |Residual|: 3.936e-03   |deigs|: 6.807e-05  t[s]:   1844.70
	FillingsUpdate:  mu: +0.629848701  nElectrons: 519.000000
SCF: Cycle: 12   F: -5462.017999414971200   dF: -1.533e-05   |Residual|: 2.257e-03   |deigs|: 1.169e-04  t[s]:   1870.67
	FillingsUpdate:  mu: +0.629853287  nElectrons: 519.000000
SCF: Cycle: 13   F: -5462.018007434323408   dF: -8.019e-06   |Residual|: 5.351e-04   |deigs|: 4.982e-05  t[s]:   1896.97
	FillingsUpdate:  mu: +0.629856766  nElectrons: 519.000000
SCF: Cycle: 14   F: -5462.018007668729297   dF: -2.344e-07   |Residual|: 2.126e-04   |deigs|: 9.883e-06  t[s]:   1922.13
	FillingsUpdate:  mu: +0.629858878  nElectrons: 519.000000
SCF: Cycle: 15   F: -5462.018007705513810   dF: -3.678e-08   |Residual|: 1.146e-04   |deigs|: 4.292e-06  t[s]:   1947.59
	FillingsUpdate:  mu: +0.629858177  nElectrons: 519.000000
SCF: Cycle: 16   F: -5462.018007714415944   dF: -8.902e-09   |Residual|: 5.641e-05   |deigs|: 2.236e-06  t[s]:   1973.61
	FillingsUpdate:  mu: +0.629858124  nElectrons: 519.000000
SCF: Cycle: 17   F: -5462.018007717311775   dF: -2.896e-09   |Residual|: 2.577e-05   |deigs|: 9.717e-07  t[s]:   2000.45
SCF: Converged (|Delta E|<1.000000e-08 for 2 iters).

Setting wave functions to eigenvectors of Hamiltonian

# Ionic positions in lattice coordinates:
ion Cu   0.000000000000000   0.000000000000000   0.000000000000000 0
ion Cu  -0.001234427053127  -0.035176359832492   0.363402549244979 1
ion Cu   0.003149710852452   0.011549050183840   0.666985475546122 1
ion Cu   0.000711168827289   0.357799211088965  -0.008292130423706 1
ion Cu  -0.004352808724980   0.345279794880935   0.335664589282570 1
ion Cu  -0.000011998878113   0.347842231348528   0.667524693231646 1
ion Cu  -0.005729348717327   0.673827714457428   0.003226110730352 1
ion Cu   0.000871501891254   0.661606954275886   0.331283387189780 1
ion Cu  -0.013271587202886   0.660959619099743   0.665745508364609 1
ion Cu   0.330896840969371   0.002211499488300  -0.006261508834044 1
ion Cu   0.329511268981578  -0.007336830809592   0.328028806020821 1
ion Cu   0.328046982811077  -0.004975928560194   0.662508841945715 1
ion Cu   0.342787530765801   0.332235180208945  -0.020642002908227 1
ion Cu   0.328834845144105   0.331288685672386   0.331449563760850 1
ion Cu   0.343941095854491   0.335876787525202   0.658174719634000 1
ion Cu   0.326247988386235   0.664460707783714  -0.022273105665374 1
ion Cu   0.322185265145524   0.659845374255470   0.321951334887755 1
ion Cu   0.340893058445060   0.653742538862343   0.656616048079574 1
ion Cu   0.674529107139891   0.002286926880529   0.014628356207735 1
ion Cu   0.670987565363272   0.001791347722806   0.338927143233287 1
ion Cu   0.660813351643570   0.022151669255177   0.670613041272808 1
ion Cu   0.638534219537497   0.332732770535940  -0.010681618453555 1
ion Cu   0.667722100699605   0.346237994508891   0.338521899734270 1
ion Cu   0.663707152164178   0.331291442296495   0.658989106486605 1
ion Cu   0.655442047346427   0.675222492573592   0.006019774956679 1
ion Cu   0.665601549665758   0.664521231880961   0.346875269422172 1
ion Cu   0.672020683444617   0.677927661431028   0.673997932340253 1
ion O   0.064996295720467   0.083206364047758   0.099424025533465 1

# Forces in Lattice coordinates:
force Cu  -2.582131289510649  -2.651215244102193  -2.829348584735569 0
force Cu   0.114012342918574   0.213226819851076   1.442027617015718 1
force Cu  -0.128781654941408  -0.158627281774438  -0.092851198752695 1
force Cu  -0.049159979990987   0.909139986559666  -0.015131177381100 1
force Cu   0.017121290422884  -0.144796224460492  -0.046470879476452 1
force Cu  -0.187445510570473  -0.295565141377327  -0.175266203474472 1
force Cu  -0.106750128667263  -0.098175139366216  -0.164396085963514 1
force Cu  -0.118792594244467  -0.075229585565492  -0.061518139808509 1
force Cu   0.436931774667868   0.380889072185817   0.404967803689706 1
force Cu   1.493681505514171  -0.034482524217901  -0.096821599596262 1
force Cu   0.158943504391134   0.121743660935499   0.139970630802683 1
force Cu   0.157170415968543   0.101565076647930  -0.013453409822947 1
force Cu  -0.184176153584902  -0.051022920513180   0.120383662127580 1
force Cu   0.045282466481683  -0.069336011517041  -0.028440331516539 1
force Cu  -0.296653558026732  -0.164604616013122  -0.214746995989277 1
force Cu   0.201228736150886   0.137212901689690   0.240794880932981 1
force Cu   0.277954100234311   0.076981807339137   0.169979181784980 1
force Cu  -0.096528748269173   0.165349875361713  -0.011014327977682 1
force Cu  -0.317087848124531  -0.353582494874276  -0.293923152795580 1
force Cu  -0.177391142427783  -0.020636028843739   0.008467843549777 1
force Cu  -0.090887984188983  -0.341091045164035  -0.074828618208251 1
force Cu   0.563663708226633   0.500098456944337   0.420770609290287 1
force Cu  -0.194387902772529  -0.202609668356987  -0.303442471823621 1
force Cu   0.358781016772754   0.308126882655438   0.283743642147433 1
force Cu   0.023634199295925  -0.011762765299657   0.004206240560018 1
force Cu  -0.037674467868544   0.074567614856393  -0.098415587235404 1
force Cu  -0.322279753628269  -0.197340228533175  -0.217869221075881 1
force O   1.041521497821743   1.881011371038185   1.502281385940220 1

# Energy components:
   Eewald =    -3325.8349141757462348
       EH =     1943.0147674354136598
     Eloc =    -5117.6205903390537060
      Enl =      993.6291498508262521
      Exc =     -522.5723978201350519
 Exc_core =        1.2758228230700706
       KE =      566.1734970418904140
-------------------------------------
     Etot =    -5461.9346651837340687
       TS =        0.0833425335778094
-------------------------------------
        F =    -5462.0180077173117752

IonicMinimize: Iter:   2  F: -5462.018007717311775  |grad|_K:  2.864e-02  alpha:  2.662e-01  linmin: -7.249e-01  t[s]:   2005.97

#--- Lowdin population analysis ---
# oxidation-state Cu +0.098 +0.095 +0.075 +0.117 +0.081 +0.079 +0.068 +0.056 +0.052 +0.116 +0.087 +0.075 +0.059 +0.073 +0.060 +0.066 +0.072 +0.086 +0.060 +0.085 +0.066 +0.081 +0.087 +0.055 +0.081 +0.075 +0.076
# oxidation-state O -0.002


-------- Electronic minimization -----------
Will mix electronic density at each iteration.
	FillingsUpdate:  mu: +0.629858124  nElectrons: 519.000000
	FillingsUpdate:  mu: +0.641492392  nElectrons: 519.000000
SCF: Cycle:  0   F: -5456.496141840861128   dF: +4.240e+00   |Residual|: 1.367e+00   |deigs|: 3.930e-03  t[s]:   2061.89
	FillingsUpdate:  mu: +0.641918973  nElectrons: 519.000000
SCF: Cycle:  1   F: -5457.551866964639885   dF: -1.056e+00   |Residual|: 2.186e+00   |deigs|: 8.356e-02  t[s]:   2102.08
	FillingsUpdate:  mu: +0.625683628  nElectrons: 519.000000
SCF: Cycle:  2   F: -5460.915810570867507   dF: -3.364e+00   |Residual|: 9.585e-01   |deigs|: 5.846e-02  t[s]:   2142.41
	FillingsUpdate:  mu: +0.627408189  nElectrons: 519.000000
SCF: Cycle:  3   F: -5461.603559498571485   dF: -6.877e-01   |Residual|: 6.005e-01   |deigs|: 1.694e-02  t[s]:   2183.77
	FillingsUpdate:  mu: +0.635147625  nElectrons: 519.000000
SCF: Cycle:  4   F: -5461.658108997171439   dF: -5.455e-02   |Residual|: 5.578e-01   |deigs|: 1.856e-02  t[s]:   2224.59
	FillingsUpdate:  mu: +0.629313314  nElectrons: 519.000000
SCF: Cycle:  5   F: -5462.040964908659589   dF: -3.829e-01   |Residual|: 1.603e-01   |deigs|: 6.198e-03  t[s]:   2264.08
	FillingsUpdate:  mu: +0.627801571  nElectrons: 519.000000
SCF: Cycle:  6   F: -5462.048334542902012   dF: -7.370e-03   |Residual|: 1.095e-01   |deigs|: 3.019e-03  t[s]:   2303.67
	FillingsUpdate:  mu: +0.628386561  nElectrons: 519.000000
SCF: Cycle:  7   F: -5462.054719365540222   dF: -6.385e-03   |Residual|: 7.477e-02   |deigs|: 1.876e-03  t[s]:   2344.07
	FillingsUpdate:  mu: +0.629032905  nElectrons: 519.000000
SCF: Cycle:  8   F: -5462.063820079731158   dF: -9.101e-03   |Residual|: 3.731e-02   |deigs|: 1.388e-03  t[s]:   2368.55
	FillingsUpdate:  mu: +0.629045139  nElectrons: 519.000000
SCF: Cycle:  9   F: -5462.065292666256028   dF: -1.473e-03   |Residual|: 1.692e-02   |deigs|: 5.336e-04  t[s]:   2394.37
	FillingsUpdate:  mu: +0.629256190  nElectrons: 519.000000
SCF: Cycle: 10   F: -5462.065554682069887   dF: -2.620e-04   |Residual|: 1.169e-02   |deigs|: 5.340e-04  t[s]:   2419.93
	FillingsUpdate:  mu: +0.629238922  nElectrons: 519.000000
SCF: Cycle: 11   F: -5462.065703854164894   dF: -1.492e-04   |Residual|: 6.395e-03   |deigs|: 1.152e-04  t[s]:   2445.50
	FillingsUpdate:  mu: +0.629210080  nElectrons: 519.000000
SCF: Cycle: 12   F: -5462.065763300261096   dF: -5.945e-05   |Residual|: 2.026e-03   |deigs|: 1.375e-04  t[s]:   2471.00
	FillingsUpdate:  mu: +0.629191116  nElectrons: 519.000000
SCF: Cycle: 13   F: -5462.065767173036875   dF: -3.873e-06   |Residual|: 7.454e-04   |deigs|: 3.841e-05  t[s]:   2496.46
	FillingsUpdate:  mu: +0.629193503  nElectrons: 519.000000
SCF: Cycle: 14   F: -5462.065767571803917   dF: -3.988e-07   |Residual|: 3.040e-04   |deigs|: 1.138e-05  t[s]:   2522.47
	FillingsUpdate:  mu: +0.629195132  nElectrons: 519.000000
SCF: Cycle: 15   F: -5462.065767552982834   dF: +1.882e-08   |Residual|: 3.156e-04   |deigs|: 7.546e-06  t[s]:   2547.96
	FillingsUpdate:  mu: +0.629194637  nElectrons: 519.000000
SCF: Cycle: 16   F: -5462.065767662834332   dF: -1.099e-07   |Residual|: 1.022e-04   |deigs|: 5.716e-06  t[s]:   2573.68
	FillingsUpdate:  mu: +0.629194451  nElectrons: 519.000000
SCF: Cycle: 17   F: -5462.065767671243520   dF: -8.409e-09   |Residual|: 4.287e-05   |deigs|: 1.697e-06  t[s]:   2599.61
	FillingsUpdate:  mu: +0.629194343  nElectrons: 519.000000
SCF: Cycle: 18   F: -5462.065767670828791   dF: +4.147e-10   |Residual|: 4.447e-05   |deigs|: 1.105e-06  t[s]:   2625.23
	FillingsUpdate:  mu: +0.629194326  nElectrons: 519.000000
SCF: Cycle: 19   F: -5462.065767672798756   dF: -1.970e-09   |Residual|: 1.348e-05   |deigs|: 7.670e-07  t[s]:   2651.96
	FillingsUpdate:  mu: +0.629194356  nElectrons: 519.000000
SCF: Cycle: 20   F: -5462.065767672953370   dF: -1.546e-10   |Residual|: 8.999e-06   |deigs|: 3.257e-07  t[s]:   2675.46
SCF: Converged (|Delta E|<1.000000e-08 for 2 iters).

Setting wave functions to eigenvectors of Hamiltonian

# Ionic positions in lattice coordinates:
ion Cu   0.000000000000000   0.000000000000000   0.000000000000000 0
ion Cu  -0.004006866159452  -0.035803017284266   0.369937819235862 1
ion Cu   0.002758676231060   0.010642787902211   0.667310207076325 1
ion Cu  -0.002707935949470   0.366315450998024  -0.011349082940586 1
ion Cu  -0.003573226011177   0.343890202575387   0.335637033550862 1
ion Cu  -0.000389372724013   0.346223650525452   0.667426127441587 1
ion Cu  -0.005791018407912   0.674139290790948   0.002261216754222 1
ion Cu   0.000220935061999   0.661695282409905   0.331288345839113 1
ion Cu  -0.011734872468516   0.661423742039556   0.667413828197464 1
ion Cu   0.338777268157666  -0.001310527732381  -0.009362422856366 1
ion Cu   0.330260904388735  -0.007098557951684   0.328498693176145 1
ion Cu   0.329185822758853  -0.004392031193881   0.661660869383224 1
ion Cu   0.341104509567256   0.332028197646938  -0.018709217248399 1
ion Cu   0.329623361574321   0.330584461332349   0.331166186781134 1
ion Cu   0.342460837280191   0.335872374497742   0.657574746052567 1
ion Cu   0.326854750091248   0.664471853836140  -0.020837538807490 1
ion Cu   0.323989466539120   0.659338671285689   0.322427300179253 1
ion Cu   0.339366287195212   0.655685966782832   0.656403560308104 1
ion Cu   0.673478139751986   0.001230595352185   0.013831506151508 1
ion Cu   0.669432815915467   0.002158948392109   0.339436478192883 1
ion Cu   0.661155391170480   0.019594060863504   0.671289309667282 1
ion Cu   0.641144462898772   0.334108111925433  -0.009881724112221 1
ion Cu   0.667426363392057   0.345730505504479   0.337021541191080 1
ion Cu   0.665074543139076   0.332154362238966   0.659605934354331 1
ion Cu   0.655815111464682   0.674883120804012   0.005950936584186 1
ion Cu   0.665308829485160   0.665639868222046   0.345703547199990 1
ion Cu   0.670517223341977   0.677610109322217   0.673449856916072 1
ion O   0.065915589007853   0.086864369199335   0.102936996214315 1

# Forces in Lattice coordinates:
force Cu  -1.899431074568390  -1.945326583737526  -2.080111901925808 0
force Cu   0.077967262031811   0.174134534100848   1.140495761473431 1
force Cu  -0.096505257998964  -0.126446632137538  -0.056441396303708 1
force Cu  -0.084246917429864   0.585396764315666  -0.035540476619280 1
force Cu   0.007766817665318  -0.126512008015256  -0.045097820636320 1
force Cu  -0.156790234212995  -0.239491627852466  -0.143882327026578 1
force Cu  -0.054635652552614  -0.034932679231874  -0.107158550028421 1
force Cu  -0.084391517160883  -0.046597907373723  -0.034801886140379 1
force Cu   0.340697276750665   0.298122817873458   0.313213100938526 1
force Cu   1.039429902985741  -0.043503903262589  -0.082224353071744 1
force Cu   0.136233186244479   0.106236555403733   0.119266298231820 1
force Cu   0.129156116913888   0.090281436112186  -0.002024778725296 1
force Cu  -0.123504652009215  -0.023036064994788   0.113398050434114 1
force Cu   0.036487021672083  -0.054222442289223  -0.028659989165996 1
force Cu  -0.230948580704805  -0.132517625395238  -0.166223733222758 1
force Cu   0.171615128029144   0.121658920323867   0.214524380137867 1
force Cu   0.230887733423813   0.077218094542311   0.151191605134154 1
force Cu  -0.079539070623103   0.137175609632820   0.001385612381828 1
force Cu  -0.255715147932609  -0.262427969471331  -0.240180347872244 1
force Cu  -0.149885773809110  -0.022897696490574  -0.008037076452380 1
force Cu  -0.074051518601058  -0.269555678269761  -0.062435091133759 1
force Cu   0.475599808337137   0.404424269440163   0.358164105160618 1
force Cu  -0.163545408565589  -0.176543123680204  -0.243723018229331 1
force Cu   0.273825867330502   0.242546145873753   0.224324144302133 1
force Cu   0.016956196710732  -0.020731184190561  -0.005437709172972 1
force Cu  -0.040032482054157   0.047612891730724  -0.094996908505060 1
force Cu  -0.254916008353367  -0.171923822375959  -0.186911475398128 1
force O   0.811514732329665   1.411855627536125   0.987592550903897 1

# Energy components:
   Eewald =    -3329.8065752132129091
       EH =     1939.3100563807940944
     Eloc =    -5109.8522850425115394
      Enl =      993.5772678680100398
      Exc =     -522.5217665095829034
 Exc_core =        1.2758232877679401
       KE =      566.0351142215662321
-------------------------------------
     Etot =    -5461.9823650071684824
       TS =        0.0834026657848978
-------------------------------------
        F =    -5462.0657676729533705

IonicMinimize: Iter:   3  F: -5462.065767672953370  |grad|_K:  2.126e-02  alpha:  2.892e-01  linmin: -7.081e-01  t[s]:   2681.11

#--- Lowdin population analysis ---
# oxidation-state Cu +0.106 +0.095 +0.073 +0.113 +0.085 +0.080 +0.066 +0.060 +0.050 +0.117 +0.088 +0.074 +0.064 +0.071 +0.064 +0.068 +0.075 +0.086 +0.061 +0.085 +0.064 +0.082 +0.091 +0.059 +0.076 +0.075 +0.078
# oxidation-state O -0.030


-------- Electronic minimization -----------
Will mix electronic density at each iteration.
	FillingsUpdate:  mu: +0.629194356  nElectrons: 519.000000
	FillingsUpdate:  mu: +0.638384575  nElectrons: 519.000000
SCF: Cycle:  0   F: -5457.711912160485554   dF: +2.949e+00   |Residual|: 1.213e+00   |deigs|: 4.017e-03  t[s]:   2737.68
	FillingsUpdate:  mu: +0.640446255  nElectrons: 519.000000
SCF: Cycle:  1   F: -5458.261764663700887   dF: -5.499e-01   |Residual|: 1.979e+00   |deigs|: 6.302e-02  t[s]:   2778.46
	FillingsUpdate:  mu: +0.624884639  nElectrons: 519.000000
SCF: Cycle:  2   F: -5461.339197300166234   dF: -3.077e+00   |Residual|: 7.654e-01   |deigs|: 4.770e-02  t[s]:   2818.80
	FillingsUpdate:  mu: +0.627613399  nElectrons: 519.000000
SCF: Cycle:  3   F: -5461.868932703931023   dF: -5.297e-01   |Residual|: 4.423e-01   |deigs|: 1.564e-02  t[s]:   2860.06
	FillingsUpdate:  mu: +0.634397241  nElectrons: 519.000000
SCF: Cycle:  4   F: -5461.627216072135525   dF: +2.417e-01   |Residual|: 5.636e-01   |deigs|: 9.550e-03  t[s]:   2899.91
	FillingsUpdate:  mu: +0.629095146  nElectrons: 519.000000
SCF: Cycle:  5   F: -5462.068475337784548   dF: -4.413e-01   |Residual|: 1.714e-01   |deigs|: 5.127e-03  t[s]:   2940.28
	FillingsUpdate:  mu: +0.627300911  nElectrons: 519.000000
SCF: Cycle:  6   F: -5462.088939141538503   dF: -2.046e-02   |Residual|: 8.903e-02   |deigs|: 3.186e-03  t[s]:   2981.56
	FillingsUpdate:  mu: +0.628095410  nElectrons: 519.000000
SCF: Cycle:  7   F: -5462.094731266271992   dF: -5.792e-03   |Residual|: 5.333e-02   |deigs|: 1.802e-03  t[s]:   3020.00
	FillingsUpdate:  mu: +0.628500148  nElectrons: 519.000000
SCF: Cycle:  8   F: -5462.099302652763072   dF: -4.571e-03   |Residual|: 3.376e-02   |deigs|: 9.992e-04  t[s]:   3045.44
	FillingsUpdate:  mu: +0.628461137  nElectrons: 519.000000
SCF: Cycle:  9   F: -5462.100550925859352   dF: -1.248e-03   |Residual|: 1.578e-02   |deigs|: 5.213e-04  t[s]:   3071.45
	FillingsUpdate:  mu: +0.628630484  nElectrons: 519.000000
SCF: Cycle: 10   F: -5462.100924978771218   dF: -3.741e-04   |Residual|: 7.936e-03   |deigs|: 4.246e-04  t[s]:   3096.87
	FillingsUpdate:  mu: +0.628628488  nElectrons: 519.000000
SCF: Cycle: 11   F: -5462.100998253569742   dF: -7.327e-05   |Residual|: 2.768e-03   |deigs|: 1.143e-04  t[s]:   3123.09
	FillingsUpdate:  mu: +0.628639041  nElectrons: 519.000000
SCF: Cycle: 12   F: -5462.101003158872118   dF: -4.905e-06   |Residual|: 1.846e-03   |deigs|: 5.148e-05  t[s]:   3149.45
	FillingsUpdate:  mu: +0.628619899  nElectrons: 519.000000
SCF: Cycle: 13   F: -5462.101006119516569   dF: -2.961e-06   |Residual|: 7.927e-04   |deigs|: 3.119e-05  t[s]:   3175.85
	FillingsUpdate:  mu: +0.628623677  nElectrons: 519.000000
SCF: Cycle: 14   F: -5462.101006587568918   dF: -4.681e-07   |Residual|: 2.672e-04   |deigs|: 9.032e-06  t[s]:   3201.74
	FillingsUpdate:  mu: +0.628624058  nElectrons: 519.000000
SCF: Cycle: 15   F: -5462.101006577888256   dF: +9.681e-09   |Residual|: 2.722e-04   |deigs|: 4.585e-06  t[s]:   3227.50
	FillingsUpdate:  mu: +0.628623941  nElectrons: 519.000000
SCF: Cycle: 16   F: -5462.101006653374498   dF: -7.549e-08   |Residual|: 1.005e-04   |deigs|: 4.381e-06  t[s]:   3253.17
	FillingsUpdate:  mu: +0.628623412  nElectrons: 519.000000
SCF: Cycle: 17   F: -5462.101006661477186   dF: -8.103e-09   |Residual|: 3.122e-05   |deigs|: 1.429e-06  t[s]:   3278.63
	FillingsUpdate:  mu: +0.628623517  nElectrons: 519.000000
SCF: Cycle: 18   F: -5462.101006660655003   dF: +8.222e-10   |Residual|: 4.048e-05   |deigs|: 1.020e-06  t[s]:   3304.25
	FillingsUpdate:  mu: +0.628623559  nElectrons: 519.000000
SCF: Cycle: 19   F: -5462.101006662491272   dF: -1.836e-09   |Residual|: 1.262e-05   |deigs|: 7.088e-07  t[s]:   3331.10
	FillingsUpdate:  mu: +0.628623498  nElectrons: 519.000000
SCF: Cycle: 20   F: -5462.101006662662257   dF: -1.710e-10   |Residual|: 7.490e-06   |deigs|: 2.877e-07  t[s]:   3354.08
SCF: Converged (|Delta E|<1.000000e-08 for 2 iters).

Setting wave functions to eigenvectors of Hamiltonian

# Ionic positions in lattice coordinates:
ion Cu   0.000000000000000   0.000000000000000   0.000000000000000 0
ion Cu  -0.007698009304848  -0.036567315974287   0.378231418172294 1
ion Cu   0.002314452009294   0.009420066323761   0.668037760713646 1
ion Cu  -0.006326289267776   0.372923674437026  -0.013762316085008 1
ion Cu  -0.002674040528816   0.342155311119299   0.335540085547839 1
ion Cu  -0.000928030094381   0.344373465831253   0.667295990697395 1
ion Cu  -0.005670287898098   0.675093577492048   0.001152617682906 1
ion Cu  -0.000499403958385   0.661890772679999   0.331466682762773 1
ion Cu  -0.010031248159991   0.662039725458280   0.669107164764752 1
ion Cu   0.345318092361454  -0.004627310097668  -0.012054360625775 1
ion Cu   0.331205121330130  -0.006740745639124   0.329066416857301 1
ion Cu   0.330440630529476  -0.003604559552810   0.660789304341282 1
ion Cu   0.339444793454162   0.331884982385407  -0.016415670198264 1
ion Cu   0.330566758466598   0.329857779323031   0.330688449015664 1
ion Cu   0.340865651003306   0.335751191290222   0.656988450466468 1
ion Cu   0.327554303439815   0.664490554110120  -0.018852283542956 1
ion Cu   0.326023581593893   0.658926038478740   0.323165574741051 1
ion Cu   0.337443639470848   0.657968522416358   0.656385934436011 1
ion Cu   0.672099171730327   0.000553423397207   0.012646141911691 1
ion Cu   0.667609911318375   0.002608087468844   0.339792138934692 1
ion Cu   0.661522402620353   0.016755056002969   0.671979267619165 1
ion Cu   0.644529567300034   0.335440402039339  -0.008682036088747 1
ion Cu   0.667022436248205   0.344874252385747   0.335449107880897 1
ion Cu   0.666383161599231   0.333184015746884   0.660387557288088 1
ion Cu   0.656342820231369   0.674318176216113   0.005769481243149 1
ion Cu   0.664962935262782   0.666839039679318   0.344145646303693 1
ion Cu   0.669060615171191   0.676988620532142   0.672609113034779 1
ion O   0.068640207454772   0.091918601230487   0.102752879156194 1

# Forces in Lattice coordinates:
force Cu  -1.426397894688041  -1.451011404611742  -1.530009163229888 0
force Cu   0.050649107847001   0.174607086985308   0.640164402813179 1
force Cu  -0.059382378651369  -0.084336339449393  -0.015312790486943 1
force Cu  -0.093647469613694   0.420363652251233  -0.033579306268804 1
force Cu  -0.003333641264985  -0.105238198478567  -0.043379652761375 1
force Cu  -0.123276641758435  -0.180843149184302  -0.115772796649902 1
force Cu  -0.014761213642651   0.005862824159095  -0.056589028391167 1
force Cu  -0.050645005659318  -0.019549061647247  -0.009453197760708 1
force Cu   0.245859472326186   0.203573151681468   0.228123578010377 1
force Cu   0.782558236943754  -0.039564850162952  -0.053530749836591 1
force Cu   0.105060151241437   0.085428375017644   0.093683477943713 1
force Cu   0.098438187931775   0.073568604760748   0.005927680980196 1
force Cu  -0.071897693733719   0.001524235441096   0.098861230254197 1
force Cu   0.026257361605843  -0.034983365385528  -0.025780048296899 1
force Cu  -0.164211767557551  -0.095802723199039  -0.116184494396229 1
force Cu   0.141350279369782   0.101131216705177   0.182084333262264 1
force Cu   0.179305129050879   0.077016268222286   0.130666111791717 1
force Cu  -0.056680492543625   0.108208498352230   0.015263983583268 1
force Cu  -0.190878102680589  -0.175195417334367  -0.183877373059765 1
force Cu  -0.114135096338449  -0.024469044183544  -0.021149845525631 1
force Cu  -0.065072894293646  -0.198718219671100  -0.046843346235526 1
force Cu   0.379837341016948   0.308869933420180   0.289186618159000 1
force Cu  -0.128004455354473  -0.148036001211596  -0.180905022911990 1
force Cu   0.189828950600480   0.177683029943816   0.164761224600096 1
force Cu   0.010639279506282  -0.024868620829075  -0.013171470315380 1
force Cu  -0.040220194987571   0.019948422361333  -0.088552458806632 1
force Cu  -0.190848866954107  -0.143946094575028  -0.153550926198694 1
force O   0.583628352616349   0.968727527258010   0.838784264039131 1

# Energy components:
   Eewald =    -3332.7421195263768823
       EH =     1936.5753184504062574
     Eloc =    -5104.1069605438242434
      Enl =      993.5367684411643268
      Exc =     -522.4807419911185207
 Exc_core =        1.2758236432820240
       KE =      565.9243588983407562
-------------------------------------
     Etot =    -5462.0175526281263956
       TS =        0.0834540345361611
-------------------------------------
        F =    -5462.1010066626622574

IonicMinimize: Iter:   4  F: -5462.101006662662257  |grad|_K:  1.494e-02  alpha:  3.159e-01  linmin: -6.737e-01  t[s]:   3359.68

#--- Lowdin population analysis ---
# oxidation-state Cu +0.112 +0.096 +0.071 +0.108 +0.089 +0.080 +0.065 +0.065 +0.049 +0.116 +0.089 +0.074 +0.071 +0.069 +0.068 +0.069 +0.078 +0.086 +0.063 +0.084 +0.062 +0.082 +0.093 +0.063 +0.071 +0.076 +0.081
# oxidation-state O -0.054


-------- Electronic minimization -----------
Will mix electronic density at each iteration.
	FillingsUpdate:  mu: +0.628623498  nElectrons: 519.000000
	FillingsUpdate:  mu: +0.635410141  nElectrons: 519.000000
SCF: Cycle:  0   F: -5458.735367275252429   dF: +1.986e+00   |Residual|: 1.095e+00   |deigs|: 3.821e-03  t[s]:   3416.14
	FillingsUpdate:  mu: +0.639837585  nElectrons: 519.000000
SCF: Cycle:  1   F: -5458.614807623323941   dF: +1.206e-01   |Residual|: 1.859e+00   |deigs|: 4.804e-02  t[s]:   3455.95
	FillingsUpdate:  mu: +0.624714745  nElectrons: 519.000000
SCF: Cycle:  2   F: -5461.541289799753940   dF: -2.926e+00   |Residual|: 6.698e-01   |deigs|: 4.005e-02  t[s]:   3495.05
	FillingsUpdate:  mu: +0.627256330  nElectrons: 519.000000
SCF: Cycle:  3   F: -5461.993726588874779   dF: -4.524e-01   |Residual|: 3.466e-01   |deigs|: 1.411e-02  t[s]:   3536.79
	FillingsUpdate:  mu: +0.633154967  nElectrons: 519.000000
SCF: Cycle:  4   F: -5461.764501353559353   dF: +2.292e-01   |Residual|: 4.991e-01   |deigs|: 6.321e-03  t[s]:   3577.75
	FillingsUpdate:  mu: +0.629102515  nElectrons: 519.000000
SCF: Cycle:  5   F: -5462.087205306444048   dF: -3.227e-01   |Residual|: 1.790e-01   |deigs|: 4.401e-03  t[s]:   3618.04
	FillingsUpdate:  mu: +0.627032871  nElectrons: 519.000000
SCF: Cycle:  6   F: -5462.117455848368081   dF: -3.025e-02   |Residual|: 6.976e-02   |deigs|: 3.018e-03  t[s]:   3658.71
	FillingsUpdate:  mu: +0.627742877  nElectrons: 519.000000
SCF: Cycle:  7   F: -5462.119598534189208   dF: -2.143e-03   |Residual|: 4.941e-02   |deigs|: 1.455e-03  t[s]:   3696.05
	FillingsUpdate:  mu: +0.628069503  nElectrons: 519.000000
SCF: Cycle:  8   F: -5462.123391748081303   dF: -3.793e-03   |Residual|: 2.923e-02   |deigs|: 8.918e-04  t[s]:   3721.48
	FillingsUpdate:  mu: +0.628031387  nElectrons: 519.000000
SCF: Cycle:  9   F: -5462.124418816052639   dF: -1.027e-03   |Residual|: 1.256e-02   |deigs|: 4.039e-04  t[s]:   3746.79
	FillingsUpdate:  mu: +0.628179932  nElectrons: 519.000000
SCF: Cycle: 10   F: -5462.124638969284206   dF: -2.202e-04   |Residual|: 5.718e-03   |deigs|: 3.053e-04  t[s]:   3772.25
	FillingsUpdate:  mu: +0.628183943  nElectrons: 519.000000
SCF: Cycle: 11   F: -5462.124669836815883   dF: -3.087e-05   |Residual|: 2.800e-03   |deigs|: 8.775e-05  t[s]:   3798.63
	FillingsUpdate:  mu: +0.628195761  nElectrons: 519.000000
SCF: Cycle: 12   F: -5462.124676516691579   dF: -6.680e-06   |Residual|: 1.343e-03   |deigs|: 6.271e-05  t[s]:   3825.25
	FillingsUpdate:  mu: +0.628181434  nElectrons: 519.000000
SCF: Cycle: 13   F: -5462.124677740401239   dF: -1.224e-06   |Residual|: 7.995e-04   |deigs|: 3.152e-05  t[s]:   3851.04
	FillingsUpdate:  mu: +0.628181847  nElectrons: 519.000000
SCF: Cycle: 14   F: -5462.124678242098526   dF: -5.017e-07   |Residual|: 3.456e-04   |deigs|: 1.052e-05  t[s]:   3876.62
	FillingsUpdate:  mu: +0.628184305  nElectrons: 519.000000
SCF: Cycle: 15   F: -5462.124678324684282   dF: -8.259e-08   |Residual|: 2.079e-04   |deigs|: 6.607e-06  t[s]:   3902.18
	FillingsUpdate:  mu: +0.628183904  nElectrons: 519.000000
SCF: Cycle: 16   F: -5462.124678366749322   dF: -4.207e-08   |Residual|: 6.691e-05   |deigs|: 3.438e-06  t[s]:   3927.50
	FillingsUpdate:  mu: +0.628183219  nElectrons: 519.000000
SCF: Cycle: 17   F: -5462.124678366807530   dF: -5.821e-11   |Residual|: 5.519e-05   |deigs|: 1.656e-06  t[s]:   3952.82
	FillingsUpdate:  mu: +0.628183481  nElectrons: 519.000000
SCF: Cycle: 18   F: -5462.124678369042158   dF: -2.235e-09   |Residual|: 3.667e-05   |deigs|: 1.220e-06  t[s]:   3979.19
SCF: Converged (|Delta E|<1.000000e-08 for 2 iters).

Setting wave functions to eigenvectors of Hamiltonian

# Ionic positions in lattice coordinates:
ion Cu   0.000000000000000   0.000000000000000   0.000000000000000 0
ion Cu  -0.010437108506725  -0.034664712707891   0.381872857993407 1
ion Cu   0.001863830062512   0.008102157433506   0.669245715353712 1
ion Cu  -0.010642536403599   0.379774979073517  -0.016028008708751 1
ion Cu  -0.001816581332992   0.340278231763589   0.335358538351655 1
ion Cu  -0.001537213459898   0.342544643980495   0.667007738785892 1
ion Cu  -0.005364728909207   0.676414005182377   0.000135315356379 1
ion Cu  -0.001196531611160   0.662204139638582   0.331846959052754 1
ion Cu  -0.008270760973423   0.662377853130457   0.670860512484579 1
ion Cu   0.352993794543454  -0.008479111052059  -0.014888562790116 1
ion Cu   0.332155194027223  -0.006287904746129   0.329683581387322 1
ion Cu   0.331669536355778  -0.002730541998691   0.660008843170981 1
ion Cu   0.337944238517357   0.331920055850933  -0.014042849656707 1
ion Cu   0.331488306151300   0.329306708548865   0.330057454025399 1
ion Cu   0.339327976681899   0.335577784252082   0.656501850443508 1
ion Cu   0.328354216565511   0.664457536943498  -0.016480532321530 1
ion Cu   0.327968121830880   0.658773474309864   0.324162803193842 1
ion Cu   0.335389285725490   0.660305170827466   0.656653106625107 1
ion Cu   0.670560507951669   0.000390006408182   0.011148391325146 1
ion Cu   0.665867166170829   0.003019339739523   0.339871842032560 1
ion Cu   0.661641425973227   0.013975396488908   0.672736337216428 1
ion Cu   0.648372139211534   0.336620585698124  -0.007183959233627 1
ion Cu   0.666591472607340   0.343636692131245   0.334044106465503 1
ion Cu   0.667416989594242   0.334307781727815   0.661270165050401 1
ion Cu   0.656977565421664   0.673607141704307   0.005454233565804 1
ion Cu   0.664630296794240   0.667903188712098   0.342330804672271 1
ion Cu   0.667774747779966   0.676091874626496   0.671539081376715 1
ion O   0.070630213117812   0.094949592399494   0.106241200993295 1

# Forces in Lattice coordinates:
force Cu  -1.002326059719842  -1.002528015924304  -1.064280183189977 0
force Cu   0.027532352591162   0.116801243076768   0.527316664763557 1
force Cu  -0.035129313053014  -0.052582706998666   0.005876626387976 1
force Cu  -0.087428505687369   0.183073624740025  -0.021132185102939 1
force Cu  -0.010389824660110  -0.076889408658298  -0.036482827287909 1
force Cu  -0.085872110435233  -0.126942123143589  -0.084048776665462 1
force Cu   0.018982323982665   0.036727325998647  -0.008975383441901 1
force Cu  -0.024541826835315  -0.002573037331958   0.009712959047381 1
force Cu   0.163402134121997   0.156278059312421   0.118002847210517 1
force Cu   0.477664152943732  -0.010318492294976  -0.019027263056607 1
force Cu   0.078643594823583   0.066898697044994   0.072157164352983 1
force Cu   0.069568247830627   0.057554154962524   0.016261633005669 1
force Cu  -0.035981975667717   0.017767701658737   0.077146324820983 1
force Cu   0.016476938028212  -0.015164749886695  -0.020276255288530 1
force Cu  -0.108863305446165  -0.063506251639474  -0.067786734650468 1
force Cu   0.112245661729881   0.079939794154587   0.146325846826755 1
force Cu   0.132358159293169   0.071385308545327   0.111214072377055 1
force Cu  -0.030647340697076   0.082227857744062   0.028341800436715 1
force Cu  -0.123341807945222  -0.096370505132244  -0.126051647417513 1
force Cu  -0.083962959060957  -0.029058977027603  -0.031666562683071 1
force Cu  -0.041680023299668  -0.139983353066539  -0.048525586954367 1
force Cu   0.286478876031535   0.220965093769138   0.218337764972500 1
force Cu  -0.095813179991286  -0.115172054626993  -0.121094219514225 1
force Cu   0.116038706628731   0.119811349757544   0.111783897595521 1
force Cu   0.005266123944920  -0.027341614735231  -0.016437786227716 1
force Cu  -0.037898719626912  -0.003600116546854  -0.078984449036085 1
force Cu  -0.135914056747866  -0.115221763082200  -0.120084765330594 1
force O   0.434802510313679   0.667825267624308   0.422003334482842 1

# Energy components:
   Eewald =    -3334.6617046454143747
       EH =     1934.8035042783601511
     Eloc =    -5100.3607989386919144
      Enl =      993.5079521068216764
      Exc =     -522.4504204256832054
 Exc_core =        1.2758236644167247
       KE =      565.8444622898944090
-------------------------------------
     Etot =    -5462.0411816702971919
       TS =        0.0834966987453996
-------------------------------------
        F =    -5462.1246783690421580

IonicMinimize: Iter:   5  F: -5462.124678369042158  |grad|_K:  9.953e-03  alpha:  3.456e-01  linmin: -6.378e-01  t[s]:   3984.79

#--- Lowdin population analysis ---
# oxidation-state Cu +0.118 +0.095 +0.069 +0.104 +0.093 +0.080 +0.064 +0.068 +0.049 +0.114 +0.091 +0.073 +0.078 +0.067 +0.072 +0.070 +0.080 +0.085 +0.065 +0.083 +0.061 +0.082 +0.095 +0.067 +0.066 +0.076 +0.083
# oxidation-state O -0.073


-------- Electronic minimization -----------
Will mix electronic density at each iteration.
	FillingsUpdate:  mu: +0.628183481  nElectrons: 519.000000
	FillingsUpdate:  mu: +0.631260774  nElectrons: 519.000000
SCF: Cycle:  0   F: -5459.868927626314871   dF: +9.185e-01   |Residual|: 9.252e-01   |deigs|: 3.449e-03  t[s]:   4041.77
	FillingsUpdate:  mu: +0.637340803  nElectrons: 519.000000
SCF: Cycle:  1   F: -5459.485376581438686   dF: +3.836e-01   |Residual|: 1.571e+00   |deigs|: 3.165e-02  t[s]:   4082.46
	FillingsUpdate:  mu: +0.625189801  nElectrons: 519.000000
SCF: Cycle:  2   F: -5461.825074848012264   dF: -2.340e+00   |Residual|: 4.990e-01   |deigs|: 2.959e-02  t[s]:   4122.37
	FillingsUpdate:  mu: +0.628010554  nElectrons: 519.000000
SCF: Cycle:  3   F: -5462.018165071937801   dF: -1.931e-01   |Residual|: 3.451e-01   |deigs|: 1.008e-02  t[s]:   4162.76
	FillingsUpdate:  mu: +0.630092309  nElectrons: 519.000000
SCF: Cycle:  4   F: -5462.090819626312623   dF: -7.265e-02   |Residual|: 1.955e-01   |deigs|: 3.844e-03  t[s]:   4202.71
	FillingsUpdate:  mu: +0.626980297  nElectrons: 519.000000
SCF: Cycle:  5   F: -5462.135163311037104   dF: -4.434e-02   |Residual|: 7.309e-02   |deigs|: 3.452e-03  t[s]:   4242.48
	FillingsUpdate:  mu: +0.627679019  nElectrons: 519.000000
SCF: Cycle:  6   F: -5462.137103191118513   dF: -1.940e-03   |Residual|: 4.496e-02   |deigs|: 1.327e-03  t[s]:   4278.34
	FillingsUpdate:  mu: +0.627736429  nElectrons: 519.000000
SCF: Cycle:  7   F: -5462.138495542837518   dF: -1.392e-03   |Residual|: 2.372e-02   |deigs|: 9.702e-04  t[s]:   4304.35
	FillingsUpdate:  mu: +0.627758150  nElectrons: 519.000000
SCF: Cycle:  8   F: -5462.139366683654771   dF: -8.711e-04   |Residual|: 1.161e-02   |deigs|: 4.194e-04  t[s]:   4330.92
	FillingsUpdate:  mu: +0.627778357  nElectrons: 519.000000
SCF: Cycle:  9   F: -5462.139516765118969   dF: -1.501e-04   |Residual|: 4.556e-03   |deigs|: 2.066e-04  t[s]:   4356.70
	FillingsUpdate:  mu: +0.627866147  nElectrons: 519.000000
SCF: Cycle: 10   F: -5462.139502431238725   dF: +1.433e-05   |Residual|: 4.903e-03   |deigs|: 1.440e-04  t[s]:   4382.66
	FillingsUpdate:  mu: +0.627811918  nElectrons: 519.000000
SCF: Cycle: 11   F: -5462.139529175023199   dF: -2.674e-05   |Residual|: 2.398e-03   |deigs|: 1.335e-04  t[s]:   4408.49
	FillingsUpdate:  mu: +0.627823430  nElectrons: 519.000000
SCF: Cycle: 12   F: -5462.139535877757226   dF: -6.703e-06   |Residual|: 8.542e-04   |deigs|: 3.864e-05  t[s]:   4434.26
	FillingsUpdate:  mu: +0.627823308  nElectrons: 519.000000
SCF: Cycle: 13   F: -5462.139536692136062   dF: -8.144e-07   |Residual|: 1.862e-04   |deigs|: 1.054e-05  t[s]:   4459.96
	FillingsUpdate:  mu: +0.627824813  nElectrons: 519.000000
SCF: Cycle: 14   F: -5462.139536671462338   dF: +2.067e-08   |Residual|: 2.284e-04   |deigs|: 4.261e-06  t[s]:   4485.53
	FillingsUpdate:  mu: +0.627824586  nElectrons: 519.000000
SCF: Cycle: 15   F: -5462.139536722600496   dF: -5.114e-08   |Residual|: 7.245e-05   |deigs|: 2.791e-06  t[s]:   4510.17
	FillingsUpdate:  mu: +0.627824177  nElectrons: 519.000000
SCF: Cycle: 16   F: -5462.139536726077495   dF: -3.477e-09   |Residual|: 4.457e-05   |deigs|: 1.254e-06  t[s]:   4536.09
	FillingsUpdate:  mu: +0.627824215  nElectrons: 519.000000
SCF: Cycle: 17   F: -5462.139536727835548   dF: -1.758e-09   |Residual|: 1.479e-05   |deigs|: 5.041e-07  t[s]:   4562.39
SCF: Converged (|Delta E|<1.000000e-08 for 2 iters).

Setting wave functions to eigenvectors of Hamiltonian

# Ionic positions in lattice coordinates:
ion Cu   0.000000000000000   0.000000000000000   0.000000000000000 0
ion Cu  -0.014177026548973  -0.033504902580008   0.387990960309559 1
ion Cu   0.001363088574440   0.006752022328696   0.670851218241807 1
ion Cu  -0.014625311672496   0.383674051251132  -0.016878994752274 1
ion Cu  -0.001117146804941   0.338440142489618   0.335097845408037 1
ion Cu  -0.002089666019062   0.340710724219422   0.666601693220167 1
ion Cu  -0.004801633757817   0.678095021896584  -0.000552892895696 1
ion Cu  -0.001848633591557   0.662572351349851   0.332523643399128 1
ion Cu  -0.006449457669739   0.663712084648425   0.671223417372677 1
ion Cu   0.359086997060816  -0.011502087816745  -0.016912405117478 1
ion Cu   0.333118630291937  -0.005728493038152   0.330389610706175 1
ion Cu   0.332745325821651  -0.001799723394454   0.659531345198431 1
ion Cu   0.336588369370675   0.332259281382412  -0.011726708047819 1
ion Cu   0.332269860666460   0.329106102533045   0.329276644406539 1
ion Cu   0.337768188006744   0.335319193764475   0.656345217393804 1
ion Cu   0.329309437521820   0.664358796191661  -0.013730005164231 1
ion Cu   0.329754161732962   0.658890612393752   0.325553633150239 1
ion Cu   0.333362075610023   0.662585810490187   0.657322867917840 1
ion Cu   0.669039256531761   0.000898926031104   0.009336013682176 1
ion Cu   0.664296165228617   0.003263848173776   0.339589722592989 1
ion Cu   0.662055627516383   0.011247912338976   0.672970838729051 1
ion Cu   0.652689409792569   0.337605362621324  -0.005444259230800 1
ion Cu   0.666028365152954   0.342022316107105   0.332986320575753 1
ion Cu   0.668018156391617   0.335522350354261   0.662278613617097 1
ion Cu   0.657722317006638   0.672685886988426   0.005036726642007 1
ion Cu   0.664355590777384   0.668695891430781   0.340247328440981 1
ion Cu   0.666658849451238   0.674891577059192   0.670241368540023 1
ion O   0.074871235913824   0.099316973909467   0.105372935066444 1

# Forces in Lattice coordinates:
force Cu  -0.715037605520734  -0.699027346928830  -0.733038325286582 0
force Cu   0.024538189854812   0.117910171736654   0.189207627105290 1
force Cu  -0.007554052564663  -0.013598800346401   0.030545289504017 1
force Cu  -0.065789471905216   0.129655963335644  -0.014702258996802 1
force Cu  -0.016732967908998  -0.050385612341540  -0.027169683021755 1
force Cu  -0.049459357220605  -0.074562099516292  -0.055902114913474 1
force Cu   0.025380203450408   0.028484610644532   0.012601327451746 1
force Cu  -0.004444853403786   0.010580758982692   0.021512740312757 1
force Cu   0.095156227905214   0.073554359512444   0.067899329452437 1
force Cu   0.319581176619381   0.006057616445313   0.007039711412581 1
force Cu   0.049462147773785   0.046630473713604   0.050988952270458 1
force Cu   0.044875714850687   0.039832824758403   0.021332371666075 1
force Cu  -0.008288975329918   0.031152965019572   0.056458081107742 1
force Cu   0.008772718547438   0.002938062444137  -0.011167906824047 1
force Cu  -0.061115046505189  -0.032078964874332  -0.028595417278984 1
force Cu   0.086379341117862   0.059796639076124   0.110895569693238 1
force Cu   0.089567039050328   0.064343391820412   0.089358711321912 1
force Cu  -0.004257459293213   0.060292755768158   0.038580928318964 1
force Cu  -0.063095618171228  -0.035155129071823  -0.073868397171726 1
force Cu  -0.051039180408868  -0.030978161258901  -0.035615437188920 1
force Cu  -0.038812182516207  -0.089137853910096  -0.038022844531822 1
force Cu   0.192097845558119   0.139442564460436   0.145521415768957 1
force Cu  -0.064425167302760  -0.082681432191536  -0.065851615366581 1
force Cu   0.053977065567053   0.068019029096041   0.065264394728477 1
force Cu   0.005482181660335  -0.020087321607690  -0.016712255085450 1
force Cu  -0.032271464478359  -0.019896915853127  -0.066101774645215 1
force Cu  -0.089101856807735  -0.084988769137428  -0.085991343363847 1
force O   0.276125291110306   0.353838928977485   0.345422754388854 1

# Energy components:
   Eewald =    -3335.5523511115520705
       EH =     1934.0106065980091898
     Eloc =    -5098.6390199073257463
      Enl =      993.4866544841918312
      Exc =     -522.4295500849196969
 Exc_core =        1.2758239005156997
       KE =      565.7918335027077319
-------------------------------------
     Etot =    -5462.0560026183720765
       TS =        0.0835341094633844
-------------------------------------
        F =    -5462.1395367278355479

IonicMinimize: Iter:   6  F: -5462.139536727835548  |grad|_K:  5.813e-03  alpha:  4.151e-01  linmin: -5.864e-01  t[s]:   4567.99

#--- Lowdin population analysis ---
# oxidation-state Cu +0.123 +0.097 +0.066 +0.100 +0.096 +0.079 +0.063 +0.071 +0.049 +0.111 +0.092 +0.073 +0.085 +0.066 +0.077 +0.071 +0.083 +0.084 +0.066 +0.082 +0.059 +0.081 +0.095 +0.071 +0.062 +0.077 +0.084
# oxidation-state O -0.089


-------- Electronic minimization -----------
Will mix electronic density at each iteration.
	FillingsUpdate:  mu: +0.627824215  nElectrons: 519.000000
	FillingsUpdate:  mu: +0.628406248  nElectrons: 519.000000
SCF: Cycle:  0   F: -5460.501156472203547   dF: +3.407e-01   |Residual|: 8.429e-01   |deigs|: 3.183e-03  t[s]:   4624.59
	FillingsUpdate:  mu: +0.636700942  nElectrons: 519.000000
SCF: Cycle:  1   F: -5459.880505519563485   dF: +6.207e-01   |Residual|: 1.425e+00   |deigs|: 2.361e-02  t[s]:   4665.73
	FillingsUpdate:  mu: +0.625617019  nElectrons: 519.000000
SCF: Cycle:  2   F: -5461.901873248602897   dF: -2.021e+00   |Residual|: 4.447e-01   |deigs|: 2.434e-02  t[s]:   4705.17
	FillingsUpdate:  mu: +0.628089838  nElectrons: 519.000000
SCF: Cycle:  3   F: -5461.997128033777699   dF: -9.525e-02   |Residual|: 3.602e-01   |deigs|: 8.365e-03  t[s]:   4746.80
	FillingsUpdate:  mu: +0.628715926  nElectrons: 519.000000
SCF: Cycle:  4   F: -5462.125204776244573   dF: -1.281e-01   |Residual|: 1.503e-01   |deigs|: 3.104e-03  t[s]:   4787.33
	FillingsUpdate:  mu: +0.627699585  nElectrons: 519.000000
SCF: Cycle:  5   F: -5462.134298289932303   dF: -9.094e-03   |Residual|: 1.025e-01   |deigs|: 2.297e-03  t[s]:   4828.00
	FillingsUpdate:  mu: +0.627024650  nElectrons: 519.000000
SCF: Cycle:  6   F: -5462.145903108027596   dF: -1.160e-02   |Residual|: 3.781e-02   |deigs|: 1.304e-03  t[s]:   4869.45
	FillingsUpdate:  mu: +0.627533787  nElectrons: 519.000000
SCF: Cycle:  7   F: -5462.147246840835578   dF: -1.344e-03   |Residual|: 1.856e-02   |deigs|: 6.760e-04  t[s]:   4895.76
	FillingsUpdate:  mu: +0.627503914  nElectrons: 519.000000
SCF: Cycle:  8   F: -5462.147530857021593   dF: -2.840e-04   |Residual|: 1.140e-02   |deigs|: 2.231e-04  t[s]:   4921.28
	FillingsUpdate:  mu: +0.627547588  nElectrons: 519.000000
SCF: Cycle:  9   F: -5462.147707477859512   dF: -1.766e-04   |Residual|: 2.936e-03   |deigs|: 1.798e-04  t[s]:   4947.33
	FillingsUpdate:  mu: +0.627587225  nElectrons: 519.000000
SCF: Cycle: 10   F: -5462.147702089335326   dF: +5.389e-06   |Residual|: 3.293e-03   |deigs|: 7.666e-05  t[s]:   4973.77
	FillingsUpdate:  mu: +0.627556276  nElectrons: 519.000000
SCF: Cycle: 11   F: -5462.147714389468092   dF: -1.230e-05   |Residual|: 1.417e-03   |deigs|: 7.395e-05  t[s]:   4998.69
	FillingsUpdate:  mu: +0.627554435  nElectrons: 519.000000
SCF: Cycle: 12   F: -5462.147716274818777   dF: -1.885e-06   |Residual|: 6.994e-04   |deigs|: 1.880e-05  t[s]:   5023.82
	FillingsUpdate:  mu: +0.627557601  nElectrons: 519.000000
SCF: Cycle: 13   F: -5462.147716716323885   dF: -4.415e-07   |Residual|: 1.865e-04   |deigs|: 8.325e-06  t[s]:   5048.96
	FillingsUpdate:  mu: +0.627557851  nElectrons: 519.000000
SCF: Cycle: 14   F: -5462.147716726771250   dF: -1.045e-08   |Residual|: 1.495e-04   |deigs|: 3.140e-06  t[s]:   5074.05
	FillingsUpdate:  mu: +0.627557824  nElectrons: 519.000000
SCF: Cycle: 15   F: -5462.147716749521351   dF: -2.275e-08   |Residual|: 4.673e-05   |deigs|: 2.098e-06  t[s]:   5099.33
	FillingsUpdate:  mu: +0.627558081  nElectrons: 519.000000
SCF: Cycle: 16   F: -5462.147716750839209   dF: -1.318e-09   |Residual|: 2.774e-05   |deigs|: 7.391e-07  t[s]:   5124.61
	FillingsUpdate:  mu: +0.627558061  nElectrons: 519.000000
SCF: Cycle: 17   F: -5462.147716750996551   dF: -1.573e-10   |Residual|: 2.256e-05   |deigs|: 4.378e-07  t[s]:   5150.96
SCF: Converged (|Delta E|<1.000000e-08 for 2 iters).

Setting wave functions to eigenvectors of Hamiltonian

# Ionic positions in lattice coordinates:
ion Cu   0.000000000000000   0.000000000000000   0.000000000000000 0
ion Cu  -0.016837313152088  -0.029966061182717   0.390145304077889 1
ion Cu   0.000827470203642   0.005681317777734   0.672917139933340 1
ion Cu  -0.018948104989122   0.388075942672595  -0.017742773938306 1
ion Cu  -0.000754049644450   0.336795670913961   0.334846447415436 1
ion Cu  -0.002448550017229   0.339082554969661   0.665973620704439 1
ion Cu  -0.004068075760576   0.679429286220645  -0.000743980112151 1
[...]
	FillingsUpdate:  mu: +0.627103074  nElectrons: 519.000000
SCF: Cycle:  0   F: -5462.159088148020601   dF: -4.413e-05   |Residual|: 1.772e-03   |deigs|: 6.041e-07  t[s]:  13292.96
	FillingsUpdate:  mu: +0.627096459  nElectrons: 519.000000
SCF: Cycle:  1   F: -5462.159079574293173   dF: +8.574e-06   |Residual|: 3.433e-03   |deigs|: 4.886e-05  t[s]:  13317.97
	FillingsUpdate:  mu: +0.627098018  nElectrons: 519.000000
SCF: Cycle:  2   F: -5462.159093520436727   dF: -1.395e-05   |Residual|: 5.808e-04   |deigs|: 4.406e-05  t[s]:  13343.07
	FillingsUpdate:  mu: +0.627102267  nElectrons: 519.000000
SCF: Cycle:  3   F: -5462.159093531856342   dF: -1.142e-08   |Residual|: 3.780e-04   |deigs|: 7.330e-06  t[s]:  13368.50
	FillingsUpdate:  mu: +0.627100529  nElectrons: 519.000000
SCF: Cycle:  4   F: -5462.159093606557690   dF: -7.470e-08   |Residual|: 2.856e-04   |deigs|: 5.255e-06  t[s]:  13393.86
	FillingsUpdate:  mu: +0.627099965  nElectrons: 519.000000
SCF: Cycle:  5   F: -5462.159093699728146   dF: -9.317e-08   |Residual|: 7.392e-05   |deigs|: 2.410e-06  t[s]:  13419.96
	FillingsUpdate:  mu: +0.627099931  nElectrons: 519.000000
SCF: Cycle:  6   F: -5462.159093703782673   dF: -4.055e-09   |Residual|: 4.093e-05   |deigs|: 7.973e-07  t[s]:  13445.72
	FillingsUpdate:  mu: +0.627100096  nElectrons: 519.000000
SCF: Cycle:  7   F: -5462.159093705549822   dF: -1.767e-09   |Residual|: 1.488e-05   |deigs|: 5.456e-07  t[s]:  13471.44
SCF: Converged (|Delta E|<1.000000e-08 for 2 iters).

Setting wave functions to eigenvectors of Hamiltonian

# Ionic positions in lattice coordinates:
ion Cu   0.000000000000000   0.000000000000000   0.000000000000000 0
ion Cu   0.000272631024097   0.000753572910108   0.388581299638563 1
ion Cu   0.014886478489480   0.015106956207656   0.679547256282494 1
ion Cu   0.000393440487448   0.389595448426659  -0.000758621821252 1
ion Cu   0.012804230586433   0.349434493526681   0.349104113092825 1
ion Cu   0.012802386957071   0.349443412387954   0.677990804167288 1
ion Cu   0.014720637818158   0.679800602503935   0.015143371030159 1
ion Cu   0.012421123033435   0.678508015404060   0.349243817032109 1
ion Cu   0.015122308248648   0.680029915192064   0.678773250130147 1
ion Cu   0.390522031014761  -0.001108441631116  -0.000495855619552 1
ion Cu   0.348931624406693   0.012869315697990   0.349175285965845 1
ion Cu   0.349059067600990   0.012739721864767   0.678113212234285 1
ion Cu   0.348976004635884   0.348820638149953   0.013370571058966 1
ion Cu   0.347045613761698   0.347082750628746   0.347767269095401 1
ion Cu   0.349481279499330   0.348742524792370   0.678022719348885 1
ion Cu   0.348912804959161   0.677595421381599   0.013538718601620 1
ion Cu   0.349110563696560   0.677639626106484   0.349125304355066 1
ion Cu   0.347196811309811   0.680368927773984   0.680948309065240 1
ion Cu   0.679407299307872   0.015127768533999   0.015491951520521 1
ion Cu   0.677985986962429   0.012875079951963   0.349526810292844 1
ion Cu   0.680478977590970   0.014698483750669   0.679174872293204 1
ion Cu   0.677934011676016   0.349111342234632   0.013523880555788 1
ion Cu   0.677904414043865   0.349049938358690   0.349300564648218 1
ion Cu   0.680506697122561   0.347408963769357   0.681038904364243 1
ion Cu   0.680331284828751   0.679170341794558   0.014965119649963 1
ion Cu   0.680100712116032   0.680504245908763   0.348000475959903 1
ion Cu   0.680087850273626   0.680489116207741   0.681154723961997 1
ion O   0.098643389570686   0.097293720929647   0.096086589264069 1

# Forces in Lattice coordinates:
force Cu  -0.007659890034471  -0.005257776988865  -0.006062470210459 0
force Cu  -0.001297081211545  -0.002740380371075  -0.001935638042653 1
force Cu   0.001610153152494   0.001426278895548   0.002462684243638 1
force Cu   0.001057481967200   0.002234714418236   0.003350070401607 1
force Cu  -0.000056877548752  -0.001092036448132  -0.000970996953689 1
force Cu  -0.000161714503514  -0.001124596052158   0.000484809653337 1
force Cu  -0.000135363647102  -0.001185312692580  -0.001229416493985 1
force Cu   0.001121652297782  -0.001689336366882  -0.000089479736145 1
force Cu   0.000898084384335  -0.000993755897188   0.004795751514290 1
force Cu   0.007564547602504   0.003570688053127   0.002077000858469 1
force Cu   0.001563688898301   0.001686633618220   0.001332002831095 1
force Cu   0.001964481538588   0.001235676144125   0.001477247053850 1
force Cu   0.000499565696276   0.000439568135530   0.000172928931299 1
force Cu   0.000207466261577   0.000531736056834  -0.000821303838526 1
force Cu  -0.001306417151397  -0.000065233819028  -0.001629670130156 1
force Cu   0.001134769635411   0.000807661809363  -0.001484339854041 1
force Cu   0.001126518240364   0.000848710789375   0.000541925915480 1
force Cu   0.000721886321725   0.000003206475123  -0.000399481063553 1
force Cu   0.002650988802218  -0.001432591878373  -0.001613702476757 1
force Cu  -0.000952391982941  -0.000024695277685  -0.001607690010600 1
force Cu  -0.004029694850995  -0.000069976326474   0.002501049301308 1
force Cu  -0.000860051868582  -0.001920494761673  -0.002176080476092 1
force Cu   0.000869086117123   0.000318047169237  -0.001220723993447 1
force Cu  -0.000921889259014  -0.000186769956059  -0.001363367190077 1
force Cu  -0.003197466553594   0.000878384944236  -0.000790403687493 1
force Cu   0.001840893940565   0.001267394107372   0.000502023540179 1
force Cu   0.001162344508735  -0.000060420167716  -0.001123450587427 1
force O  -0.003845558023619   0.004024840388947   0.006297665983293 1

# Energy components:
   Eewald =    -3335.2835316193768449
       EH =     1934.2893590374151245
     Eloc =    -5099.1102489539671296
      Enl =      993.4396668279475762
      Exc =     -522.3972827282933622
 Exc_core =        1.2758260197852906
       KE =      565.7107705419618924
-------------------------------------
     Etot =    -5462.0754408745269757
       TS =        0.0836528310232993
-------------------------------------
        F =    -5462.1590937055498216

IonicMinimize: Iter:  24  F: -5462.159093705549822  |grad|_K:  1.552e-04  alpha:  1.000e+00  linmin: -2.786e-01  t[s]:  13476.96

#--- Lowdin population analysis ---
# oxidation-state Cu +0.108 +0.108 +0.059 +0.108 +0.084 +0.084 +0.059 +0.084 +0.058 +0.107 +0.085 +0.085 +0.085 +0.065 +0.085 +0.084 +0.084 +0.081 +0.059 +0.084 +0.058 +0.084 +0.084 +0.081 +0.058 +0.081 +0.080
# oxidation-state O -0.113


-------- Electronic minimization -----------
Will mix electronic density at each iteration.
	FillingsUpdate:  mu: +0.627100096  nElectrons: 519.000000
	FillingsUpdate:  mu: +0.627100806  nElectrons: 519.000000
SCF: Cycle:  0   F: -5462.159097303437193   dF: -6.237e-05   |Residual|: 1.913e-03   |deigs|: 8.630e-07  t[s]:  13520.89
	FillingsUpdate:  mu: +0.627088361  nElectrons: 519.000000
SCF: Cycle:  1   F: -5462.159089825237061   dF: +7.478e-06   |Residual|: 3.592e-03   |deigs|: 3.474e-05  t[s]:  13546.09
	FillingsUpdate:  mu: +0.627092947  nElectrons: 519.000000
SCF: Cycle:  2   F: -5462.159104602226762   dF: -1.478e-05   |Residual|: 6.795e-04   |deigs|: 2.905e-05  t[s]:  13571.61
	FillingsUpdate:  mu: +0.627096939  nElectrons: 519.000000
SCF: Cycle:  3   F: -5462.159104599422790   dF: +2.804e-09   |Residual|: 5.124e-04   |deigs|: 9.149e-06  t[s]:  13597.36
	FillingsUpdate:  mu: +0.627095954  nElectrons: 519.000000
SCF: Cycle:  4   F: -5462.159104736057998   dF: -1.366e-07   |Residual|: 3.594e-04   |deigs|: 7.584e-06  t[s]:  13627.54
	FillingsUpdate:  mu: +0.627094693  nElectrons: 519.000000
SCF: Cycle:  5   F: -5462.159104892505638   dF: -1.564e-07   |Residual|: 9.120e-05   |deigs|: 3.760e-06  t[s]:  13653.35
	FillingsUpdate:  mu: +0.627094713  nElectrons: 519.000000
SCF: Cycle:  6   F: -5462.159104898332771   dF: -5.827e-09   |Residual|: 5.555e-05   |deigs|: 1.365e-06  t[s]:  13679.09
	FillingsUpdate:  mu: +0.627094798  nElectrons: 519.000000
SCF: Cycle:  7   F: -5462.159104901891624   dF: -3.559e-09   |Residual|: 1.807e-05   |deigs|: 9.768e-07  t[s]:  13704.30
SCF: Converged (|Delta E|<1.000000e-08 for 2 iters).

Setting wave functions to eigenvectors of Hamiltonian

# Ionic positions in lattice coordinates:
ion Cu   0.000000000000000   0.000000000000000   0.000000000000000 0
ion Cu   0.000206680504513   0.000477919324337   0.389071902825278 1
ion Cu   0.014847323603337   0.015218436134636   0.679674534829731 1
ion Cu   0.000217712957604   0.389644202428178  -0.000372326118937 1
ion Cu   0.012924828395941   0.349380078097506   0.349142057855386 1
ion Cu   0.013027042776570   0.349364124405758   0.678028578203478 1
ion Cu   0.014797448709850   0.679839165449801   0.015185971754699 1
ion Cu   0.012902394001147   0.678265542049223   0.349310285009966 1
ion Cu   0.015227062074126   0.679923493997289   0.679249344151029 1
ion Cu   0.390307643669418  -0.000750915935283  -0.000272512277679 1
ion Cu   0.348938497406659   0.013024019746661   0.349153493914303 1
ion Cu   0.349280463805199   0.012829991454051   0.678033797845520 1
ion Cu   0.348925139236333   0.348982083518069   0.013399362843244 1
ion Cu   0.347354686945582   0.347124082616489   0.347621279808825 1
ion Cu   0.349477126671033   0.348905899234248   0.678000117445024 1
ion Cu   0.349192136485091   0.677745520864375   0.013367112860378 1
ion Cu   0.349306777903835   0.677668079896065   0.349257638431610 1
ion Cu   0.347367064952645   0.680550829187257   0.680945177390178 1
ion Cu   0.679574492017900   0.015165123232582   0.015254381208041 1
ion Cu   0.678153589052195   0.012832358849081   0.349362741660940 1
ion Cu   0.680220310263755   0.014783025307070   0.679345849858003 1
ion Cu   0.678094944745681   0.349117315019050   0.013325326572875 1
ion Cu   0.678077177412216   0.349007995708697   0.349236505103362 1
ion Cu   0.680509317010835   0.347582273923825   0.680937011833341 1
ion Cu   0.680088269457899   0.679368253321249   0.015094827622318 1
ion Cu   0.680331705537454   0.680585184343090   0.348011187255042 1
ion Cu   0.680536884669025   0.680481425897761   0.681004051579124 1
ion O   0.098187396058667   0.097287233434023   0.096504066065068 1

# Forces in Lattice coordinates:
force Cu  -0.004565282666100  -0.004011906440137  -0.004202479288780 0
force Cu  -0.001122646440172  -0.002955736744117  -0.005735266425745 1
force Cu   0.002132472261669   0.000894096225309   0.001273077967959 1
force Cu   0.000653868314552  -0.000721271309658   0.001306589319662 1
force Cu   0.000419247540483  -0.000284823420092   0.000141792793672 1
force Cu  -0.000072688739924  -0.000640648108197   0.000640563830809 1
force Cu   0.000633422241439  -0.000875650442305  -0.000119787089748 1
force Cu  -0.000083113650763  -0.000691126908819  -0.000571445389512 1
force Cu  -0.000746925041921  -0.001637233739573   0.001389544211686 1
force Cu   0.001039813423513   0.002229586470829   0.000657064964467 1
force Cu   0.002244943230251   0.001267632434089   0.001690903410989 1
force Cu   0.000765233853808   0.000799582489381   0.001651969244386 1
force Cu   0.001319076636346   0.000433482190058  -0.000308346419392 1
force Cu  -0.000603781396884   0.000165054479742  -0.000739071616484 1
force Cu  -0.001159096514131  -0.000235831514085  -0.000584866706813 1
force Cu   0.000016415726377   0.000725556824954  -0.000903105891018 1
force Cu  -0.000136028278682   0.000645438495071  -0.000214556936347 1
force Cu   0.000254496917361  -0.000481648678225  -0.000773592585474 1
force Cu   0.001105260969196  -0.000880877562942  -0.000124539204801 1
force Cu  -0.000084841802463   0.000756349292506  -0.000183705783338 1
force Cu  -0.002368025558220   0.000316429704200   0.002052434162444 1
force Cu  -0.000632024255763  -0.000911654013383  -0.001102853916221 1
force Cu   0.000343865148437   0.000823203715507  -0.000096621496370 1
force Cu  -0.000661654280951  -0.000708299598694  -0.001271808498660 1
force Cu  -0.001333143200446   0.000022353782319  -0.000812811877247 1
force Cu   0.000497986173173  -0.000067545237050  -0.001138584647198 1
force Cu  -0.000272178169904  -0.000139039975991  -0.001093862896853 1
force O   0.001052772118004   0.005044353021422   0.008180400855621 1

# Energy components:
   Eewald =    -3335.2545850704450459
       EH =     1934.3182862709074925
     Eloc =    -5099.1678950051809807
      Enl =      993.4393820472479320
      Exc =     -522.3972007724091782
 Exc_core =        1.2758260151653573
       KE =      565.7107333100636879
-------------------------------------
     Etot =    -5462.0754532046503300
       TS =        0.0836516972414181
-------------------------------------
        F =    -5462.1591049018916237

IonicMinimize: Iter:  25  F: -5462.159104901891624  |grad|_K:  1.117e-04  alpha:  1.000e+00  linmin: -2.317e-01  t[s]:  13709.89

#--- Lowdin population analysis ---
# oxidation-state Cu +0.108 +0.108 +0.059 +0.108 +0.084 +0.084 +0.059 +0.084 +0.058 +0.107 +0.085 +0.085 +0.085 +0.065 +0.084 +0.084 +0.084 +0.081 +0.059 +0.084 +0.058 +0.084 +0.084 +0.081 +0.058 +0.081 +0.080
# oxidation-state O -0.113


-------- Electronic minimization -----------
Will mix electronic density at each iteration.
	FillingsUpdate:  mu: +0.627094798  nElectrons: 519.000000
	FillingsUpdate:  mu: +0.627105679  nElectrons: 519.000000
SCF: Cycle:  0   F: -5462.159090634482709   dF: -1.476e-04   |Residual|: 3.096e-03   |deigs|: 2.154e-06  t[s]:  13751.22
	FillingsUpdate:  mu: +0.627080906  nElectrons: 519.000000
SCF: Cycle:  1   F: -5462.159068216909873   dF: +2.242e-05   |Residual|: 6.002e-03   |deigs|: 5.229e-05  t[s]:  13776.95
	FillingsUpdate:  mu: +0.627091864  nElectrons: 519.000000
SCF: Cycle:  2   F: -5462.159109366883968   dF: -4.115e-05   |Residual|: 1.043e-03   |deigs|: 5.712e-05  t[s]:  13801.67
	FillingsUpdate:  mu: +0.627104527  nElectrons: 519.000000
SCF: Cycle:  3   F: -5462.159109247952074   dF: +1.189e-07   |Residual|: 8.826e-04   |deigs|: 1.896e-05  t[s]:  13826.50
	FillingsUpdate:  mu: +0.627096203  nElectrons: 519.000000
SCF: Cycle:  4   F: -5462.159109873406123   dF: -6.255e-07   |Residual|: 3.728e-04   |deigs|: 1.378e-05  t[s]:  13852.28
	FillingsUpdate:  mu: +0.627093061  nElectrons: 519.000000
SCF: Cycle:  5   F: -5462.159110014768885   dF: -1.414e-07   |Residual|: 1.905e-04   |deigs|: 5.794e-06  t[s]:  13878.08
	FillingsUpdate:  mu: +0.627095045  nElectrons: 519.000000
SCF: Cycle:  6   F: -5462.159110047705326   dF: -3.294e-08   |Residual|: 5.600e-05   |deigs|: 3.602e-06  t[s]:  13903.75
	FillingsUpdate:  mu: +0.627095394  nElectrons: 519.000000
SCF: Cycle:  7   F: -5462.159110049538867   dF: -1.834e-09   |Residual|: 4.135e-05   |deigs|: 9.641e-07  t[s]:  13929.24
	FillingsUpdate:  mu: +0.627095272  nElectrons: 519.000000
SCF: Cycle:  8   F: -5462.159110051155039   dF: -1.616e-09   |Residual|: 1.102e-05   |deigs|: 4.268e-07  t[s]:  13954.64
SCF: Converged (|Delta E|<1.000000e-08 for 2 iters).

Setting wave functions to eigenvectors of Hamiltonian

# Ionic positions in lattice coordinates:
ion Cu   0.000000000000000   0.000000000000000   0.000000000000000 0
ion Cu  -0.000138483995398  -0.000262350899672   0.389512468774350 1
ion Cu   0.014761798256856   0.015108328984762   0.679619581792147 1
ion Cu  -0.000234066258859   0.389640893524913  -0.000268925291699 1
ion Cu   0.012829227513859   0.349106402372175   0.349016763887505 1
ion Cu   0.012951984379290   0.349067999844261   0.677953515674162 1
ion Cu   0.014736474362560   0.679760128394335   0.015026721630569 1
ion Cu   0.013034761214143   0.677883136062771   0.349140650324712 1
ion Cu   0.014978928576076   0.679620049835803   0.679526754731364 1
ion Cu   0.389834721888451  -0.000537753655745  -0.000346526646109 1
ion Cu   0.348865243314350   0.012892277355752   0.348988008987479 1
ion Cu   0.349202475530405   0.012721417794170   0.677869707715755 1
ion Cu   0.348827249012387   0.348932659842042   0.013055352398267 1
ion Cu   0.347310350190100   0.346998915616585   0.347206570662938 1
ion Cu   0.349157697143816   0.348866652983709   0.677715004729905 1
ion Cu   0.349153346464298   0.677777111485100   0.012910924756426 1
ion Cu   0.349167266838818   0.677546819409293   0.349077714285897 1
ion Cu   0.347305637446544   0.680470521564485   0.680612398497360 1
ion Cu   0.679617956742070   0.014945595819675   0.014923619156585 1
ion Cu   0.678038167493646   0.012721786042105   0.349052827672044 1
ion Cu   0.679661807607118   0.014723676540079   0.679459806173403 1
ion Cu   0.678007929925375   0.348955325574433   0.012926901485452 1
ion Cu   0.677957851963514   0.348866747002589   0.348955541172890 1
ion Cu   0.680311733466216   0.347534534927612   0.680564746828951 1
ion Cu   0.679584959677438   0.679418955856339   0.014963435518913 1
ion Cu   0.680344565385032   0.680479108234960   0.347680647540482 1
ion Cu   0.680637407048892   0.680354964909272   0.680596358385563 1
ion O   0.097624341191317   0.097440871342955   0.097126984526799 1

# Forces in Lattice coordinates:
force Cu  -0.003407850676808  -0.004038007529118  -0.003862552449079 0
force Cu  -0.000050325219042  -0.000164520707603  -0.003041105392597 1
force Cu   0.001795545029981   0.000655149690852   0.001884638301396 1
force Cu   0.000645197413217   0.000857242243697  -0.000059012965789 1
force Cu   0.000499307542193  -0.000174639229764   0.000367177718437 1
force Cu   0.000009217515366   0.000220057276099   0.000114726546813 1
force Cu   0.001293874379419   0.000586276055156   0.000716373046772 1
force Cu  -0.000901023377703  -0.000171407471538  -0.000448586983819 1
force Cu  -0.001245389286744  -0.001655314825319  -0.000397608024964 1
force Cu  -0.000671845726912   0.001224291164336   0.000782425282274 1
force Cu   0.001293347510699   0.000552717001227   0.000713514008726 1
force Cu  -0.000085858923669   0.000364625941570   0.000753728636069 1
force Cu   0.001064723033653   0.000385145619255  -0.000179500040555 1
force Cu   0.000061130666744   0.000726247578419   0.000491402542318 1
force Cu  -0.000119844227126   0.000549217621840   0.000664213179419 1
force Cu   0.000041471539937   0.000559751432841   0.000272441294925 1
force Cu  -0.000363012252496   0.000481093563790  -0.000167475824693 1
force Cu   0.000572381279316  -0.000149655848577  -0.000231161796249 1
force Cu   0.001172452038343   0.000603933369536   0.000995930397661 1
force Cu   0.000449475910622   0.000663638343872   0.000901313230521 1
force Cu   0.000429097585152   0.000666775827400   0.000414787980383 1
force Cu  -0.000254486855096   0.000427877847859  -0.000206668122353 1
force Cu  -0.000392820308661   0.000572964311184   0.001015332635085 1
force Cu   0.000183234894309  -0.000698047250023  -0.000492757648286 1
force Cu   0.000560321839067  -0.000130728021144  -0.000469004183113 1
force Cu  -0.000080139555973  -0.000777858990642  -0.001256462719026 1
force Cu  -0.001250414566844  -0.000419134058892  -0.000882988984793 1
force O  -0.000759151245206  -0.001239119367813   0.001995674531412 1

# Energy components:
   Eewald =    -3335.2591073652488376
       EH =     1934.3136309155879644
     Eloc =    -5099.1586506091025512
      Enl =      993.4393343068832110
      Exc =     -522.3971736572630107
 Exc_core =        1.2758260003486697
       KE =      565.7106857871948478
-------------------------------------
     Etot =    -5462.0754546215994196
       TS =        0.0836554295556635
-------------------------------------
        F =    -5462.1591100511550394

IonicMinimize: Iter:  26  F: -5462.159110051155039  |grad|_K:  6.145e-05  alpha:  1.000e+00  linmin:  4.844e-02  t[s]:  13960.15
IonicMinimize: Converged (|grad|_K<1.000000e-04).

#--- Lowdin population analysis ---
# oxidation-state Cu +0.108 +0.108 +0.059 +0.107 +0.085 +0.084 +0.059 +0.084 +0.058 +0.107 +0.085 +0.084 +0.085 +0.065 +0.084 +0.084 +0.084 +0.081 +0.059 +0.084 +0.058 +0.084 +0.084 +0.081 +0.058 +0.081 +0.080
# oxidation-state O -0.113


Dumping '/data/rc652/Cu/tet/Cu_tet.Ecomponents' ... done
End date and time: Sun Jul 14 03:45:24 2024  (Duration: 0-3:52:43.16)
Done!
