--------------------------------------------------------------------------
Initialization of PSM library failed.

  Error: PSM is in the finalized state
--------------------------------------------------------------------------

*************** JDFTx 1.7.0 (git hash 3664913) ***************

Start date and time: Mon Jun 24 12:51:30 2024
Executable jdftx with command-line: -i Co3O4_vac.in
Running on hosts (process indices):  node3001.physics.cornell.edu (0-15)
Divided in process groups (process indices):  0 (0)  1 (1)  2 (2)  3 (3)  4 (4)  5 (5)  6 (6)  7 (7)  8 (8)  9 (9)  10 (10)  11 (11)  12 (12)  13 (13)  14 (14)  15 (15)
Resource initialization completed at t[s]:      0.00
Run totals: 16 processes, 32 threads, 0 GPUs


Input parsed successfully to the following command list (including defaults):

basis kpoint-dependent
coords-type Lattice
core-overlap-check vector
coulomb-interaction Periodic
davidson-band-ratio 1.1
dump End Ecomponents
dump-name /data/rc652/Co3O4/vac/Co3O4_vac.$VAR
elec-cutoff 20 100
elec-eigen-algo Davidson
elec-ex-corr gga-PBEsol
elec-smearing Fermi 0.01
electronic-minimize  \
	dirUpdateScheme      FletcherReeves \
	linminMethod         DirUpdateRecommended \
	nIterations          100 \
	history              15 \
	knormThreshold       0 \
	maxThreshold         no \
	energyDiffThreshold  1e-08 \
	nEnergyDiff          2 \
	alphaTstart          1 \
	alphaTmin            1e-10 \
	updateTestStepSize   yes \
	alphaTreduceFactor   0.1 \
	alphaTincreaseFactor 3 \
	nAlphaAdjustMax      3 \
	wolfeEnergy          0.0001 \
	wolfeGradient        0.9 \
	fdTest               no
electronic-scf  \
	nIterations	50 \
	energyDiffThreshold	1e-08 \
	residualThreshold	1e-07 \
	mixFraction	0.5 \
	qMetric	0.8 \
	history	10 \
	nEigSteps	2 \
	eigDiffThreshold	1e-08 \
	mixedVariable	Density \
	qKerker	0.8 \
	qKappa	-1 \
	verbose	no \
	mixFractionMag	1.5
exchange-regularization WignerSeitzTruncated
fluid None
fluid-ex-corr lda-TF lda-PZ
fluid-gummel-loop 10 1.000000e-05
fluid-minimize  \
	dirUpdateScheme      PolakRibiere \
	linminMethod         DirUpdateRecommended \
	nIterations          100 \
	history              15 \
	knormThreshold       0 \
	maxThreshold         no \
	energyDiffThreshold  0 \
	nEnergyDiff          2 \
	alphaTstart          1 \
	alphaTmin            1e-10 \
	updateTestStepSize   yes \
	alphaTreduceFactor   0.1 \
	alphaTincreaseFactor 3 \
	nAlphaAdjustMax      3 \
	wolfeEnergy          0.0001 \
	wolfeGradient        0.9 \
	fdTest               no
fluid-solvent H2O 55.338 ScalarEOS \
	epsBulk 78.4 \
	pMol 0.92466 \
	epsInf 1.77 \
	Pvap 1.06736e-10 \
	sigmaBulk 4.62e-05 \
	Rvdw 2.61727 \
	Res 1.42 \
	tauNuc 343133 \
	poleEl 15 7 1
forces-output-coords Positions
ion Co   0.379130000000000   0.369420000000000   0.125090000000000 1
ion Co   0.380780000000000   0.134990000000000   0.377350000000000 1
ion Co   0.619020000000000   0.867790000000000   0.375840000000000 1
ion Co   0.120430000000000   0.139100000000000   0.135950000000000 1
ion Co   0.242240000000000   0.747920000000000   0.258800000000000 1
ion Co   0.007900000000000   0.513850000000000  -0.005020000000000 1
ion Co   0.379950000000000   0.904980000000000   0.625590000000000 1
ion Co   0.372510000000000   0.626920000000000   0.870490000000000 1
ion Co   0.619360000000000   0.385720000000000   0.867600000000000 1
ion Co   0.126140000000000   0.626470000000000   0.626540000000000 1
ion Co   0.244240000000000   0.256350000000000   0.767740000000000 1
ion Co   0.005700000000000  -0.011000000000000   0.494270000000000 1
ion Co   0.887460000000000   0.369900000000000   0.632430000000000 1
ion Co   0.869160000000000   0.132330000000000   0.859600000000000 1
ion Co   0.125090000000000   0.884660000000000   0.886030000000000 1
ion Co   0.614530000000000   0.138170000000000   0.617730000000000 1
ion Co   0.753140000000000   0.756250000000000   0.738320000000000 1
ion Co   0.494810000000000   0.498910000000000   0.507260000000000 1
ion Co   0.873950000000000   0.847430000000000   0.141990000000000 1
ion Co   0.856610000000000   0.612310000000000   0.374000000000000 1
ion Co   0.138100000000000   0.374500000000000   0.373940000000000 1
ion Co   0.622460000000000   0.628670000000000   0.133250000000000 1
ion Co   0.757440000000000   0.257730000000000   0.259100000000000 1
ion Co   0.508040000000000   0.007530000000000  -0.006700000000000 1
ion O   0.875080000000000   0.361150000000000   0.847970000000000 1
ion O   0.884940000000000   0.123320000000000   0.126360000000000 1
ion O   0.103130000000000   0.092220000000000   0.890940000000000 1
ion O   0.125220000000000   0.861710000000000   0.107990000000000 1
ion O   0.136550000000000   0.127840000000000   0.353090000000000 1
ion O   0.133670000000000   0.352480000000000   0.145700000000000 1
ion O   0.387160000000000   0.881350000000000   0.405180000000000 1
ion O   0.367710000000000   0.145610000000000   0.130370000000000 1
ion O   0.843940000000000   0.860070000000000   0.351750000000000 1
ion O   0.896090000000000   0.615070000000000   0.600680000000000 1
ion O   0.116060000000000   0.603250000000000   0.380790000000000 1
ion O   0.105810000000000   0.390570000000000   0.608680000000000 1
ion O   0.143790000000000   0.653350000000000   0.863390000000000 1
ion O   0.154430000000000   0.855410000000000   0.647360000000000 1
ion O   0.407740000000000   0.385350000000000   0.893500000000000 1
ion O   0.363030000000000   0.650180000000000   0.639830000000000 1
ion O   0.377100000000000   0.362440000000000   0.353090000000000 1
ion O   0.386540000000000   0.107200000000000   0.607940000000000 1
ion O   0.607630000000000   0.128160000000000   0.376400000000000 1
ion O   0.611470000000000   0.901240000000000   0.631810000000000 1
ion O   0.637210000000000   0.148060000000000   0.874160000000000 1
ion O   0.643900000000000   0.380390000000000   0.641280000000000 1
ion O   0.878270000000000   0.886640000000000   0.879310000000000 1
ion O   0.867280000000000   0.129970000000000   0.642140000000000 1
ion O   0.364490000000000   0.862990000000000   0.851960000000000 1
ion O   0.405250000000000   0.623760000000000   0.107520000000000 1
ion O   0.621780000000000   0.605700000000000   0.882510000000000 1
ion O   0.618370000000000   0.394390000000000   0.099470000000000 1
ion O   0.634310000000000   0.640230000000000   0.367290000000000 1
ion O   0.630940000000000   0.854820000000000   0.130510000000000 1
ion O   0.890520000000000   0.396310000000000   0.382170000000000 1
ion-species GBRV/$ID_pbesol.uspp
ion-width 0
ionic-minimize  \
	dirUpdateScheme      L-BFGS \
	linminMethod         DirUpdateRecommended \
	nIterations          30 \
	history              15 \
	knormThreshold       0.0001 \
	maxThreshold         no \
	energyDiffThreshold  1e-06 \
	nEnergyDiff          2 \
	alphaTstart          1 \
	alphaTmin            1e-10 \
	updateTestStepSize   yes \
	alphaTreduceFactor   0.1 \
	alphaTincreaseFactor 3 \
	nAlphaAdjustMax      3 \
	wolfeEnergy          0.0001 \
	wolfeGradient        0.9 \
	fdTest               no
kpoint   0.000000000000   0.000000000000   0.000000000000  1.00000000000000
kpoint-folding 4 4 4 
latt-move-scale 1 1 1
latt-scale 1 1 1 
lattice  \
	  15.036300125038156    0.000000000000000    0.000000000000000  \
	   0.000000000000000   15.036300125038156   -0.000000000000000  \
	   0.000000000000000   -0.000000000000000   15.036300125038156 
lattice-minimize  \
	dirUpdateScheme      L-BFGS \
	linminMethod         DirUpdateRecommended \
	nIterations          0 \
	history              15 \
	knormThreshold       0 \
	maxThreshold         no \
	energyDiffThreshold  1e-06 \
	nEnergyDiff          2 \
	alphaTstart          1 \
	alphaTmin            1e-10 \
	updateTestStepSize   yes \
	alphaTreduceFactor   0.1 \
	alphaTincreaseFactor 3 \
	nAlphaAdjustMax      3 \
	wolfeEnergy          0.0001 \
	wolfeGradient        0.9 \
	fdTest               no
lcao-params -1 1e-06 0.01
pcm-variant GLSSA13
perturb-minimize  \
	nIterations            0 \
	algorithm              MINRES \
	residualTol            0.0001 \
	residualDiffThreshold  0.0001 \
	CGBypass               no \
	recomputeResidual      no
spintype no-spin
subspace-rotation-factor 1 yes
symmetries automatic
symmetry-threshold 0.0001



---------- Setting up symmetries ----------

Found 48 point-group symmetries of the bravais lattice
Found 1 space-group symmetries with basis
Applied RMS atom displacement 0 bohrs to make symmetries exact.

---------- Initializing the Grid ----------
R = 
[      15.0363            0            0  ]
[            0      15.0363            0  ]
[            0            0      15.0363  ]
unit cell volume = 3399.56
G =
[   0.417868         -0         -0  ]
[         -0   0.417868          0  ]
[         -0          0   0.417868  ]
Minimum fftbox size, Smin = [  68  68  68  ]
Chosen fftbox size, S = [  70  70  70  ]

---------- Initializing tighter grid for wavefunction operations ----------
R = 
[      15.0363            0            0  ]
[            0      15.0363            0  ]
[            0            0      15.0363  ]
unit cell volume = 3399.56
G =
[   0.417868         -0         -0  ]
[         -0   0.417868          0  ]
[         -0          0   0.417868  ]
Minimum fftbox size, Smin = [  64  64  64  ]
Chosen fftbox size, S = [  64  64  64  ]

---------- Exchange Correlation functional ----------
Initalized PBEsol GGA exchange.
Initalized PBEsol GGA correlation.

---------- Setting up pseudopotentials ----------
Width of ionic core gaussian charges (only for fluid interactions / plotting) set to 0

Reading pseudopotential file '/home/rc652/build/pseudopotentials/GBRV/co_pbesol.uspp':
  Title: Co.  Created by USPP 7.3.6 on 3-2-2014
  Reference state energy: -148.473209.  17 valence electrons in orbitals:
    |300>  occupation: 2  eigenvalue: -4.077719
    |310>  occupation: 6  eigenvalue: -2.732332
    |320>  occupation: 7  eigenvalue: -0.624325
    |400>  occupation: 1  eigenvalue: -0.468864
    |410>  occupation: 0  eigenvalue: -0.272586
  lMax: 2  lLocal: 3  QijEcut: 6
  6 projectors sampled on a log grid with 609 points:
    l: 0  eig: -4.077719  rCut: 1.5
    l: 0  eig: -0.468864  rCut: 1.5
    l: 1  eig: -2.732332  rCut: 1.5
    l: 1  eig: -0.272586  rCut: 1.5
    l: 2  eig: -0.624325  rCut: 1.55
    l: 2  eig: -1.000000  rCut: 1.55
  Partial core density with radius 0.65
  Transforming core density to a uniform radial grid of dG=0.02 with 1272 points.
  Transforming local potential to a uniform radial grid of dG=0.02 with 1272 points.
  Transforming nonlocal projectors to a uniform radial grid of dG=0.02 with 432 points.
  Transforming density augmentations to a uniform radial grid of dG=0.02 with 1272 points.
  Transforming atomic orbitals to a uniform radial grid of dG=0.02 with 432 points.
  Core radius for overlap checks: 1.55 bohrs.

Reading pseudopotential file '/home/rc652/build/pseudopotentials/GBRV/o_pbesol.uspp':
  Title: O.  Created by USPP 7.3.6 on 3-2-2014
  Reference state energy: -15.849885.  6 valence electrons in orbitals:
    |200>  occupation: 2  eigenvalue: -0.873214
    |210>  occupation: 4  eigenvalue: -0.330058
  lMax: 2  lLocal: 2  QijEcut: 6
  5 projectors sampled on a log grid with 511 points:
    l: 0  eig: -0.873214  rCut: 1.25
    l: 0  eig: 0.000000  rCut: 1.25
    l: 1  eig: -0.330058  rCut: 1.25
    l: 1  eig: 0.000000  rCut: 1.25
    l: 2  eig: 1.000000  rCut: 1.25
  Partial core density with radius 0.7
  Transforming core density to a uniform radial grid of dG=0.02 with 1272 points.
  Transforming local potential to a uniform radial grid of dG=0.02 with 1272 points.
  Transforming nonlocal projectors to a uniform radial grid of dG=0.02 with 432 points.
  Transforming density augmentations to a uniform radial grid of dG=0.02 with 1272 points.
  Transforming atomic orbitals to a uniform radial grid of dG=0.02 with 432 points.
  Core radius for overlap checks: 1.25 bohrs.

Initialized 2 species with 55 total atoms.

Folded 1 k-points by 4x4x4 to 64 k-points.

---------- Setting up k-points, bands, fillings ----------
Adding inversion symmetry to k-mesh for non-inversion-symmetric unit cell.
Reduced to 36 k-points under symmetry. 
Computing the number of bands and number of electrons
Calculating initial fillings.
nElectrons: 594.000000   nBands: 436   nStates: 36

----- Setting up reduced wavefunction bases (one per k-point) -----
average nbasis = 14528.391 , ideal nbasis = 14523.188

---------- Setting up ewald sum ----------
Optimum gaussian width for ewald sums = 3.076030 bohr.
Real space sum over 343 unit cells with max indices [  3  3  3  ]
Reciprocal space sum over 6859 terms with max indices [  9  9  9  ]

---------- Allocating electronic variables ----------
Initializing wave functions:  linear combination of atomic orbitals
Co pseudo-atom occupations:   s ( 2 0 )  p ( 6 0 )  d ( 9 )
O pseudo-atom occupations:   s ( 2 )  p ( 4 )
	FillingsUpdate:  mu: +0.604422519  nElectrons: 594.000000
LCAOMinimize: Iter:   0  F: -3801.3961521061996791  |grad|_K:  1.425e-02  alpha:  1.000e+00
	FillingsUpdate:  mu: +1.504081023  nElectrons: 594.000000
LCAOMinimize: Iter:   1  F: -3913.4381392377754310  |grad|_K:  7.681e-03  alpha:  4.878e-01  linmin:  1.244e-01  cgtest: -1.497e+00  t[s]:    137.86
	FillingsUpdate:  mu: +1.486056456  nElectrons: 594.000000
LCAOMinimize: Iter:   2  F: -3919.5032428125487058  |grad|_K:  6.706e-03  alpha:  1.395e-01  linmin:  5.255e-04  cgtest:  8.137e-01  t[s]:    185.49
LCAOMinimize: 	Predicted alpha/alphaT>3.000000, increasing alphaT to 4.184978e-01.
	FillingsUpdate:  mu: +1.405727384  nElectrons: 594.000000
LCAOMinimize: Iter:   3  F: -3968.8330569881259180  |grad|_K:  5.595e-03  alpha:  1.686e-01  linmin: -1.784e-01  cgtest:  7.413e-01  t[s]:    245.17
LCAOMinimize: 	Wrong curvature in test step, increasing alphaT to 5.058515e-01.
	FillingsUpdate:  mu: +0.995678476  nElectrons: 594.000000
LCAOMinimize: Iter:   4  F: -4045.1977003831507318  |grad|_K:  1.177e-02  alpha: -9.267e-02  linmin: -3.380e-03  cgtest:  6.317e-02  t[s]:    290.00
LCAOMinimize: 	Step increased F by 4.108799e+02, reducing alpha to 2.221261e-02.
LCAOMinimize: 	Step increased F by 2.004000e+00, reducing alpha to 2.221261e-03.
	FillingsUpdate:  mu: +0.946520443  nElectrons: 594.000000
LCAOMinimize: Iter:   5  F: -4046.7691189673209919  |grad|_K:  1.403e-02  alpha:  2.221e-03  linmin: -9.729e-03  cgtest:  9.240e-01  t[s]:    410.28
LCAOMinimize: 	Predicted alpha/alphaT>3.000000, increasing alphaT to 6.663783e-03.
LCAOMinimize: 	Predicted alpha/alphaT>3.000000, increasing alphaT to 1.999135e-02.
	FillingsUpdate:  mu: +0.680890235  nElectrons: 594.000000
LCAOMinimize: Iter:   6  F: -4058.7708820158509297  |grad|_K:  5.006e-03  alpha:  1.498e-02  linmin:  2.740e-02  cgtest: -1.108e-01  t[s]:    481.52
	FillingsUpdate:  mu: +0.638673428  nElectrons: 594.000000
LCAOMinimize: Iter:   7  F: -4060.3767958687958526  |grad|_K:  3.031e-03  alpha:  2.154e-02  linmin: -5.590e-04  cgtest:  3.806e-01  t[s]:    529.47
	FillingsUpdate:  mu: +0.605204763  nElectrons: 594.000000
LCAOMinimize: Iter:   8  F: -4060.9794204065015037  |grad|_K:  1.445e-03  alpha:  1.904e-02  linmin:  3.593e-03  cgtest:  4.313e-03  t[s]:    576.41
	FillingsUpdate:  mu: +0.598154259  nElectrons: 594.000000
LCAOMinimize: Iter:   9  F: -4061.2146958265102512  |grad|_K:  1.181e-03  alpha:  3.263e-02  linmin: -6.541e-03  cgtest:  2.107e-02  t[s]:    624.29
	FillingsUpdate:  mu: +0.622460484  nElectrons: 594.000000
LCAOMinimize: Iter:  10  F: -4061.5281691333075287  |grad|_K:  1.475e-03  alpha:  6.487e-02  linmin:  3.477e-03  cgtest:  1.243e-02  t[s]:    671.34
	FillingsUpdate:  mu: +0.625527009  nElectrons: 594.000000
LCAOMinimize: Iter:  11  F: -4061.9278913692551214  |grad|_K:  1.507e-03  alpha:  5.501e-02  linmin: -1.349e-03  cgtest:  6.190e-02  t[s]:    718.77
	FillingsUpdate:  mu: +0.590073998  nElectrons: 594.000000
LCAOMinimize: Iter:  12  F: -4062.2089979559109452  |grad|_K:  8.365e-04  alpha:  3.636e-02  linmin: -6.678e-05  cgtest:  7.055e-02  t[s]:    765.58
	FillingsUpdate:  mu: +0.579227956  nElectrons: 594.000000
LCAOMinimize: Iter:  13  F: -4062.2751025187421874  |grad|_K:  5.764e-04  alpha:  2.731e-02  linmin:  7.853e-04  cgtest: -8.449e-03  t[s]:    813.65
	FillingsUpdate:  mu: +0.565353142  nElectrons: 594.000000
LCAOMinimize: Iter:  14  F: -4062.3322077532025105  |grad|_K:  4.928e-04  alpha:  5.057e-02  linmin:  3.202e-03  cgtest: -9.682e-04  t[s]:    862.13
	FillingsUpdate:  mu: +0.548653542  nElectrons: 594.000000
LCAOMinimize: Iter:  15  F: -4062.3734939237265280  |grad|_K:  4.680e-04  alpha:  5.033e-02  linmin: -2.133e-04  cgtest:  1.477e-02  t[s]:    909.72
	FillingsUpdate:  mu: +0.535579570  nElectrons: 594.000000
LCAOMinimize: Iter:  16  F: -4062.3944905915354866  |grad|_K:  1.489e-04  alpha:  2.763e-02  linmin: -1.154e-03  cgtest: -5.376e-02  t[s]:    956.48
	FillingsUpdate:  mu: +0.534563739  nElectrons: 594.000000
LCAOMinimize: Iter:  17  F: -4062.3964292753125847  |grad|_K:  8.388e-05  alpha:  2.533e-02  linmin:  1.417e-04  cgtest: -8.104e-03  t[s]:   1004.27
	FillingsUpdate:  mu: +0.534034352  nElectrons: 594.000000
LCAOMinimize: Iter:  18  F: -4062.3975290878483975  |grad|_K:  7.855e-05  alpha:  4.556e-02  linmin:  8.280e-04  cgtest:  7.210e-03  t[s]:   1051.49
	FillingsUpdate:  mu: +0.534759533  nElectrons: 594.000000
LCAOMinimize: Iter:  19  F: -4062.3991246870191389  |grad|_K:  1.189e-04  alpha:  7.557e-02  linmin:  2.839e-04  cgtest:  5.524e-03  t[s]:   1099.45
	FillingsUpdate:  mu: +0.534684801  nElectrons: 594.000000
LCAOMinimize: Iter:  20  F: -4062.4009898243630232  |grad|_K:  6.860e-05  alpha:  3.839e-02  linmin: -2.003e-04  cgtest:  1.510e-02  t[s]:   1147.51
	FillingsUpdate:  mu: +0.534745579  nElectrons: 594.000000
LCAOMinimize: Iter:  21  F: -4062.4014943337278964  |grad|_K:  3.491e-05  alpha:  3.116e-02  linmin: -2.080e-05  cgtest:  2.107e-04  t[s]:   1195.21
	FillingsUpdate:  mu: +0.534602553  nElectrons: 594.000000
LCAOMinimize: Iter:  22  F: -4062.4016098910637993  |grad|_K:  2.197e-05  alpha:  2.758e-02  linmin: -7.527e-05  cgtest: -3.765e-05  t[s]:   1243.57
	FillingsUpdate:  mu: +0.534498952  nElectrons: 594.000000
LCAOMinimize: Iter:  23  F: -4062.4016927339980612  |grad|_K:  2.343e-05  alpha:  4.991e-02  linmin:  6.027e-05  cgtest: -8.381e-04  t[s]:   1291.03
	FillingsUpdate:  mu: +0.534842234  nElectrons: 594.000000
LCAOMinimize: Iter:  24  F: -4062.4017853118398307  |grad|_K:  2.051e-05  alpha:  4.908e-02  linmin:  2.719e-05  cgtest:  1.960e-03  t[s]:   1338.23
	FillingsUpdate:  mu: +0.535092827  nElectrons: 594.000000
LCAOMinimize: Iter:  25  F: -4062.4018293230183190  |grad|_K:  8.983e-06  alpha:  3.045e-02  linmin: -8.085e-06  cgtest:  2.436e-03  t[s]:   1386.27
	FillingsUpdate:  mu: +0.535023972  nElectrons: 594.000000
LCAOMinimize: Iter:  26  F: -4062.4018387052428807  |grad|_K:  7.428e-06  alpha:  3.382e-02  linmin:  5.464e-05  cgtest:  2.445e-04  t[s]:   1433.89
	FillingsUpdate:  mu: +0.534902819  nElectrons: 594.000000
LCAOMinimize: Iter:  27  F: -4062.4018501743257730  |grad|_K:  9.704e-06  alpha:  6.052e-02  linmin:  1.366e-04  cgtest:  1.700e-04  t[s]:   1481.00
	FillingsUpdate:  mu: +0.534990709  nElectrons: 594.000000
LCAOMinimize: Iter:  28  F: -4062.4018718861507296  |grad|_K:  1.104e-05  alpha:  6.714e-02  linmin: -3.278e-05  cgtest:  4.066e-03  t[s]:   1529.36
	FillingsUpdate:  mu: +0.535033279  nElectrons: 594.000000
LCAOMinimize: Iter:  29  F: -4062.4018841465695004  |grad|_K:  4.978e-06  alpha:  2.925e-02  linmin: -1.030e-04  cgtest: -8.882e-04  t[s]:   1576.70
	FillingsUpdate:  mu: +0.534993750  nElectrons: 594.000000
LCAOMinimize: Iter:  30  F: -4062.4018871517587286  |grad|_K:  3.090e-06  alpha:  3.527e-02  linmin:  3.072e-05  cgtest: -4.152e-04  t[s]:   1624.56
LCAOMinimize: None of the convergence criteria satisfied after 30 iterations.


---- Citations for features of the code used in this run ----

   Software package:
      R. Sundararaman, K. Letchworth-Weaver, K.A. Schwarz, D. Gunceler, Y. Ozhabes and T.A. Arias, 'JDFTx: software for joint density-functional theory', SoftwareX 6, 278 (2017)

   gga-PBEsol exchange-correlation functional:
      J.P. Perdew et al., Phys. Rev. Lett. 100, 136406 (2008)

   Pseudopotentials:
      KF Garrity, JW Bennett, KM Rabe and D Vanderbilt, Comput. Mater. Sci. 81, 446 (2014)

This list may not be complete. Please suggest additional citations or
report any other bugs at https://github.com/shankar1729/jdftx/issues

Initialization completed successfully at t[s]:   1646.56


-------- Electronic minimization -----------
Will mix electronic density at each iteration.
	FillingsUpdate:  mu: +0.534993750  nElectrons: 594.000000
	FillingsUpdate:  mu: +0.531114728  nElectrons: 594.000000
SCF: Cycle:  0   F: -4062.541687808794904   dF: -1.398e-01   |Residual|: 1.264e+00   |deigs|: 4.035e-02  t[s]:   1859.03
	FillingsUpdate:  mu: +0.452878513  nElectrons: 594.000000
SCF: Cycle:  1   F: -4059.079630981956598   dF: +3.462e+00   |Residual|: 1.657e+00   |deigs|: 6.684e-02  t[s]:   2032.86
	FillingsUpdate:  mu: +0.501937473  nElectrons: 594.000000
SCF: Cycle:  2   F: -4016.793955747032669   dF: +4.229e+01   |Residual|: 4.203e+00   |deigs|: 3.962e-02  t[s]:   2206.46
	FillingsUpdate:  mu: +0.494058452  nElectrons: 594.000000
SCF: Cycle:  3   F: -4055.733051031786090   dF: -3.894e+01   |Residual|: 1.708e+00   |deigs|: 1.894e-02  t[s]:   2382.23
	FillingsUpdate:  mu: +0.488597428  nElectrons: 594.000000
SCF: Cycle:  4   F: -4056.885974814840665   dF: -1.153e+00   |Residual|: 1.657e+00   |deigs|: 4.251e-03  t[s]:   2562.25
	FillingsUpdate:  mu: +0.485905328  nElectrons: 594.000000
SCF: Cycle:  5   F: -4061.135037557490705   dF: -4.249e+00   |Residual|: 1.010e+00   |deigs|: 6.939e-03  t[s]:   2739.09
	FillingsUpdate:  mu: +0.483350778  nElectrons: 594.000000
SCF: Cycle:  6   F: -4063.005674833594639   dF: -1.871e+00   |Residual|: 5.242e-01   |deigs|: 2.559e-03  t[s]:   2916.97
	FillingsUpdate:  mu: +0.483163811  nElectrons: 594.000000
SCF: Cycle:  7   F: -4062.694443976630737   dF: +3.112e-01   |Residual|: 6.228e-01   |deigs|: 2.142e-03  t[s]:   3092.78
	FillingsUpdate:  mu: +0.484221546  nElectrons: 594.000000
SCF: Cycle:  8   F: -4063.494933791495441   dF: -8.005e-01   |Residual|: 3.177e-01   |deigs|: 1.825e-03  t[s]:   3273.58
	FillingsUpdate:  mu: +0.484246109  nElectrons: 594.000000
SCF: Cycle:  9   F: -4063.694921872158375   dF: -2.000e-01   |Residual|: 1.426e-01   |deigs|: 1.117e-03  t[s]:   3449.17
	FillingsUpdate:  mu: +0.484268539  nElectrons: 594.000000
SCF: Cycle: 10   F: -4063.696216641151750   dF: -1.295e-03   |Residual|: 1.401e-01   |deigs|: 6.980e-04  t[s]:   3554.09
	FillingsUpdate:  mu: +0.484581151  nElectrons: 594.000000
SCF: Cycle: 11   F: -4063.680793952528347   dF: +1.542e-02   |Residual|: 1.506e-01   |deigs|: 7.959e-04  t[s]:   3692.23
	FillingsUpdate:  mu: +0.484357820  nElectrons: 594.000000
SCF: Cycle: 12   F: -4063.729172855355500   dF: -4.838e-02   |Residual|: 6.787e-02   |deigs|: 7.925e-04  t[s]:   3862.41
	FillingsUpdate:  mu: +0.484790764  nElectrons: 594.000000
SCF: Cycle: 13   F: -4063.550218063804550   dF: +1.790e-01   |Residual|: 2.626e-01   |deigs|: 6.713e-04  t[s]:   4032.76
	FillingsUpdate:  mu: +0.485265349  nElectrons: 594.000000
SCF: Cycle: 14   F: -4063.680990571888742   dF: -1.308e-01   |Residual|: 1.491e-01   |deigs|: 8.451e-04  t[s]:   4209.05
	FillingsUpdate:  mu: +0.484975191  nElectrons: 594.000000
SCF: Cycle: 15   F: -4063.736403361498560   dF: -5.541e-02   |Residual|: 3.583e-02   |deigs|: 6.786e-04  t[s]:   4326.01
	FillingsUpdate:  mu: +0.485276992  nElectrons: 594.000000
SCF: Cycle: 16   F: -4063.703264288413266   dF: +3.314e-02   |Residual|: 1.145e-01   |deigs|: 5.813e-04  t[s]:   4431.02
	FillingsUpdate:  mu: +0.484939935  nElectrons: 594.000000
SCF: Cycle: 17   F: -4063.736895320556414   dF: -3.363e-02   |Residual|: 3.203e-02   |deigs|: 5.419e-04  t[s]:   4535.72
	FillingsUpdate:  mu: +0.484836129  nElectrons: 594.000000
SCF: Cycle: 18   F: -4063.737053606000245   dF: -1.583e-04   |Residual|: 3.093e-02   |deigs|: 2.246e-04  t[s]:   4642.42
	FillingsUpdate:  mu: +0.484853790  nElectrons: 594.000000
SCF: Cycle: 19   F: -4063.737791067598664   dF: -7.375e-04   |Residual|: 2.548e-02   |deigs|: 1.714e-04  t[s]:   4748.66
	FillingsUpdate:  mu: +0.484947478  nElectrons: 594.000000
SCF: Cycle: 20   F: -4063.737274661064021   dF: +5.164e-04   |Residual|: 3.048e-02   |deigs|: 2.199e-04  t[s]:   4853.24
	FillingsUpdate:  mu: +0.485015242  nElectrons: 594.000000
SCF: Cycle: 21   F: -4063.735830545414501   dF: +1.444e-03   |Residual|: 3.736e-02   |deigs|: 2.330e-04  t[s]:   4957.86
	FillingsUpdate:  mu: +0.484966154  nElectrons: 594.000000
SCF: Cycle: 22   F: -4063.739332359027230   dF: -3.502e-03   |Residual|: 1.063e-02   |deigs|: 1.533e-04  t[s]:   5062.69
	FillingsUpdate:  mu: +0.484995927  nElectrons: 594.000000
SCF: Cycle: 23   F: -4063.739472223715438   dF: -1.399e-04   |Residual|: 7.608e-03   |deigs|: 8.252e-05  t[s]:   5165.24
	FillingsUpdate:  mu: +0.484992001  nElectrons: 594.000000
SCF: Cycle: 24   F: -4063.739509599531630   dF: -3.738e-05   |Residual|: 6.731e-03   |deigs|: 6.220e-05  t[s]:   5269.41
	FillingsUpdate:  mu: +0.484960601  nElectrons: 594.000000
SCF: Cycle: 25   F: -4063.739557797377984   dF: -4.820e-05   |Residual|: 4.984e-03   |deigs|: 4.771e-05  t[s]:   5372.83
	FillingsUpdate:  mu: +0.484954740  nElectrons: 594.000000
SCF: Cycle: 26   F: -4063.739530840410680   dF: +2.696e-05   |Residual|: 5.764e-03   |deigs|: 4.104e-05  t[s]:   5476.40
	FillingsUpdate:  mu: +0.484973285  nElectrons: 594.000000
SCF: Cycle: 27   F: -4063.739563160823309   dF: -3.232e-05   |Residual|: 4.961e-03   |deigs|: 4.542e-05  t[s]:   5579.84
	FillingsUpdate:  mu: +0.484973854  nElectrons: 594.000000
SCF: Cycle: 28   F: -4063.739591524850766   dF: -2.836e-05   |Residual|: 3.416e-03   |deigs|: 3.302e-05  t[s]:   5683.13
	FillingsUpdate:  mu: +0.484969359  nElectrons: 594.000000
SCF: Cycle: 29   F: -4063.739553809573408   dF: +3.772e-05   |Residual|: 5.182e-03   |deigs|: 3.296e-05  t[s]:   5787.29
	FillingsUpdate:  mu: +0.484991038  nElectrons: 594.000000
SCF: Cycle: 30   F: -4063.739601343811501   dF: -4.753e-05   |Residual|: 2.878e-03   |deigs|: 3.112e-05  t[s]:   5891.94
	FillingsUpdate:  mu: +0.484988949  nElectrons: 594.000000
SCF: Cycle: 31   F: -4063.739612697277153   dF: -1.135e-05   |Residual|: 2.070e-03   |deigs|: 1.704e-05  t[s]:   5989.49
	FillingsUpdate:  mu: +0.484980811  nElectrons: 594.000000
SCF: Cycle: 32   F: -4063.739600161522503   dF: +1.254e-05   |Residual|: 2.999e-03   |deigs|: 1.735e-05  t[s]:   6092.23
	FillingsUpdate:  mu: +0.484981993  nElectrons: 594.000000
SCF: Cycle: 33   F: -4063.739616230963748   dF: -1.607e-05   |Residual|: 1.720e-03   |deigs|: 1.592e-05  t[s]:   6195.75
	FillingsUpdate:  mu: +0.484975758  nElectrons: 594.000000
SCF: Cycle: 34   F: -4063.739613641888354   dF: +2.589e-06   |Residual|: 2.008e-03   |deigs|: 1.572e-05  t[s]:   6298.14
	FillingsUpdate:  mu: +0.484977516  nElectrons: 594.000000
SCF: Cycle: 35   F: -4063.739618983822766   dF: -5.342e-06   |Residual|: 1.431e-03   |deigs|: 1.481e-05  t[s]:   6402.00
	FillingsUpdate:  mu: +0.484983339  nElectrons: 594.000000
SCF: Cycle: 36   F: -4063.739620953993381   dF: -1.970e-06   |Residual|: 1.142e-03   |deigs|: 9.944e-06  t[s]:   6499.84
	FillingsUpdate:  mu: +0.484988593  nElectrons: 594.000000
SCF: Cycle: 37   F: -4063.739623214969924   dF: -2.261e-06   |Residual|: 6.575e-04   |deigs|: 8.194e-06  t[s]:   6607.01
	FillingsUpdate:  mu: +0.484985665  nElectrons: 594.000000
SCF: Cycle: 38   F: -4063.739622664876151   dF: +5.501e-07   |Residual|: 8.216e-04   |deigs|: 7.139e-06  t[s]:   6711.42
	FillingsUpdate:  mu: +0.484984488  nElectrons: 594.000000
SCF: Cycle: 39   F: -4063.739621212781003   dF: +1.452e-06   |Residual|: 1.055e-03   |deigs|: 7.120e-06  t[s]:   6814.91
	FillingsUpdate:  mu: +0.484986549  nElectrons: 594.000000
SCF: Cycle: 40   F: -4063.739621779051049   dF: -5.663e-07   |Residual|: 9.563e-04   |deigs|: 6.576e-06  t[s]:   6917.06
	FillingsUpdate:  mu: +0.484982838  nElectrons: 594.000000
SCF: Cycle: 41   F: -4063.739622822783076   dF: -1.044e-06   |Residual|: 7.474e-04   |deigs|: 5.838e-06  t[s]:   7019.26
	FillingsUpdate:  mu: +0.484984033  nElectrons: 594.000000
SCF: Cycle: 42   F: -4063.739623467618003   dF: -6.448e-07   |Residual|: 5.656e-04   |deigs|: 4.368e-06  t[s]:   7117.13
	FillingsUpdate:  mu: +0.484985003  nElectrons: 594.000000
SCF: Cycle: 43   F: -4063.739623809889508   dF: -3.423e-07   |Residual|: 4.571e-04   |deigs|: 3.514e-06  t[s]:   7218.07
	FillingsUpdate:  mu: +0.484985636  nElectrons: 594.000000
SCF: Cycle: 44   F: -4063.739624184064269   dF: -3.742e-07   |Residual|: 2.686e-04   |deigs|: 3.339e-06  t[s]:   7323.38
	FillingsUpdate:  mu: +0.484987629  nElectrons: 594.000000
SCF: Cycle: 45   F: -4063.739624216250377   dF: -3.219e-08   |Residual|: 2.367e-04   |deigs|: 2.453e-06  t[s]:   7425.38
	FillingsUpdate:  mu: +0.484987183  nElectrons: 594.000000
SCF: Cycle: 46   F: -4063.739624025963622   dF: +1.903e-07   |Residual|: 3.556e-04   |deigs|: 2.209e-06  t[s]:   7529.44
	FillingsUpdate:  mu: +0.484986148  nElectrons: 594.000000
SCF: Cycle: 47   F: -4063.739624165784335   dF: -1.398e-07   |Residual|: 2.798e-04   |deigs|: 2.311e-06  t[s]:   7628.94
	FillingsUpdate:  mu: +0.484986390  nElectrons: 594.000000
SCF: Cycle: 48   F: -4063.739624254959836   dF: -8.918e-08   |Residual|: 2.100e-04   |deigs|: 1.681e-06  t[s]:   7731.61
	FillingsUpdate:  mu: +0.484986465  nElectrons: 594.000000
SCF: Cycle: 49   F: -4063.739624335273675   dF: -8.031e-08   |Residual|: 1.133e-04   |deigs|: 1.332e-06  t[s]:   7837.01
Setting wave functions to eigenvectors of Hamiltonian

# Ionic positions in lattice coordinates:
ion Co   0.379130000000000   0.369420000000000   0.125090000000000 1
ion Co   0.380780000000000   0.134990000000000   0.377350000000000 1
ion Co   0.619020000000000   0.867790000000000   0.375840000000000 1
ion Co   0.120430000000000   0.139100000000000   0.135950000000000 1
ion Co   0.242240000000000   0.747920000000000   0.258800000000000 1
ion Co   0.007900000000000   0.513850000000000  -0.005020000000000 1
ion Co   0.379950000000000   0.904980000000000   0.625590000000000 1
ion Co   0.372510000000000   0.626920000000000   0.870490000000000 1
ion Co   0.619360000000000   0.385720000000000   0.867600000000000 1
ion Co   0.126140000000000   0.626470000000000   0.626540000000000 1
ion Co   0.244240000000000   0.256350000000000   0.767740000000000 1
ion Co   0.005700000000000  -0.011000000000000   0.494270000000000 1
ion Co   0.887460000000000   0.369900000000000   0.632430000000000 1
ion Co   0.869160000000000   0.132330000000000   0.859600000000000 1
ion Co   0.125090000000000   0.884660000000000   0.886030000000000 1
ion Co   0.614530000000000   0.138170000000000   0.617730000000000 1
ion Co   0.753140000000000   0.756250000000000   0.738320000000000 1
ion Co   0.494810000000000   0.498910000000000   0.507260000000000 1
ion Co   0.873950000000000   0.847430000000000   0.141990000000000 1
ion Co   0.856610000000000   0.612310000000000   0.374000000000000 1
ion Co   0.138100000000000   0.374500000000000   0.373940000000000 1
ion Co   0.622460000000000   0.628670000000000   0.133250000000000 1
ion Co   0.757440000000000   0.257730000000000   0.259100000000000 1
ion Co   0.508040000000000   0.007530000000000  -0.006700000000000 1
ion O   0.875080000000000   0.361150000000000   0.847970000000000 1
ion O   0.884940000000000   0.123320000000000   0.126360000000000 1
ion O   0.103130000000000   0.092220000000000   0.890940000000000 1
ion O   0.125220000000000   0.861710000000000   0.107990000000000 1
ion O   0.136550000000000   0.127840000000000   0.353090000000000 1
ion O   0.133670000000000   0.352480000000000   0.145700000000000 1
ion O   0.387160000000000   0.881350000000000   0.405180000000000 1
ion O   0.367710000000000   0.145610000000000   0.130370000000000 1
ion O   0.843940000000000   0.860070000000000   0.351750000000000 1
ion O   0.896090000000000   0.615070000000000   0.600680000000000 1
ion O   0.116060000000000   0.603250000000000   0.380790000000000 1
ion O   0.105810000000000   0.390570000000000   0.608680000000000 1
ion O   0.143790000000000   0.653350000000000   0.863390000000000 1
ion O   0.154430000000000   0.855410000000000   0.647360000000000 1
ion O   0.407740000000000   0.385350000000000   0.893500000000000 1
ion O   0.363030000000000   0.650180000000000   0.639830000000000 1
ion O   0.377100000000000   0.362440000000000   0.353090000000000 1
ion O   0.386540000000000   0.107200000000000   0.607940000000000 1
ion O   0.607630000000000   0.128160000000000   0.376400000000000 1
ion O   0.611470000000000   0.901240000000000   0.631810000000000 1
ion O   0.637210000000000   0.148060000000000   0.874160000000000 1
ion O   0.643900000000000   0.380390000000000   0.641280000000000 1
ion O   0.878270000000000   0.886640000000000   0.879310000000000 1
ion O   0.867280000000000   0.129970000000000   0.642140000000000 1
ion O   0.364490000000000   0.862990000000000   0.851960000000000 1
ion O   0.405250000000000   0.623760000000000   0.107520000000000 1
ion O   0.621780000000000   0.605700000000000   0.882510000000000 1
ion O   0.618370000000000   0.394390000000000   0.099470000000000 1
ion O   0.634310000000000   0.640230000000000   0.367290000000000 1
ion O   0.630940000000000   0.854820000000000   0.130510000000000 1
ion O   0.890520000000000   0.396310000000000   0.382170000000000 1

# Forces in Lattice coordinates:
force Co   0.201072030389851   0.718425914740360  -0.273559803477910 1
force Co  -0.378591559312550  -0.473617625570727  -0.422819326469847 1
force Co  -0.205978561353048   0.617547654147110   0.131534750529779 1
force Co  -0.172514237200115  -1.286061454103660  -0.933460562861367 1
force Co   0.351973781971659  -0.028423414292048   0.002557705205289 1
force Co   0.017133629780018  -0.235857708279449   0.026381956448821 1
force Co  -0.286562413913648  -2.426647511004361   0.615605002437515 1
force Co   0.513269214537788   0.121311317830877   0.202748748373685 1
force Co   1.256669965996929  -0.574812996405523   0.203658659167931 1
force Co   0.251620703592600   0.076401560737572  -0.197548990279704 1
force Co   0.020395488551669  -0.065085362196403  -0.083970732607423 1
force Co  -0.097382808860700  -0.077470050722585   0.094748936152052 1
force Co  -0.596934004535451   0.312459066915321  -1.066749988720148 1
force Co   0.245960642147356  -0.676201959045077   1.271384319938955 1
force Co   0.109856674891841  -1.296549648024133  -0.619772909224821 1
force Co   0.634063480395389   0.029197582237442   0.300698202197964 1
force Co   0.045363389369550  -0.194092074748969   0.107827137437893 1
force Co  -0.022320989159286   0.193226001206099  -0.057570372410206 1
force Co   0.023973270855771   0.219428854341722  -1.238641670456431 1
force Co   0.499368780757564   0.834781903445721  -0.471229136972899 1
force Co  -0.370787629864597  -0.114733860350130   0.174928406494698 1
force Co   0.757354718329073  -0.112634262301116  -0.296668326301344 1
force Co  -0.154640059674893   0.002374468290976  -0.266918169477214 1
force Co  -0.189859524265760  -0.228935550637527   0.134446327479766 1
force O  -0.004312811145778   0.459189848159465   0.977202110788042 1
force O   0.049420444689974  -0.070604039677665  -0.206519868790587 1
force O   0.173507593060721   1.638068370592650  -0.068811740833119 1
force O  -0.444186903152654   0.372947836970718   0.484949262068604 1
force O   0.075480209690110   0.029072900792228   0.857455089709715 1
force O   0.043750051601875   1.123614720654608  -0.403642413596684 1
force O  -0.095560385792594   0.064642835669106  -0.843028154992908 1
force O   0.031008845330935  -0.517109621511858   0.028250336447795 1
force O   0.557614434521470  -0.058932869208267   0.940172957473749 1
force O  -0.309351106163993   0.074247772312053   0.655718597499324 1
force O  -0.031887116244845   0.263137622378083   0.128508336090907 1
force O   0.853860657438418  -0.267049394260432   0.300535045963983 1
force O  -0.389102721413033  -0.501488228407462   0.177166072763836 1
force O  -0.757336497589077   0.693023556458225  -0.454514589391531 1
force O  -1.361245242973958  -0.018054676934642  -0.338222598030493 1
force O   0.225848991761234  -0.341341903481241  -0.263782153130450 1
force O  -0.064968863134294   0.291694270336836   0.412736922915294 1
force O  -0.297240201902436   2.045613843150798   0.253738038892124 1
force O   0.317201146496080  -0.239077915435836   0.149597133740245 1
force O   0.285747749668570  -0.063165558194923  -0.381751002996265 1
force O  -0.124222908934420   0.042164305534624  -0.372382043534620 1
force O  -0.152663636418165  -0.223724635733564  -0.387227337875271 1
force O   0.084656592407033   0.025907031083325   0.274691140532909 1
force O  -0.053870249179755  -0.019323099538530  -0.880028723903925 1
force O   0.251842323326774   0.426814564651931   0.708551685286364 1
force O  -1.029986889677091  -0.169704498557877   0.148297415935155 1
force O  -0.039295667904396   0.795191031855154  -0.074354519935190 1
force O   0.097081629695779  -0.227167172845439   0.589027945175163 1
force O  -0.424100754038572  -0.445131069337317   0.056708842309406 1
force O   0.091805386867092   0.253137441999869   0.074512979130847 1
force O   0.029445742855647  -0.724943476904764   0.108320215833322 1

# Energy components:
   Eewald =    -2503.4072987839922462
       EH =     1412.2962189625329756
     Eloc =    -3916.3266536743913093
      Enl =      691.7610025095483479
      Exc =     -499.3036512124069191
 Exc_core =       14.6003337413455778
       KE =      737.0934894142120584
-------------------------------------
     Etot =    -4063.2865590431520104
       TS =        0.4526357392855175
-------------------------------------
        F =    -4063.7391947824376075

IonicMinimize: Iter:   0  F: -4063.739194782437608  |grad|_K:  3.577e-02  t[s]:   7861.62

#--- Lowdin population analysis ---
# oxidation-state Co +0.222 +0.219 +0.233 +0.227 +0.215 +0.239 +0.203 +0.224 +0.207 +0.217 +0.235 +0.235 +0.219 +0.219 +0.208 +0.229 +0.228 +0.216 +0.168 +0.156 +0.219 +0.155 +0.228 +0.240
# oxidation-state O -0.133 -0.182 -0.132 -0.156 -0.139 -0.111 -0.157 -0.150 -0.101 -0.141 -0.148 -0.137 -0.127 -0.149 -0.114 -0.167 -0.118 -0.073 -0.145 -0.146 -0.145 -0.153 -0.179 -0.135 -0.145 -0.149 -0.154 -0.155 -0.089 -0.125 -0.130


-------- Electronic minimization -----------
Will mix electronic density at each iteration.
	FillingsUpdate:  mu: +0.484986465  nElectrons: 594.000000
	FillingsUpdate:  mu: +0.485808676  nElectrons: 594.000000
SCF: Cycle:  0   F: -4046.947745364274851   dF: +1.531e+01   |Residual|: 2.195e+00   |deigs|: 3.444e-03  t[s]:   8104.53
	FillingsUpdate:  mu: +0.557183311  nElectrons: 594.000000
SCF: Cycle:  1   F: -3896.531847417313656   dF: +1.504e+02   |Residual|: 8.382e+00   |deigs|: 1.411e-01  t[s]:   8285.03
	FillingsUpdate:  mu: +0.507691611  nElectrons: 594.000000
SCF: Cycle:  2   F: -3989.406754032115259   dF: -9.287e+01   |Residual|: 5.525e+00   |deigs|: 9.340e-02  t[s]:   8462.53
	FillingsUpdate:  mu: +0.491197676  nElectrons: 594.000000
SCF: Cycle:  3   F: -4039.772647180743661   dF: -5.037e+01   |Residual|: 3.115e+00   |deigs|: 2.985e-02  t[s]:   8640.53
	FillingsUpdate:  mu: +0.491770719  nElectrons: 594.000000
SCF: Cycle:  4   F: -4034.272636155946657   dF: +5.500e+00   |Residual|: 3.338e+00   |deigs|: 1.625e-02  t[s]:   8818.05
	FillingsUpdate:  mu: +0.488752336  nElectrons: 594.000000
SCF: Cycle:  5   F: -4050.785454948040297   dF: -1.651e+01   |Residual|: 2.226e+00   |deigs|: 1.428e-02  t[s]:   8994.29
	FillingsUpdate:  mu: +0.490570685  nElectrons: 594.000000
SCF: Cycle:  6   F: -4049.816595931933989   dF: +9.689e-01   |Residual|: 2.264e+00   |deigs|: 6.194e-03  t[s]:   9169.93
	FillingsUpdate:  mu: +0.488743226  nElectrons: 594.000000
SCF: Cycle:  7   F: -4050.967496516320807   dF: -1.151e+00   |Residual|: 2.226e+00   |deigs|: 5.141e-03  t[s]:   9347.87
	FillingsUpdate:  mu: +0.487676008  nElectrons: 594.000000
SCF: Cycle:  8   F: -4049.969217118494726   dF: +9.983e-01   |Residual|: 2.193e+00   |deigs|: 2.785e-03  t[s]:   9521.95
	FillingsUpdate:  mu: +0.481589152  nElectrons: 594.000000
SCF: Cycle:  9   F: -4061.416970744329774   dF: -1.145e+01   |Residual|: 9.511e-01   |deigs|: 6.345e-03  t[s]:   9697.17
	FillingsUpdate:  mu: +0.481525198  nElectrons: 594.000000
SCF: Cycle: 10   F: -4062.043059851529506   dF: -6.261e-01   |Residual|: 8.091e-01   |deigs|: 1.140e-03  t[s]:   9872.84
	FillingsUpdate:  mu: +0.484678749  nElectrons: 594.000000
SCF: Cycle: 11   F: -4062.329405134699300   dF: -2.863e-01   |Residual|: 7.611e-01   |deigs|: 3.994e-03  t[s]:  10052.44
	FillingsUpdate:  mu: +0.485124206  nElectrons: 594.000000
SCF: Cycle: 12   F: -4063.561202421607959   dF: -1.232e+00   |Residual|: 3.516e-01   |deigs|: 3.555e-03  t[s]:  10230.07
	FillingsUpdate:  mu: +0.484937626  nElectrons: 594.000000
SCF: Cycle: 13   F: -4063.571108086068307   dF: -9.906e-03   |Residual|: 3.540e-01   |deigs|: 1.576e-03  t[s]:  10404.98
	FillingsUpdate:  mu: +0.483993078  nElectrons: 594.000000
SCF: Cycle: 14   F: -4063.441175970464428   dF: +1.299e-01   |Residual|: 4.072e-01   |deigs|: 1.801e-03  t[s]:  10584.06
	FillingsUpdate:  mu: +0.483876378  nElectrons: 594.000000
SCF: Cycle: 15   F: -4063.652614253158390   dF: -2.114e-01   |Residual|: 2.922e-01   |deigs|: 9.530e-04  t[s]:  10760.85
	FillingsUpdate:  mu: +0.483281333  nElectrons: 594.000000
SCF: Cycle: 16   F: -4063.245206820136445   dF: +4.074e-01   |Residual|: 4.829e-01   |deigs|: 1.924e-03  t[s]:  10941.13
	FillingsUpdate:  mu: +0.484500661  nElectrons: 594.000000
SCF: Cycle: 17   F: -4062.554174761634840   dF: +6.910e-01   |Residual|: 6.745e-01   |deigs|: 1.707e-03  t[s]:  11119.12
	FillingsUpdate:  mu: +0.485063449  nElectrons: 594.000000
SCF: Cycle: 18   F: -4063.645858704956936   dF: -1.092e+00   |Residual|: 2.777e-01   |deigs|: 1.051e-03  t[s]:  11295.86
	FillingsUpdate:  mu: +0.483799570  nElectrons: 594.000000
SCF: Cycle: 19   F: -4063.744623784585656   dF: -9.877e-02   |Residual|: 2.052e-01   |deigs|: 1.493e-03  t[s]:  11464.96
	FillingsUpdate:  mu: +0.485380903  nElectrons: 594.000000
SCF: Cycle: 20   F: -4063.508267596308997   dF: +2.364e-01   |Residual|: 3.636e-01   |deigs|: 1.495e-03  t[s]:  11642.39
	FillingsUpdate:  mu: +0.484215076  nElectrons: 594.000000
SCF: Cycle: 21   F: -4063.501201335073802   dF: +7.066e-03   |Residual|: 3.468e-01   |deigs|: 1.168e-03  t[s]:  11820.50
	FillingsUpdate:  mu: +0.484496425  nElectrons: 594.000000
SCF: Cycle: 22   F: -4063.535127845029820   dF: -3.393e-02   |Residual|: 3.452e-01   |deigs|: 1.148e-03  t[s]:  11998.12
	FillingsUpdate:  mu: +0.483492000  nElectrons: 594.000000
SCF: Cycle: 23   F: -4063.049612103688105   dF: +4.855e-01   |Residual|: 5.348e-01   |deigs|: 1.770e-03  t[s]:  12178.15
	FillingsUpdate:  mu: +0.483876179  nElectrons: 594.000000
SCF: Cycle: 24   F: -4063.762105019386127   dF: -7.125e-01   |Residual|: 1.752e-01   |deigs|: 1.045e-03  t[s]:  12355.83
	FillingsUpdate:  mu: +0.483955183  nElectrons: 594.000000
SCF: Cycle: 25   F: -4063.822235881460529   dF: -6.013e-02   |Residual|: 9.330e-02   |deigs|: 5.170e-04  t[s]:  12458.93
	FillingsUpdate:  mu: +0.483894145  nElectrons: 594.000000
SCF: Cycle: 26   F: -4063.818612673021107   dF: +3.623e-03   |Residual|: 1.031e-01   |deigs|: 4.585e-04  t[s]:  12564.00
	FillingsUpdate:  mu: +0.484003680  nElectrons: 594.000000
SCF: Cycle: 27   F: -4063.840525846258970   dF: -2.191e-02   |Residual|: 4.914e-02   |deigs|: 3.788e-04  t[s]:  12669.20
	FillingsUpdate:  mu: +0.484303857  nElectrons: 594.000000
SCF: Cycle: 28   F: -4063.827752510146183   dF: +1.277e-02   |Residual|: 8.332e-02   |deigs|: 4.343e-04  t[s]:  12774.47
	FillingsUpdate:  mu: +0.484502541  nElectrons: 594.000000
SCF: Cycle: 29   F: -4063.759913888500705   dF: +6.784e-02   |Residual|: 1.761e-01   |deigs|: 6.314e-04  t[s]:  12880.47
	FillingsUpdate:  mu: +0.484059345  nElectrons: 594.000000
SCF: Cycle: 30   F: -4063.821989390884482   dF: -6.208e-02   |Residual|: 9.702e-02   |deigs|: 8.203e-04  t[s]:  12987.13
	FillingsUpdate:  mu: +0.484199752  nElectrons: 594.000000
SCF: Cycle: 31   F: -4063.845519126776708   dF: -2.353e-02   |Residual|: 1.792e-02   |deigs|: 4.212e-04  t[s]:  13092.86
	FillingsUpdate:  mu: +0.484061161  nElectrons: 594.000000
SCF: Cycle: 32   F: -4063.825643100248726   dF: +1.988e-02   |Residual|: 8.752e-02   |deigs|: 3.335e-04  t[s]:  13195.82
	FillingsUpdate:  mu: +0.484071186  nElectrons: 594.000000
SCF: Cycle: 33   F: -4063.825401829260954   dF: +2.413e-04   |Residual|: 8.655e-02   |deigs|: 4.032e-04  t[s]:  13298.61
	FillingsUpdate:  mu: +0.484045860  nElectrons: 594.000000
SCF: Cycle: 34   F: -4063.845456851656309   dF: -2.006e-02   |Residual|: 1.767e-02   |deigs|: 3.110e-04  t[s]:  13402.81
	FillingsUpdate:  mu: +0.484076373  nElectrons: 594.000000
SCF: Cycle: 35   F: -4063.841959122717981   dF: +3.498e-03   |Residual|: 3.910e-02   |deigs|: 1.801e-04  t[s]:  13507.38
	FillingsUpdate:  mu: +0.484090020  nElectrons: 594.000000
SCF: Cycle: 36   F: -4063.845178647989997   dF: -3.220e-03   |Residual|: 2.020e-02   |deigs|: 1.727e-04  t[s]:  13614.45
	FillingsUpdate:  mu: +0.484118256  nElectrons: 594.000000
SCF: Cycle: 37   F: -4063.845186025924704   dF: -7.378e-06   |Residual|: 1.942e-02   |deigs|: 1.310e-04  t[s]:  13719.39
	FillingsUpdate:  mu: +0.484147549  nElectrons: 594.000000
SCF: Cycle: 38   F: -4063.845807270674413   dF: -6.212e-04   |Residual|: 1.312e-02   |deigs|: 9.599e-05  t[s]:  13825.75
	FillingsUpdate:  mu: +0.484125816  nElectrons: 594.000000
SCF: Cycle: 39   F: -4063.846126765495683   dF: -3.195e-04   |Residual|: 7.398e-03   |deigs|: 8.100e-05  t[s]:  13929.57
	FillingsUpdate:  mu: +0.484136427  nElectrons: 594.000000
SCF: Cycle: 40   F: -4063.845852589911374   dF: +2.742e-04   |Residual|: 1.226e-02   |deigs|: 7.184e-05  t[s]:  14032.18
	FillingsUpdate:  mu: +0.484142266  nElectrons: 594.000000
SCF: Cycle: 41   F: -4063.845509744251558   dF: +3.428e-04   |Residual|: 1.701e-02   |deigs|: 9.940e-05  t[s]:  14136.16
	FillingsUpdate:  mu: +0.484112986  nElectrons: 594.000000
SCF: Cycle: 42   F: -4063.846182221952404   dF: -6.725e-04   |Residual|: 5.375e-03   |deigs|: 8.975e-05  t[s]:  14239.32
	FillingsUpdate:  mu: +0.484082586  nElectrons: 594.000000
SCF: Cycle: 43   F: -4063.846092093443531   dF: +9.013e-05   |Residual|: 8.361e-03   |deigs|: 5.453e-05  t[s]:  14343.03
	FillingsUpdate:  mu: +0.484097054  nElectrons: 594.000000
SCF: Cycle: 44   F: -4063.846117946061440   dF: -2.585e-05   |Residual|: 7.173e-03   |deigs|: 5.544e-05  t[s]:  14448.50
	FillingsUpdate:  mu: +0.484106538  nElectrons: 594.000000
SCF: Cycle: 45   F: -4063.846221402472111   dF: -1.035e-04   |Residual|: 3.944e-03   |deigs|: 3.939e-05  t[s]:  14551.84
	FillingsUpdate:  mu: +0.484110174  nElectrons: 594.000000
SCF: Cycle: 46   F: -4063.846197432585086   dF: +2.397e-05   |Residual|: 4.816e-03   |deigs|: 3.036e-05  t[s]:  14656.37
	FillingsUpdate:  mu: +0.484120006  nElectrons: 594.000000
SCF: Cycle: 47   F: -4063.846225242409673   dF: -2.781e-05   |Residual|: 3.595e-03   |deigs|: 2.723e-05  t[s]:  14760.19
	FillingsUpdate:  mu: +0.484119321  nElectrons: 594.000000
SCF: Cycle: 48   F: -4063.846240247657988   dF: -1.501e-05   |Residual|: 2.781e-03   |deigs|: 2.079e-05  t[s]:  14861.37
	FillingsUpdate:  mu: +0.484117838  nElectrons: 594.000000
SCF: Cycle: 49   F: -4063.846249106712548   dF: -8.859e-06   |Residual|: 2.113e-03   |deigs|: 1.630e-05  t[s]:  14962.32
Setting wave functions to eigenvectors of Hamiltonian

# Ionic positions in lattice coordinates:
ion Co   0.379658497133922   0.371313220436427   0.124368775899770 1
ion Co   0.379779179890513   0.133738270894180   0.376234986870565 1
ion Co   0.618474582021862   0.869417074923493   0.376187530428535 1
ion Co   0.119972870416847   0.135704813243314   0.133487770205792 1
ion Co   0.243166618828736   0.747842819711924   0.258807252338066 1
ion Co   0.007943215372612   0.513225549108242  -0.004949892518218 1
ion Co   0.379191978923357   0.898575623162383   0.627214645286903 1
ion Co   0.373862162007035   0.627237862477833   0.871025413188138 1
ion Co   0.622673464404091   0.384201288754332   0.868137813791337 1
ion Co   0.126801858895698   0.626669377778880   0.626019314021147 1
ion Co   0.244291821082810   0.256176095076975   0.767518965734693 1
ion Co   0.005441088471116  -0.011206579250089   0.494520478998637 1
ion Co   0.885883130484652   0.370722164548735   0.629616114830241 1
ion Co   0.869806926045471   0.130543795864300   0.862954777446214 1
ion Co   0.125377845110050   0.881237142407851   0.884395367360889 1
ion Co   0.616200851600384   0.138244840272022   0.618523831676684 1
ion Co   0.753257693499037   0.755735738715929   0.738604983009402 1
ion Co   0.494749122878021   0.499417593844946   0.507108617385752 1
ion Co   0.874011260289046   0.848006724416262   0.138722615736029 1
ion Co   0.857925488713338   0.614510200593646   0.372757268036283 1
ion Co   0.137119768873646   0.374195108232736   0.374402015221958 1
ion Co   0.624456128915507   0.628370647568926   0.132467809050978 1
ion Co   0.757030027575562   0.257734073276460   0.258396298417282 1
ion Co   0.507537108621432   0.006923811726822  -0.006344788004235 1
ion O   0.875066633568096   0.362359282038745   0.850548641195549 1
ion O   0.885068397163661   0.123131535237816   0.125815646294833 1
ion O   0.103585774316651   0.096539498523390   0.890758959461960 1
ion O   0.124046120736541   0.862691751110185   0.109269938321956 1
ion O   0.136747150227821   0.127914511326945   0.355352714531471 1
ion O   0.133783437055625   0.355442223628500   0.144635581015261 1
ion O   0.386905896540956   0.881518354921265   0.402956356591367 1
ion O   0.367789822133456   0.144243526651960   0.130445036799063 1
ion O   0.845409157296698   0.859912327101522   0.354230947768398 1
ion O   0.895271855878487   0.615263695473080   0.602410476347733 1
ion O   0.115973884716845   0.603942040564858   0.381129545887382 1
ion O   0.108060739002104   0.389863256578455   0.609473401224183 1
ion O   0.142761448458465   0.652024740325313   0.863857918821341 1
ion O   0.152429943134488   0.857236201797971   0.646161365761733 1
ion O   0.404146660281866   0.385300175387034   0.892608177075774 1
ion O   0.363623865797639   0.649277251831175   0.639134572119408 1
ion O   0.376926605669379   0.363207381115676   0.354179421654330 1
ion O   0.385753807884874   0.112594719271646   0.608609937423582 1
ion O   0.608464878736765   0.127527053286839   0.376795184127321 1
ion O   0.612221895739408   0.901071160065385   0.630803336776203 1
ion O   0.636880276661324   0.148169050172180   0.873178054753167 1
ion O   0.643495241941654   0.379797559600861   0.640258888648858 1
ion O   0.878491360132618   0.886706158863168   0.880035217658896 1
ion O   0.867135886966324   0.129916828927822   0.639818738577993 1
ion O   0.365152443591523   0.864113866842400   0.853829865044230 1
ion O   0.402530613934846   0.623310080070909   0.107911755102476 1
ion O   0.621674338852653   0.607795748625848   0.882314336035876 1
ion O   0.618624140911182   0.393788477209868   0.101024527458782 1
ion O   0.633189113704773   0.639053426523112   0.367440118423145 1
ion O   0.631180220683516   0.855485657247774   0.130707090794583 1
ion O   0.890595698225018   0.394395201891767   0.382456283890302 1

# Forces in Lattice coordinates:
force Co   0.140946425364469   0.531914491298384  -0.184336541998190 1
force Co  -0.304115564648272  -0.408915252453838  -0.339802492089894 1
force Co  -0.123535599815738   0.507492706269201   0.099204318322904 1
force Co  -0.073403138366062  -0.927774661951752  -0.659831815180192 1
force Co   0.321013607040033  -0.039229654502254  -0.016760587107822 1
force Co   0.001463672802478  -0.228660770866394   0.050306857046295 1
force Co  -0.163668021035340  -1.378147782096356   0.341853909062358 1
force Co   0.425238462426105   0.092936941735823   0.190268722938541 1
force Co   0.858254617325364  -0.366839454393656   0.225305816564906 1
force Co   0.163696503063664   0.045603256348461  -0.170004059595647 1
force Co   0.023714553290097  -0.064731840682961  -0.112372820554536 1
force Co  -0.101782883466460  -0.066701882251913   0.091524398761249 1
force Co  -0.429917788041762   0.254498135058267  -0.738579494552335 1
force Co   0.204333217398320  -0.509788635545112   0.943445947202378 1
force Co   0.054068367414732  -0.707322118732460  -0.472340177227803 1
force Co   0.523287149365880  -0.012887774528540   0.265144006649358 1
force Co   0.044053412848784  -0.169624493207504   0.108077505089909 1
force Co  -0.004642167010806   0.158342911540565  -0.068251986751600 1
force Co  -0.023726887358363   0.228794797275423  -0.905255621100281 1
force Co   0.436390757555579   0.635445159361453  -0.370998998563925 1
force Co  -0.323764858631797  -0.114369146503803   0.118069747793803 1
force Co   0.557312604100162  -0.087658598946407  -0.270799792571292 1
force Co  -0.147019698140057  -0.011147590025682  -0.265045941668961 1
force Co  -0.167336344811903  -0.197551240689656   0.118287838661134 1
force O  -0.020141022471394   0.362124191400115   0.699736006772147 1
force O   0.026286773734118  -0.089784505735339  -0.217519237485639 1
force O   0.194629783895457   1.083786236686092  -0.062075137375318 1
force O  -0.429895098065242   0.380112761150384   0.375220274241616 1
force O   0.057368423237175   0.060475204012657   0.604002446372149 1
force O   0.034155004003908   0.769697468896926  -0.366172206725117 1
force O  -0.111218506528052   0.097262155406086  -0.645257708833897 1
force O   0.001029235083305  -0.386028026525854   0.034796883403821 1
force O   0.506957053004277  -0.078300324238017   0.630819802274304 1
force O  -0.260383918871513   0.048592161151268   0.541946496191003 1
force O  -0.050994645718655   0.240336438740164   0.123024254554555 1
force O   0.666190652465624  -0.232720513100281   0.264224298786566 1
force O  -0.297147148039157  -0.484845912021076   0.126859682270958 1
force O  -0.657199633388583   0.566262355127531  -0.393853017216909 1
force O  -0.926135242377288   0.013380812566495  -0.329169089432520 1
force O   0.195612909170243  -0.275734650822499  -0.204378815895569 1
force O  -0.081727781557686   0.230645243602833   0.333507028753002 1
force O  -0.248469242543559   1.111118411643514   0.274624616433428 1
force O   0.248230419317776  -0.229867250112987   0.154530935094224 1
force O   0.188522113075544  -0.049865665844956  -0.361849550248376 1
force O  -0.088475452735961  -0.007327403003839  -0.343712485775408 1
force O  -0.123495138189763  -0.210340903246023  -0.328410045777371 1
force O   0.096376992212092   0.005383305840481   0.269589696359347 1
force O  -0.063451404756802   0.014015077093805  -0.597099273448647 1
force O   0.196244703797396   0.325992948754438   0.627855400754218 1
force O  -0.796078407323416  -0.154959650372941   0.150575944258086 1
force O  -0.038398135211053   0.610196367304157  -0.056191876120748 1
force O   0.087263654498330  -0.200999106189969   0.504761537210830 1
force O  -0.314619149825212  -0.337385348397034   0.024741630296616 1
force O   0.105678616136751   0.215222842559212   0.089087677435501 1
force O   0.029619116818949  -0.520847974123568   0.107757109169048 1

# Energy components:
   Eewald =    -2509.9469817596982466
       EH =     1406.0140154277441980
     Eloc =    -3903.1527275036692117
      Enl =      691.6605263079408132
      Exc =     -499.1529818268624581
 Exc_core =       14.6002805607114787
       KE =      736.5791906849934776
-------------------------------------
     Etot =    -4063.3986781088397038
       TS =        0.4517721249462777
-------------------------------------
        F =    -4063.8504502337859776

IonicMinimize: Iter:   1  F: -4063.850450233785978  |grad|_K:  2.553e-02  alpha:  5.965e-01  linmin: -9.867e-01  t[s]:  14986.08

#--- Lowdin population analysis ---
# oxidation-state Co +0.224 +0.220 +0.234 +0.228 +0.218 +0.235 +0.205 +0.225 +0.209 +0.220 +0.239 +0.237 +0.220 +0.221 +0.209 +0.232 +0.229 +0.220 +0.169 +0.159 +0.221 +0.156 +0.229 +0.239
# oxidation-state O -0.140 -0.176 -0.138 -0.154 -0.142 -0.123 -0.155 -0.152 -0.111 -0.142 -0.147 -0.138 -0.125 -0.145 -0.123 -0.159 -0.122 -0.103 -0.145 -0.145 -0.142 -0.149 -0.172 -0.142 -0.141 -0.150 -0.155 -0.152 -0.094 -0.126 -0.131


-------- Electronic minimization -----------
Will mix electronic density at each iteration.
	FillingsUpdate:  mu: +0.484117838  nElectrons: 594.000000
	FillingsUpdate:  mu: +0.488033772  nElectrons: 594.000000
SCF: Cycle:  0   F: -4020.057892119442840   dF: +4.016e+01   |Residual|: 3.558e+00   |deigs|: 8.057e-03  t[s]:  15227.54
	FillingsUpdate:  mu: +0.661481817  nElectrons: 594.000000
SCF: Cycle:  1   F: -3804.490668898469266   dF: +2.156e+02   |Residual|: 1.080e+01   |deigs|: 2.250e-01  t[s]:  15405.53
	FillingsUpdate:  mu: +0.514017644  nElectrons: 594.000000
SCF: Cycle:  2   F: -3912.923936395044166   dF: -1.084e+02   |Residual|: 7.408e+00   |deigs|: 1.547e-01  t[s]:  15582.37
	FillingsUpdate:  mu: +0.500297274  nElectrons: 594.000000
SCF: Cycle:  3   F: -4004.655376268979580   dF: -9.173e+01   |Residual|: 4.874e+00   |deigs|: 4.225e-02  t[s]:  15761.81
	FillingsUpdate:  mu: +0.491222578  nElectrons: 594.000000
SCF: Cycle:  4   F: -3994.508204119445509   dF: +1.015e+01   |Residual|: 4.941e+00   |deigs|: 2.734e-02  t[s]:  15941.52
	FillingsUpdate:  mu: +0.489484715  nElectrons: 594.000000
SCF: Cycle:  5   F: -4036.932153713165462   dF: -4.242e+01   |Residual|: 3.108e+00   |deigs|: 2.009e-02  t[s]:  16117.90
	FillingsUpdate:  mu: +0.495783136  nElectrons: 594.000000
SCF: Cycle:  6   F: -4035.181219304496153   dF: +1.751e+00   |Residual|: 3.149e+00   |deigs|: 1.229e-02  t[s]:  16295.98
	FillingsUpdate:  mu: +0.497217257  nElectrons: 594.000000
SCF: Cycle:  7   F: -4026.771969311099838   dF: +8.409e+00   |Residual|: 3.574e+00   |deigs|: 5.290e-03  t[s]:  16474.72
	FillingsUpdate:  mu: +0.483755557  nElectrons: 594.000000
SCF: Cycle:  8   F: -4043.644828387376492   dF: -1.687e+01   |Residual|: 2.609e+00   |deigs|: 1.336e-02  t[s]:  16651.14
	FillingsUpdate:  mu: +0.478770489  nElectrons: 594.000000
SCF: Cycle:  9   F: -4061.948010324075767   dF: -1.830e+01   |Residual|: 9.556e-01   |deigs|: 7.977e-03  t[s]:  16828.58
	FillingsUpdate:  mu: +0.482875946  nElectrons: 594.000000
SCF: Cycle: 10   F: -4060.925087723242996   dF: +1.023e+00   |Residual|: 1.119e+00   |deigs|: 4.757e-03  t[s]:  17007.31
	FillingsUpdate:  mu: +0.485494758  nElectrons: 594.000000
SCF: Cycle: 11   F: -4058.665419459572604   dF: +2.260e+00   |Residual|: 1.368e+00   |deigs|: 4.521e-03  t[s]:  17184.49
	FillingsUpdate:  mu: +0.484627543  nElectrons: 594.000000
SCF: Cycle: 12   F: -4062.748691784543553   dF: -4.083e+00   |Residual|: 7.052e-01   |deigs|: 6.962e-03  t[s]:  17363.10
	FillingsUpdate:  mu: +0.484329718  nElectrons: 594.000000
SCF: Cycle: 13   F: -4063.197264939973138   dF: -4.486e-01   |Residual|: 5.884e-01   |deigs|: 1.838e-03  t[s]:  17542.85
	FillingsUpdate:  mu: +0.482579869  nElectrons: 594.000000
SCF: Cycle: 14   F: -4062.799932299233660   dF: +3.973e-01   |Residual|: 6.894e-01   |deigs|: 2.232e-03  t[s]:  17716.92
	FillingsUpdate:  mu: +0.480639671  nElectrons: 594.000000
SCF: Cycle: 15   F: -4062.386718595052571   dF: +4.132e-01   |Residual|: 7.704e-01   |deigs|: 2.212e-03  t[s]:  17890.97
	FillingsUpdate:  mu: +0.480435288  nElectrons: 594.000000
SCF: Cycle: 16   F: -4063.149543241296669   dF: -7.628e-01   |Residual|: 5.675e-01   |deigs|: 1.215e-03  t[s]:  18068.46
	FillingsUpdate:  mu: +0.482915788  nElectrons: 594.000000
SCF: Cycle: 17   F: -4062.076531744306976   dF: +1.073e+00   |Residual|: 8.555e-01   |deigs|: 2.907e-03  t[s]:  18245.32
	FillingsUpdate:  mu: +0.486050129  nElectrons: 594.000000
SCF: Cycle: 18   F: -4059.432387443706830   dF: +2.644e+00   |Residual|: 1.293e+00   |deigs|: 3.409e-03  t[s]:  18418.76
	FillingsUpdate:  mu: +0.482884472  nElectrons: 594.000000
SCF: Cycle: 19   F: -4063.520161625595392   dF: -4.088e+00   |Residual|: 4.042e-01   |deigs|: 3.319e-03  t[s]:  18597.92
	FillingsUpdate:  mu: +0.487187512  nElectrons: 594.000000
SCF: Cycle: 20   F: -4062.947652087736969   dF: +5.725e-01   |Residual|: 6.369e-01   |deigs|: 3.409e-03  t[s]:  18774.03
	FillingsUpdate:  mu: +0.484300845  nElectrons: 594.000000
SCF: Cycle: 21   F: -4062.866340776320612   dF: +8.131e-02   |Residual|: 6.409e-01   |deigs|: 3.126e-03  t[s]:  18947.76
	FillingsUpdate:  mu: +0.483068245  nElectrons: 594.000000
SCF: Cycle: 22   F: -4063.171208060579829   dF: -3.049e-01   |Residual|: 5.167e-01   |deigs|: 2.393e-03  t[s]:  19121.32
	FillingsUpdate:  mu: +0.482690385  nElectrons: 594.000000
SCF: Cycle: 23   F: -4061.994225388796622   dF: +1.177e+00   |Residual|: 8.431e-01   |deigs|: 2.122e-03  t[s]:  19298.41
	FillingsUpdate:  mu: +0.483273792  nElectrons: 594.000000
SCF: Cycle: 24   F: -4063.723373800265563   dF: -1.729e+00   |Residual|: 2.947e-01   |deigs|: 1.887e-03  t[s]:  19469.76
	FillingsUpdate:  mu: +0.483646190  nElectrons: 594.000000
SCF: Cycle: 25   F: -4063.792335352182363   dF: -6.896e-02   |Residual|: 2.508e-01   |deigs|: 9.635e-04  t[s]:  19645.84
	FillingsUpdate:  mu: +0.482054643  nElectrons: 594.000000
SCF: Cycle: 26   F: -4063.556676533892642   dF: +2.357e-01   |Residual|: 3.879e-01   |deigs|: 1.806e-03  t[s]:  19820.17
	FillingsUpdate:  mu: +0.482826627  nElectrons: 594.000000
SCF: Cycle: 27   F: -4063.907936262313797   dF: -3.513e-01   |Residual|: 1.339e-01   |deigs|: 1.446e-03  t[s]:  19997.14
	FillingsUpdate:  mu: +0.483053380  nElectrons: 594.000000
SCF: Cycle: 28   F: -4063.931738466032584   dF: -2.380e-02   |Residual|: 1.011e-01   |deigs|: 6.091e-04  t[s]:  20101.56
	FillingsUpdate:  mu: +0.483260038  nElectrons: 594.000000
SCF: Cycle: 29   F: -4063.929901738425542   dF: +1.837e-03   |Residual|: 9.982e-02   |deigs|: 4.214e-04  t[s]:  20205.75
	FillingsUpdate:  mu: +0.483544505  nElectrons: 594.000000
SCF: Cycle: 30   F: -4063.847979836981267   dF: +8.192e-02   |Residual|: 1.975e-01   |deigs|: 6.211e-04  t[s]:  20310.15
	FillingsUpdate:  mu: +0.483256619  nElectrons: 594.000000
SCF: Cycle: 31   F: -4063.946780956686780   dF: -9.880e-02   |Residual|: 6.481e-02   |deigs|: 6.018e-04  t[s]:  20414.75
	FillingsUpdate:  mu: +0.483373692  nElectrons: 594.000000
SCF: Cycle: 32   F: -4063.945557525783443   dF: +1.223e-03   |Residual|: 6.557e-02   |deigs|: 4.195e-04  t[s]:  20517.83
	FillingsUpdate:  mu: +0.483238266  nElectrons: 594.000000
SCF: Cycle: 33   F: -4063.885064250237065   dF: +6.049e-02   |Residual|: 1.667e-01   |deigs|: 4.947e-04  t[s]:  20621.85
	FillingsUpdate:  mu: +0.483129338  nElectrons: 594.000000
SCF: Cycle: 34   F: -4063.948309228474500   dF: -6.324e-02   |Residual|: 5.672e-02   |deigs|: 3.878e-04  t[s]:  20725.62
	FillingsUpdate:  mu: +0.483103790  nElectrons: 594.000000
SCF: Cycle: 35   F: -4063.930387667852756   dF: +1.792e-02   |Residual|: 9.842e-02   |deigs|: 4.432e-04  t[s]:  20828.46
	FillingsUpdate:  mu: +0.483035983  nElectrons: 594.000000
SCF: Cycle: 36   F: -4063.864789379122158   dF: +6.560e-02   |Residual|: 1.857e-01   |deigs|: 5.863e-04  t[s]:  20931.76
	FillingsUpdate:  mu: +0.483085590  nElectrons: 594.000000
SCF: Cycle: 37   F: -4063.951578868629895   dF: -8.679e-02   |Residual|: 4.352e-02   |deigs|: 4.466e-04  t[s]:  21036.18
	FillingsUpdate:  mu: +0.483237964  nElectrons: 594.000000
SCF: Cycle: 38   F: -4063.949074725874652   dF: +2.504e-03   |Residual|: 5.516e-02   |deigs|: 3.010e-04  t[s]:  21141.06
	FillingsUpdate:  mu: +0.483163998  nElectrons: 594.000000
SCF: Cycle: 39   F: -4063.955462528771932   dF: -6.388e-03   |Residual|: 2.499e-02   |deigs|: 2.635e-04  t[s]:  21246.95
	FillingsUpdate:  mu: +0.483178810  nElectrons: 594.000000
SCF: Cycle: 40   F: -4063.956238470920198   dF: -7.759e-04   |Residual|: 1.795e-02   |deigs|: 1.355e-04  t[s]:  21349.93
	FillingsUpdate:  mu: +0.483205657  nElectrons: 594.000000
SCF: Cycle: 41   F: -4063.955946332476287   dF: +2.921e-04   |Residual|: 2.049e-02   |deigs|: 1.172e-04  t[s]:  21455.04
	FillingsUpdate:  mu: +0.483228414  nElectrons: 594.000000
SCF: Cycle: 42   F: -4063.956826156510942   dF: -8.798e-04   |Residual|: 1.071e-02   |deigs|: 1.092e-04  t[s]:  21559.85
	FillingsUpdate:  mu: +0.483174953  nElectrons: 594.000000
SCF: Cycle: 43   F: -4063.956816636981330   dF: +9.520e-06   |Residual|: 1.053e-02   |deigs|: 8.103e-05  t[s]:  21663.96
	FillingsUpdate:  mu: +0.483152830  nElectrons: 594.000000
SCF: Cycle: 44   F: -4063.956871449899154   dF: -5.481e-05   |Residual|: 9.478e-03   |deigs|: 7.812e-05  t[s]:  21766.80
	FillingsUpdate:  mu: +0.483156960  nElectrons: 594.000000
SCF: Cycle: 45   F: -4063.956940881110768   dF: -6.943e-05   |Residual|: 7.728e-03   |deigs|: 6.553e-05  t[s]:  21871.09
	FillingsUpdate:  mu: +0.483173027  nElectrons: 594.000000
SCF: Cycle: 46   F: -4063.956901013968945   dF: +3.987e-05   |Residual|: 8.977e-03   |deigs|: 5.739e-05  t[s]:  21973.91
	FillingsUpdate:  mu: +0.483202297  nElectrons: 594.000000
SCF: Cycle: 47   F: -4063.957031830435881   dF: -1.308e-04   |Residual|: 5.486e-03   |deigs|: 5.263e-05  t[s]:  22077.56
	FillingsUpdate:  mu: +0.483210088  nElectrons: 594.000000
SCF: Cycle: 48   F: -4063.956597132118986   dF: +4.347e-04   |Residual|: 1.335e-02   |deigs|: 7.210e-05  t[s]:  22180.90
	FillingsUpdate:  mu: +0.483190649  nElectrons: 594.000000
SCF: Cycle: 49   F: -4063.957050202292521   dF: -4.531e-04   |Residual|: 4.908e-03   |deigs|: 6.626e-05  t[s]:  22285.01
Setting wave functions to eigenvectors of Hamiltonian

# Ionic positions in lattice coordinates:
ion Co   0.380440336172852   0.374491308869103   0.123403919315917 1
ion Co   0.377774034614073   0.130832894414463   0.373989984225060 1
ion Co   0.617960744386821   0.872840135639589   0.376791965264248 1
ion Co   0.119956328640416   0.130337626905262   0.129779243512374 1
ion Co   0.245557781290631   0.747461517506442   0.258558432730625 1
ion Co   0.007864696636494   0.511431701190128  -0.004412770282764 1
ion Co   0.378589943255373   0.893579710004975   0.628370536253043 1
ion Co   0.376758796217853   0.627813251275501   0.872473106802247 1
ion Co   0.627248012988923   0.382458055922706   0.870062553984011 1
ion Co   0.127605653465141   0.626851931015521   0.624813861640781 1
ion Co   0.244500796561437   0.255654955614227   0.766452509641704 1
ion Co   0.004601079633441  -0.011683490702265   0.495231115074426 1
ion Co   0.883404136045778   0.372420290966390   0.625591474577944 1
ion Co   0.871202694757570   0.127416938276458   0.868613813412935 1
ion Co   0.125489274712741   0.878964923425914   0.881460584291357 1
ion Co   0.619751261479418   0.137894192758789   0.620437921743474 1
ion Co   0.753602799769651   0.754513926164711   0.739468132935731 1
ion Co   0.494813847181581   0.500479014498455   0.506497400742977 1
ion Co   0.873546589629212   0.849886971357401   0.133393899926282 1
ion Co   0.861055712864418   0.618443092658047   0.370361722518582 1
ion Co   0.134799192567538   0.373276722658187   0.375016151762047 1
ion Co   0.627764644974488   0.627807839442090   0.130445902623615 1
ion Co   0.755897178288476   0.257561902303359   0.256282209320239 1
ion Co   0.506327491576678   0.005518311773084  -0.005494440014075 1
ion O   0.874814273262063   0.364693602142380   0.854547717019232 1
ion O   0.885145572315283   0.122297335866736   0.124007823180013 1
ion O   0.105265362464343   0.102016263743380   0.890297526990195 1
ion O   0.120687492178155   0.865770508829185   0.111637802374935 1
ion O   0.137102041516969   0.128574429351315   0.358723849614853 1
ion O   0.134001585062388   0.359559199595409   0.141917122658439 1
ion O   0.385925506970451   0.882479736774764   0.398927480062355 1
ion O   0.367625390899570   0.141903743629069   0.130757899630748 1
ion O   0.849175190229715   0.859168973056790   0.357494704296807 1
ion O   0.893469799374795   0.615499798781296   0.606089571144930 1
ion O   0.115455672044942   0.605729361382661   0.382079298639057 1
ion O   0.112312018099510   0.388193215241554   0.611375771350068 1
ion O   0.140912776762247   0.648234729380435   0.864580158751379 1
ion O   0.147746443578303   0.861033429388747   0.643354943578567 1
ion O   0.399240241786349   0.385583328185492   0.890022198711208 1
ion O   0.365015458089221   0.647443102193279   0.637837504882319 1
ion O   0.376175926455244   0.364696792542036   0.356389100835416 1
ion O   0.384045989282175   0.116099923582159   0.610925057242904 1
ion O   0.610054493207811   0.125735149074679   0.378057140382304 1
ion O   0.613170817519169   0.900743595070448   0.628018267957852 1
ion O   0.636378066287792   0.147820242838085   0.870588671319303 1
ion O   0.642674824313954   0.378185989847394   0.637965665390147 1
ion O   0.879330344133688   0.886625970461217   0.882160324642513 1
ion O   0.866572846577693   0.130216019565069   0.636665919873731 1
ion O   0.366402990041048   0.866137345232887   0.858387141609568 1
ion O   0.397506123008386   0.622149638155003   0.109126758014413 1
ion O   0.621372197386517   0.611609164385110   0.881965818002430 1
ion O   0.619266100857282   0.392325329829783   0.104575960242615 1
ion O   0.631301555388801   0.636968559368550   0.367450625953892 1
ion O   0.632106059463001   0.856984896505063   0.131500760632970 1
ion O   0.890833813732134   0.391396902061488   0.383312183012056 1

# Forces in Lattice coordinates:
force Co   0.035438200512917   0.261166987242088  -0.068852188122543 1
force Co  -0.170798151453163  -0.248471001669188  -0.158648862497573 1
force Co   0.021593143655096   0.269654767991461   0.031820003286911 1
force Co   0.038093516610259  -0.514652169439538  -0.302413795815645 1
force Co   0.224882489132652  -0.038351819547835  -0.070119530771679 1
force Co  -0.022658894019474  -0.203476114438555   0.075433743839114 1
force Co  -0.120855652429473  -0.821001869935298   0.166415898063402 1
force Co   0.230260916399640   0.072642037413806   0.104737499660726 1
force Co   0.424186546211674  -0.138333072385297   0.138579918533853 1
force Co   0.072114149995264   0.023478938877602  -0.086533819728687 1
force Co   0.030145732377629  -0.060779980345873  -0.140095598914776 1
force Co  -0.109571439661309  -0.024525977369558   0.068562654662341 1
force Co  -0.184167219851697   0.148550574619629  -0.310706087877016 1
force Co   0.111877180335306  -0.209240286408066   0.524949394007363 1
force Co   0.027028716982954  -0.364499710466800  -0.255276647609474 1
force Co   0.307888679309937  -0.059355821579505   0.179380405061038 1
force Co   0.030136910519819  -0.095107873886052   0.097622619996806 1
force Co   0.020357052316179   0.097556769563340  -0.077804410989911 1
force Co  -0.054901219645572   0.223555064148723  -0.519155834594333 1
force Co   0.298387164727487   0.340294946012266  -0.188437728174488 1
force Co  -0.230045558800659  -0.071761375196328   0.035057495713732 1
force Co   0.283187594633090  -0.029552888495156  -0.173330864117695 1
force Co  -0.102362135091136  -0.025672471026656  -0.214969681970147 1
force Co  -0.111856709303982  -0.125218127595488   0.094991900677610 1
force O  -0.037956583723902   0.200029967726082   0.389624968209322 1
force O  -0.002956717877427  -0.103014608889170  -0.204682548125392 1
force O   0.173923422655074   0.615280882666029  -0.060731207945840 1
force O  -0.345094276902427   0.339652468898712   0.222391834054636 1
force O   0.018528314659132   0.072077491587572   0.304659648032815 1
force O   0.027094341284132   0.393213531629659  -0.268101138441982 1
force O  -0.101753386987534   0.114420443289296  -0.406533625662505 1
force O  -0.029639348821656  -0.208467701575356   0.022282171477176 1
force O   0.352422135308856  -0.066307792873716   0.287699377723680 1
force O  -0.170107630264726   0.013710602902836   0.336507296867877 1
force O  -0.072521959579590   0.179084642055846   0.092577119455498 1
force O   0.376982475245176  -0.152737534123004   0.172871767660972 1
force O  -0.143767248320127  -0.329931956154942   0.041984866662966 1
force O  -0.414347268932622   0.348218188292456  -0.263766515169471 1
force O  -0.465058314264004   0.051640975537960  -0.233466097556748 1
force O   0.122646990224783  -0.165046676915395  -0.091840617658517 1
force O  -0.112876423030985   0.109297791688951   0.201400346855888 1
force O  -0.122097213360866   0.642913823630951   0.180515231808817 1
force O   0.141832539703750  -0.190303607922761   0.145114401719404 1
force O   0.113664896856662  -0.065693794342258  -0.296448052055494 1
force O  -0.035711316984196  -0.076117940391638  -0.254485165058899 1
force O  -0.079663037494853  -0.172275636072283  -0.188808728084742 1
force O   0.090701537186372  -0.035762545108973   0.222962258277319 1
force O  -0.042650707203153   0.049969790339623  -0.269221349072605 1
force O   0.094679716527058   0.186745299997941   0.399035941950701 1
force O  -0.460551762491711  -0.120707626596446   0.136115245598972 1
force O  -0.019369368926044   0.354276787844319  -0.006075115541678 1
force O   0.067443125281782  -0.139155670214744   0.345563656818956 1
force O  -0.116393954301838  -0.150422576915283  -0.039818445660263 1
force O   0.105999563733025   0.139507679533365   0.098257661020935 1
force O   0.013800901211047  -0.264509552224491   0.066805466303797 1

# Energy components:
   Eewald =    -2518.7252606668216686
       EH =     1397.5132670370619508
     Eloc =    -3885.4645126520067606
      Enl =      691.5673764654951583
      Exc =     -498.9716610819781408
 Exc_core =       14.6003608150864004
       KE =      735.9630705632052923
-------------------------------------
     Etot =    -4063.5173595199576084
       TS =        0.4514893055281861
-------------------------------------
        F =    -4063.9688488254860204

IonicMinimize: Iter:   2  F: -4063.968848825486020  |grad|_K:  1.486e-02  alpha:  5.267e-01  linmin: -9.778e-01  t[s]:  22308.92

#--- Lowdin population analysis ---
# oxidation-state Co +0.226 +0.223 +0.239 +0.231 +0.218 +0.231 +0.210 +0.229 +0.212 +0.223 +0.232 +0.233 +0.219 +0.225 +0.216 +0.229 +0.229 +0.225 +0.170 +0.163 +0.225 +0.160 +0.239 +0.237
# oxidation-state O -0.148 -0.167 -0.137 -0.155 -0.145 -0.139 -0.149 -0.154 -0.121 -0.143 -0.146 -0.142 -0.129 -0.143 -0.132 -0.155 -0.130 -0.126 -0.146 -0.145 -0.140 -0.144 -0.161 -0.151 -0.139 -0.150 -0.153 -0.146 -0.107 -0.127 -0.132


-------- Electronic minimization -----------
Will mix electronic density at each iteration.
	FillingsUpdate:  mu: +0.483190649  nElectrons: 594.000000
	FillingsUpdate:  mu: +0.487336783  nElectrons: 594.000000
SCF: Cycle:  0   F: -4021.070816451175688   dF: +4.005e+01   |Residual|: 3.508e+00   |deigs|: 6.387e-03  t[s]:  22553.10
	FillingsUpdate:  mu: +0.673995671  nElectrons: 594.000000
SCF: Cycle:  1   F: -3799.402550843264635   dF: +2.217e+02   |Residual|: 1.086e+01   |deigs|: 2.198e-01  t[s]:  22730.45
	FillingsUpdate:  mu: +0.510436460  nElectrons: 594.000000
SCF: Cycle:  2   F: -3918.163677404675127   dF: -1.188e+02   |Residual|: 7.323e+00   |deigs|: 1.549e-01  t[s]:  22910.80
	FillingsUpdate:  mu: +0.495790158  nElectrons: 594.000000
SCF: Cycle:  3   F: -4002.720883628353477   dF: -8.456e+01   |Residual|: 4.941e+00   |deigs|: 4.246e-02  t[s]:  23087.14
	FillingsUpdate:  mu: +0.487402529  nElectrons: 594.000000
SCF: Cycle:  4   F: -4001.777753477068472   dF: +9.431e-01   |Residual|: 4.615e+00   |deigs|: 2.634e-02  t[s]:  23266.60
	FillingsUpdate:  mu: +0.489818718  nElectrons: 594.000000
SCF: Cycle:  5   F: -4047.479362234982545   dF: -4.570e+01   |Residual|: 2.591e+00   |deigs|: 2.205e-02  t[s]:  23443.47
	FillingsUpdate:  mu: +0.488517810  nElectrons: 594.000000
SCF: Cycle:  6   F: -4052.963294452143600   dF: -5.484e+00   |Residual|: 2.066e+00   |deigs|: 1.132e-02  t[s]:  23623.46
	FillingsUpdate:  mu: +0.491672715  nElectrons: 594.000000
SCF: Cycle:  7   F: -4046.260707968516272   dF: +6.703e+00   |Residual|: 2.508e+00   |deigs|: 5.146e-03  t[s]:  23800.95
	FillingsUpdate:  mu: +0.483859198  nElectrons: 594.000000
SCF: Cycle:  8   F: -4056.967248776705219   dF: -1.071e+01   |Residual|: 1.580e+00   |deigs|: 8.430e-03  t[s]:  23980.43
	FillingsUpdate:  mu: +0.481669840  nElectrons: 594.000000
SCF: Cycle:  9   F: -4060.551792776774619   dF: -3.585e+00   |Residual|: 1.170e+00   |deigs|: 3.859e-03  t[s]:  24160.25
	FillingsUpdate:  mu: +0.481573135  nElectrons: 594.000000
SCF: Cycle: 10   F: -4060.102094857270913   dF: +4.497e-01   |Residual|: 1.215e+00   |deigs|: 2.647e-03  t[s]:  24340.38
	FillingsUpdate:  mu: +0.483329699  nElectrons: 594.000000
SCF: Cycle: 11   F: -4062.255492924873579   dF: -2.153e+00   |Residual|: 8.237e-01   |deigs|: 3.834e-03  t[s]:  24518.81
	FillingsUpdate:  mu: +0.485837277  nElectrons: 594.000000
SCF: Cycle: 12   F: -4063.387531880912320   dF: -1.132e+00   |Residual|: 5.230e-01   |deigs|: 5.046e-03  t[s]:  24695.47
	FillingsUpdate:  mu: +0.484059601  nElectrons: 594.000000
SCF: Cycle: 13   F: -4061.965695370910908   dF: +1.422e+00   |Residual|: 8.818e-01   |deigs|: 1.573e-03  t[s]:  24869.57
	FillingsUpdate:  mu: +0.482278590  nElectrons: 594.000000
SCF: Cycle: 14   F: -4063.311598056382081   dF: -1.346e+00   |Residual|: 5.035e-01   |deigs|: 2.197e-03  t[s]:  25047.49
	FillingsUpdate:  mu: +0.481967009  nElectrons: 594.000000
SCF: Cycle: 15   F: -4063.018055119209748   dF: +2.935e-01   |Residual|: 5.891e-01   |deigs|: 1.050e-03  t[s]:  25222.33
	FillingsUpdate:  mu: +0.480398464  nElectrons: 594.000000
SCF: Cycle: 16   F: -4061.091350253870132   dF: +1.927e+00   |Residual|: 1.044e+00   |deigs|: 1.476e-03  t[s]:  25399.40
	FillingsUpdate:  mu: +0.483685818  nElectrons: 594.000000
SCF: Cycle: 17   F: -4063.204240531650612   dF: -2.113e+00   |Residual|: 5.778e-01   |deigs|: 2.563e-03  t[s]:  25577.98
	FillingsUpdate:  mu: +0.484069639  nElectrons: 594.000000
SCF: Cycle: 18   F: -4063.026274005124378   dF: +1.780e-01   |Residual|: 6.149e-01   |deigs|: 1.283e-03  t[s]:  25756.62
	FillingsUpdate:  mu: +0.483224486  nElectrons: 594.000000
SCF: Cycle: 19   F: -4063.909082010058228   dF: -8.828e-01   |Residual|: 2.017e-01   |deigs|: 1.759e-03  t[s]:  25930.54
	FillingsUpdate:  mu: +0.483637264  nElectrons: 594.000000
SCF: Cycle: 20   F: -4062.328296422747826   dF: +1.581e+00   |Residual|: 8.063e-01   |deigs|: 1.655e-03  t[s]:  26104.81
	FillingsUpdate:  mu: +0.483156667  nElectrons: 594.000000
SCF: Cycle: 21   F: -4063.846163568271095   dF: -1.518e+00   |Residual|: 2.562e-01   |deigs|: 2.027e-03  t[s]:  26280.23
	FillingsUpdate:  mu: +0.483111250  nElectrons: 594.000000
SCF: Cycle: 22   F: -4063.896409875083009   dF: -5.025e-02   |Residual|: 2.112e-01   |deigs|: 9.030e-04  t[s]:  26459.03
	FillingsUpdate:  mu: +0.482293460  nElectrons: 594.000000
SCF: Cycle: 23   F: -4063.839398394286945   dF: +5.701e-02   |Residual|: 2.576e-01   |deigs|: 1.207e-03  t[s]:  26630.66
	FillingsUpdate:  mu: +0.482515569  nElectrons: 594.000000
SCF: Cycle: 24   F: -4063.998133548618171   dF: -1.587e-01   |Residual|: 7.831e-02   |deigs|: 6.572e-04  t[s]:  26745.26
	FillingsUpdate:  mu: +0.482728642  nElectrons: 594.000000
SCF: Cycle: 25   F: -4063.954482429724067   dF: +4.365e-02   |Residual|: 1.472e-01   |deigs|: 3.939e-04  t[s]:  26848.83
	FillingsUpdate:  mu: +0.482864254  nElectrons: 594.000000
SCF: Cycle: 26   F: -4063.947954089978793   dF: +6.528e-03   |Residual|: 1.515e-01   |deigs|: 5.042e-04  t[s]:  26960.59
	FillingsUpdate:  mu: +0.482603995  nElectrons: 594.000000
SCF: Cycle: 27   F: -4063.948342892810615   dF: -3.888e-04   |Residual|: 1.558e-01   |deigs|: 5.134e-04  t[s]:  27066.15
	FillingsUpdate:  mu: +0.482828408  nElectrons: 594.000000
SCF: Cycle: 28   F: -4064.010458817345807   dF: -6.212e-02   |Residual|: 3.916e-02   |deigs|: 4.509e-04  t[s]:  27170.76
	FillingsUpdate:  mu: +0.482792952  nElectrons: 594.000000
[...]
ion O   0.115228061949074   0.616442101631978   0.385909370755160 1
ion O   0.116646506658153   0.386641966737849   0.615248639791733 1
ion O   0.132332958274560   0.637218990824211   0.868957175510412 1
ion O   0.136286753007417   0.865627914675890   0.635446609884600 1
ion O   0.386275591810568   0.386706053422170   0.884874804044961 1
ion O   0.365258647436408   0.635349357751758   0.636122118775204 1
ion O   0.365578339047737   0.366456498025138   0.363703209904626 1
ion O   0.388077961285526   0.114850318628688   0.613238011833060 1
ion O   0.617579985665535   0.115950259216419   0.383794157319271 1
ion O   0.617546771417280   0.885471220589252   0.614304388550987 1
ion O   0.637269355137737   0.136948909316682   0.865216930703289 1
ion O   0.637415732672606   0.366623310588870   0.635626871424036 1
ion O   0.887043587679862   0.888178041186015   0.886254834265101 1
ion O   0.867465426540454   0.137705436397243   0.636164419505932 1
ion O   0.365710886673480   0.865416153197328   0.864943267815462 1
ion O   0.384653337922652   0.616553139054669   0.114788777676486 1
ion O   0.615484396725086   0.616391542616829   0.886089100218936 1
ion O   0.615173455388787   0.387822946912370   0.114566164902885 1
ion O   0.641253991562093   0.634294848990255   0.359915744048618 1
ion O   0.641487976159730   0.861377505422997   0.133007894499945 1
ion O   0.887015191531503   0.387981062505349   0.386550621864820 1

# Forces in Lattice coordinates:
force Co  -0.000152925052440   0.000765929868932   0.000310175477245 1
force Co   0.005059351176329  -0.001499717035492   0.001896309065487 1
force Co  -0.001240333650091   0.003373053652664   0.002498990134428 1
force Co  -0.001316061928908   0.001455823540456  -0.001392442128819 1
force Co  -0.001051680537299   0.000856689378765   0.000609727930014 1
force Co  -0.007318887043452   0.004747922094204   0.005854329788356 1
force Co   0.004444385740845   0.003124677752025  -0.004030280087833 1
force Co  -0.000415651121714  -0.000665220419596   0.000369687558293 1
force Co  -0.001169710091895  -0.000489190773475  -0.000422657932721 1
force Co   0.001275681907391  -0.001434673829409  -0.000994400688523 1
force Co   0.002241882265062   0.001116596290716  -0.000022948643383 1
force Co  -0.001007056661028   0.001622172153271  -0.000060319287883 1
force Co   0.000718334522535   0.002444353940590  -0.001542831084034 1
force Co   0.001282397015914   0.000544543157093   0.001887527439115 1
force Co  -0.002738660777640   0.004756384429799   0.001969679371580 1
force Co  -0.001923405367100  -0.001457851648060  -0.003563281228104 1
force Co  -0.000242555863007   0.000798501532091   0.000594640460891 1
force Co   0.000014769973737   0.000816242418018   0.000329998196735 1
force Co   0.000357369010806  -0.000620277642016  -0.000113868463955 1
force Co   0.000225701214623   0.001747012593046  -0.001281557549336 1
force Co  -0.001974968535178   0.002215328267417   0.002482425782404 1
force Co   0.002669770097458   0.002138007127107   0.001563111054525 1
force Co  -0.000366152800385   0.002514642471811  -0.000070902757189 1
force Co   0.000274775586176   0.002440285152927  -0.000153569272855 1
force O   0.001748342180421   0.003709368143939   0.003222867413684 1
force O   0.001397958017342   0.000777299661244  -0.001296138244177 1
force O   0.000191023046789   0.000817396199593   0.000819102138697 1
force O   0.000456114170060   0.003047494972881  -0.001322494158086 1
force O  -0.000516200295395   0.000726889623857   0.001072725606049 1
force O  -0.003270777643644   0.004606099793169  -0.001435832746460 1
force O   0.001732734360420   0.001517956059632   0.001018515349469 1
force O   0.001609100876219   0.001064156026680  -0.001368784676543 1
force O   0.001885712396247  -0.000034356152016  -0.000338163168628 1
force O   0.001129376606114   0.000251495790530  -0.000175173813727 1
force O   0.000485382478299   0.000027569101027   0.003018189172431 1
force O   0.000536774865947   0.001914302916532   0.001327175685090 1
force O  -0.003447013893988  -0.002079847575565   0.004760311517142 1
force O  -0.001348585417237   0.003051869423668  -0.001414621237223 1
force O  -0.000439265109223   0.001796433936847   0.000570453879275 1
force O   0.000654180105676  -0.001061963979456  -0.000267609031305 1
force O   0.001979691336114   0.003538079685640   0.002075932646073 1
force O   0.002399575496977  -0.000410316214340  -0.001064168590063 1
force O  -0.000490957908446  -0.000856516135654   0.000822651306565 1
force O  -0.001885315167771   0.002666108465013  -0.002499307881768 1
force O  -0.000874765142104   0.001046542533598   0.002155618795778 1
force O  -0.001184683578464   0.003206823905299  -0.001003611911868 1
force O   0.002994532816929   0.004347759862366   0.001283937339315 1
force O   0.001919483274730   0.001654071333946  -0.000552363038929 1
force O   0.002390950414128   0.003409141717579   0.002453518560997 1
force O  -0.000371978486101   0.002586220585313   0.000960563080848 1
force O  -0.002346490247515   0.000999551959082  -0.000173278117239 1
force O  -0.001717829441018   0.001196261041061   0.000044457551098 1
force O   0.002119087629933  -0.000881205619318  -0.000405468333087 1
force O   0.000202767364775   0.001534393023992  -0.001585129558919 1
force O   0.001241294401120   0.002007832369576   0.002661825065909 1

# Energy components:
   Eewald =    -2529.8101902359803717
       EH =     1386.6222041820897175
     Eloc =    -3863.0860895155169601
      Enl =      691.5252582750239299
      Exc =     -498.7853767912955618
 Exc_core =       14.6004862257257066
       KE =      735.3348160708915202
-------------------------------------
     Etot =    -4063.5988917890622361
       TS =        0.4528790107070282
-------------------------------------
        F =    -4064.0517707997692014

IonicMinimize: Iter:  29  F: -4064.051770799769201  |grad|_K:  1.233e-04  alpha:  1.000e+00  linmin:  2.275e-02  t[s]: 193881.36

#--- Lowdin population analysis ---
# oxidation-state Co +0.226 +0.227 +0.232 +0.226 +0.229 +0.207 +0.227 +0.226 +0.225 +0.226 +0.239 +0.232 +0.226 +0.226 +0.225 +0.227 +0.229 +0.232 +0.166 +0.166 +0.225 +0.165 +0.229 +0.232
# oxidation-state O -0.147 -0.145 -0.144 -0.144 -0.145 -0.148 -0.148 -0.148 -0.127 -0.145 -0.145 -0.143 -0.148 -0.144 -0.142 -0.148 -0.143 -0.144 -0.150 -0.149 -0.145 -0.144 -0.143 -0.148 -0.143 -0.145 -0.145 -0.144 -0.128 -0.127 -0.143


-------- Electronic minimization -----------
Will mix electronic density at each iteration.
	FillingsUpdate:  mu: +0.482386706  nElectrons: 594.000000
	FillingsUpdate:  mu: +0.482363362  nElectrons: 594.000000
SCF: Cycle:  0   F: -4064.051599359850570   dF: +1.718e-04   |Residual|: 7.261e-03   |deigs|: 1.155e-07  t[s]: 194058.00
	FillingsUpdate:  mu: +0.482434293  nElectrons: 594.000000
SCF: Cycle:  1   F: -4064.020538028674309   dF: +3.106e-02   |Residual|: 1.022e-01   |deigs|: 3.864e-04  t[s]: 194161.57
	FillingsUpdate:  mu: +0.482401283  nElectrons: 594.000000
SCF: Cycle:  2   F: -4064.051060069301457   dF: -3.052e-02   |Residual|: 1.608e-02   |deigs|: 3.606e-04  t[s]: 194264.21
	FillingsUpdate:  mu: +0.482385401  nElectrons: 594.000000
SCF: Cycle:  3   F: -4064.051759158834102   dF: -6.991e-04   |Residual|: 2.842e-03   |deigs|: 9.199e-05  t[s]: 194370.34
	FillingsUpdate:  mu: +0.482375482  nElectrons: 594.000000
SCF: Cycle:  4   F: -4064.051640865386616   dF: +1.183e-04   |Residual|: 7.220e-03   |deigs|: 3.725e-05  t[s]: 194473.52
	FillingsUpdate:  mu: +0.482371894  nElectrons: 594.000000
SCF: Cycle:  5   F: -4064.051747284960129   dF: -1.064e-04   |Residual|: 3.437e-03   |deigs|: 3.445e-05  t[s]: 194578.02
	FillingsUpdate:  mu: +0.482371226  nElectrons: 594.000000
SCF: Cycle:  6   F: -4064.051776340318156   dF: -2.906e-05   |Residual|: 1.051e-03   |deigs|: 1.938e-05  t[s]: 194683.15
	FillingsUpdate:  mu: +0.482372236  nElectrons: 594.000000
SCF: Cycle:  7   F: -4064.051766584630514   dF: +9.756e-06   |Residual|: 2.238e-03   |deigs|: 1.673e-05  t[s]: 194788.04
	FillingsUpdate:  mu: +0.482382329  nElectrons: 594.000000
SCF: Cycle:  8   F: -4064.051777894781935   dF: -1.131e-05   |Residual|: 5.894e-04   |deigs|: 1.358e-05  t[s]: 194891.07
	FillingsUpdate:  mu: +0.482380285  nElectrons: 594.000000
SCF: Cycle:  9   F: -4064.051771858375105   dF: +6.036e-06   |Residual|: 1.571e-03   |deigs|: 7.678e-06  t[s]: 194990.53
	FillingsUpdate:  mu: +0.482375180  nElectrons: 594.000000
SCF: Cycle: 10   F: -4064.051778603375169   dF: -6.745e-06   |Residual|: 2.799e-04   |deigs|: 7.204e-06  t[s]: 195084.79
	FillingsUpdate:  mu: +0.482375651  nElectrons: 594.000000
SCF: Cycle: 11   F: -4064.051778331765945   dF: +2.716e-07   |Residual|: 4.370e-04   |deigs|: 1.856e-06  t[s]: 195175.95
	FillingsUpdate:  mu: +0.482377451  nElectrons: 594.000000
SCF: Cycle: 12   F: -4064.051778434793505   dF: -1.030e-07   |Residual|: 3.595e-04   |deigs|: 2.854e-06  t[s]: 195280.67
	FillingsUpdate:  mu: +0.482376992  nElectrons: 594.000000
SCF: Cycle: 13   F: -4064.051778302497951   dF: +1.323e-07   |Residual|: 4.245e-04   |deigs|: 2.600e-06  t[s]: 195386.73
	FillingsUpdate:  mu: +0.482377324  nElectrons: 594.000000
SCF: Cycle: 14   F: -4064.051778568668396   dF: -2.662e-07   |Residual|: 2.913e-04   |deigs|: 2.569e-06  t[s]: 195491.02
	FillingsUpdate:  mu: +0.482376775  nElectrons: 594.000000
SCF: Cycle: 15   F: -4064.051778734277832   dF: -1.656e-07   |Residual|: 1.522e-04   |deigs|: 1.806e-06  t[s]: 195593.08
	FillingsUpdate:  mu: +0.482377188  nElectrons: 594.000000
SCF: Cycle: 16   F: -4064.051778770026431   dF: -3.575e-08   |Residual|: 1.126e-04   |deigs|: 8.551e-07  t[s]: 195696.29
	FillingsUpdate:  mu: +0.482377126  nElectrons: 594.000000
SCF: Cycle: 17   F: -4064.051778781315534   dF: -1.129e-08   |Residual|: 8.576e-05   |deigs|: 6.067e-07  t[s]: 195797.88
	FillingsUpdate:  mu: +0.482377055  nElectrons: 594.000000
SCF: Cycle: 18   F: -4064.051778780674795   dF: +6.407e-10   |Residual|: 8.998e-05   |deigs|: 7.003e-07  t[s]: 195898.40
	FillingsUpdate:  mu: +0.482376296  nElectrons: 594.000000
SCF: Cycle: 19   F: -4064.051778753458166   dF: +2.722e-08   |Residual|: 1.364e-04   |deigs|: 9.724e-07  t[s]: 195998.90
	FillingsUpdate:  mu: +0.482376693  nElectrons: 594.000000
SCF: Cycle: 20   F: -4064.051778777510663   dF: -2.405e-08   |Residual|: 9.161e-05   |deigs|: 7.950e-07  t[s]: 196101.81
	FillingsUpdate:  mu: +0.482376944  nElectrons: 594.000000
SCF: Cycle: 21   F: -4064.051778798466785   dF: -2.096e-08   |Residual|: 3.040e-05   |deigs|: 4.868e-07  t[s]: 196190.39
	FillingsUpdate:  mu: +0.482377075  nElectrons: 594.000000
SCF: Cycle: 22   F: -4064.051778798793748   dF: -3.270e-10   |Residual|: 3.169e-05   |deigs|: 2.456e-07  t[s]: 196280.32
	FillingsUpdate:  mu: +0.482377028  nElectrons: 594.000000
SCF: Cycle: 23   F: -4064.051778799653675   dF: -8.599e-10   |Residual|: 2.075e-05   |deigs|: 1.547e-07  t[s]: 196365.82
SCF: Converged (|Delta E|<1.000000e-08 for 2 iters).

Setting wave functions to eigenvectors of Hamiltonian

# Ionic positions in lattice coordinates:
ion Co   0.374443076647948   0.378112137469291   0.124374312292472 1
ion Co   0.376787216061294   0.126182854270223   0.373524628703188 1
ion Co   0.627863366520781   0.874637648159784   0.373323176130775 1
ion Co   0.125197757337235   0.128359951497468   0.124349160798925 1
ion Co   0.249626542964585   0.750378290304061   0.248124822747375 1
ion Co  -0.010016776543377   0.512970174362535   0.011123669090518 1
ion Co   0.376857354824308   0.875010117491107   0.624537869696238 1
ion Co   0.374617456495100   0.626214223832046   0.876390975572575 1
ion Co   0.626252360624479   0.376789195812854   0.875188267445130 1
ion Co   0.125200435082896   0.626287179157142   0.626619785605256 1
ion Co   0.253774426114777   0.250632117689533   0.748058441135486 1
ion Co   0.000589260832455   0.000155083324442   0.498891690904819 1
ion Co   0.876978873942183   0.378074036952735   0.626932075403850 1
ion Co   0.877001116552325   0.128426582236922   0.876292417626126 1
ion Co   0.126425551497438   0.877177457405903   0.874994867381202 1
ion Co   0.627783617444160   0.126197283474531   0.624524543937795 1
ion Co   0.753914339137806   0.750375166140862   0.752272053198618 1
ion Co   0.501769264582353   0.501114334952017   0.498978924208418 1
ion Co   0.876224957726361   0.866957398046167   0.124991046378926 1
ion Co   0.876180823750040   0.626655535917136   0.364750951724104 1
ion Co   0.126293025601779   0.376772439345075   0.375238767872653 1
ion Co   0.637090987922511   0.626589285575871   0.124972378534379 1
ion Co   0.753808773553581   0.254525552376657   0.248278814242524 1
ion Co   0.501851175031134   0.000067374260399   0.000261259912550 1
ion O   0.865924385119433   0.370723207159026   0.869134288521022 1
ion O   0.886656747265250   0.118649437779105   0.114826492016854 1
ion O   0.116891025057781   0.117262471716682   0.884520006188142 1
ion O   0.115235689437922   0.887987577390646   0.114479771654733 1
ion O   0.136079479404956   0.136955592288416   0.364019998113322 1
ion O   0.132155590165313   0.370733487119363   0.135346225691545 1
ion O   0.387195716293190   0.885625117243646   0.384046213250787 1
ion O   0.365218139126330   0.137744477329866   0.133788908942452 1
ion O   0.868080915872966   0.861325029526257   0.359621954137281 1
ion O   0.886745789310087   0.616616611490863   0.616830545449962 1
ion O   0.115282957837936   0.616409061047670   0.385973416900355 1
ion O   0.116662825142257   0.386638113543559   0.615288471855693 1
ion O   0.132270987299265   0.637210622913380   0.869059185027396 1
ion O   0.136283595351525   0.865623155978117   0.635423105940473 1
ion O   0.386279917797041   0.386712666164063   0.884883130073186 1
ion O   0.365249993010400   0.635339180154318   0.636149950924812 1
ion O   0.365614600790662   0.366478483777631   0.363708460200121 1
ion O   0.388125198579838   0.114788207311363   0.613216489162127 1
ion O   0.617618933975721   0.115904246024689   0.383755530125436 1
ion O   0.617546390480618   0.885483325339947   0.614273383361881 1
ion O   0.637262252679555   0.136974697781340   0.865203704641300 1
ion O   0.637394639188680   0.366623479912276   0.635633332629313 1
ion O   0.887064036782430   0.888210489037853   0.886241771081716 1
ion O   0.867478338428820   0.137726899615036   0.636153809548160 1
ion O   0.365721548517662   0.865384123842028   0.864922603108254 1
ion O   0.384678897894419   0.616596354600929   0.114805385083197 1
ion O   0.615410668160433   0.616383906748387   0.886036589115424 1
ion O   0.615152563220267   0.387827467135631   0.114563020431124 1
ion O   0.641307674206112   0.634255092760387   0.359854670236653 1
ion O   0.641503909245373   0.861314657885769   0.132990736777141 1
ion O   0.886991610653606   0.387961339326997   0.386583949266237 1

# Forces in Lattice coordinates:
force Co  -0.000725513144540   0.001117357215300   0.000319674419177 1
force Co   0.001273127397075   0.001081151113705  -0.000669299642490 1
force Co   0.000080385224116   0.001354024696247   0.000450349501165 1
force Co   0.000080535730849   0.002183137836173  -0.000805812485321 1
force Co  -0.001072004455899   0.001213234654985   0.000991008596944 1
force Co  -0.006528661537106   0.004251498504544   0.005977411615203 1
force Co   0.001639510766299   0.000417552344816  -0.000418072069073 1
force Co  -0.001046038981411   0.000891778192661   0.000308661981921 1
force Co  -0.001143108503936   0.000428921111020  -0.000967346853360 1
force Co   0.001498110739345   0.000480915297470   0.001371892713652 1
force Co   0.001364349533478   0.000709875354514  -0.000004006271805 1
force Co  -0.000562023872893   0.001108617905884   0.000244879935585 1
force Co   0.000066200568714   0.001975824363275   0.000700647487291 1
force Co   0.000593189611969   0.000937129396538   0.000537803153836 1
force Co  -0.000477558191515   0.002681703544512  -0.000029343833936 1
force Co   0.000713954156389   0.000825596158860  -0.000019304016359 1
force Co   0.000132838597026   0.001156199276131   0.000744139934013 1
force Co   0.000166228946490   0.000903192072906   0.000230802716318 1
force Co   0.000703696334049  -0.000429695926188  -0.001333475629459 1
force Co   0.000163018306456   0.001661835156338  -0.001975473709294 1
force Co   0.000719590224717   0.001013253013812   0.001520409629960 1
force Co   0.003295193223223   0.001598691524468  -0.000428595344932 1
force Co   0.000445035909435   0.001828222557551   0.000323885200211 1
force Co   0.000412264414600   0.002611182756013   0.000203340909563 1
force O   0.001372457308850   0.002763343602926   0.002237321668895 1
force O   0.001843372086078   0.000243463081223  -0.001392759888735 1
force O  -0.000477869602391   0.002362516779483   0.001573165401320 1
force O  -0.000332140728227   0.003047084004751  -0.000614748366689 1
force O   0.000093847069174   0.000742494525828   0.000087910912155 1
force O  -0.001914950319709   0.004155985427460  -0.000508608093193 1
force O   0.002086309630540   0.000956261769524  -0.000426446578569 1
force O   0.000015929059944   0.001102566022443  -0.001020549425161 1
force O   0.001376496362766   0.000285347078654   0.000968229196261 1
force O  -0.000070517561655  -0.000074396246895  -0.000343218365724 1
force O  -0.000237472279784   0.000461389174009   0.002172209685460 1
force O   0.000485618132892   0.001319691397336   0.000903889144766 1
force O  -0.003762505511819  -0.001766667461330   0.003782008057853 1
force O  -0.000781553786065   0.002713229051167  -0.000810901916490 1
force O  -0.000805674352493   0.001182932399200   0.000914606158776 1
force O   0.001012377311527  -0.001079510307840  -0.000872592196679 1
force O   0.000532763437981   0.002391006310920   0.001856725055263 1
force O   0.001805587186952   0.001007784430213  -0.000991725526711 1
force O  -0.000086187531942   0.000070083789777   0.000400141922925 1
force O  -0.000634671916601   0.001415801034678  -0.002083671315025 1
force O  -0.000280762978171   0.000122804367975   0.001689094277707 1
force O  -0.000397058521262   0.002853251808655  -0.001454621033195 1
force O   0.002019057785664   0.003974754612608   0.001284114351655 1
force O   0.001420019892000   0.001734103554887  -0.000065730540389 1
force O   0.001879596753808   0.003852731779365   0.002091192457545 1
force O  -0.000761231278211   0.001406850611509   0.000910334639603 1
force O  -0.001442155891540   0.000736629137002   0.000990333733435 1
force O  -0.002384960718055   0.001150056253463  -0.000025788762598 1
force O   0.001528233898095  -0.000376487613221   0.001412872671015 1
force O   0.000139842906253   0.002932583332801  -0.001476033867773 1
force O   0.001406795227396   0.002144795863604   0.002247233983503 1

# Energy components:
   Eewald =    -2529.8481455189989902
       EH =     1386.5822753347667913
     Eloc =    -3863.0059459524291015
      Enl =      691.5246455914793842
      Exc =     -498.7843600575664595
 Exc_core =       14.6004840328251078
       KE =      735.3321631850849371
-------------------------------------
     Etot =    -4063.5988833848377908
       TS =        0.4528954148157806
-------------------------------------
        F =    -4064.0517787996536754

IonicMinimize: Iter:  30  F: -4064.051778799653675  |grad|_K:  9.253e-05  alpha:  1.000e+00  linmin: -5.022e-01  t[s]: 196388.47
IonicMinimize: Converged (|grad|_K<1.000000e-04).

#--- Lowdin population analysis ---
# oxidation-state Co +0.226 +0.227 +0.232 +0.226 +0.229 +0.207 +0.227 +0.226 +0.225 +0.226 +0.239 +0.232 +0.226 +0.226 +0.225 +0.227 +0.229 +0.232 +0.166 +0.166 +0.225 +0.165 +0.229 +0.232
# oxidation-state O -0.147 -0.144 -0.144 -0.144 -0.145 -0.148 -0.148 -0.148 -0.127 -0.145 -0.145 -0.143 -0.148 -0.144 -0.142 -0.148 -0.143 -0.143 -0.150 -0.149 -0.145 -0.144 -0.143 -0.148 -0.143 -0.145 -0.145 -0.144 -0.128 -0.127 -0.143


Dumping '/data/rc652/Co3O4/vac/Co3O4_vac.Ecomponents' ... done
End date and time: Wed Jun 26 19:24:56 2024  (Duration: 2-6:33:25.53)
Done!
