--------------------------------------------------------------------------
Initialization of PSM library failed.

  Error: PSM is in the finalized state
--------------------------------------------------------------------------

*************** JDFTx 1.7.0 (git hash 3664913) ***************

Start date and time: Mon Jun 24 12:25:12 2024
Executable jdftx with command-line: -i Co3O4_ion.in
Running on hosts (process indices):  node3205.physics.cornell.edu (0-15)
Divided in process groups (process indices):  0 (0)  1 (1)  2 (2)  3 (3)  4 (4)  5 (5)  6 (6)  7 (7)  8 (8)  9 (9)  10 (10)  11 (11)  12 (12)  13 (13)  14 (14)  15 (15)
Resource initialization completed at t[s]:      0.00
Run totals: 16 processes, 32 threads, 0 GPUs


Input parsed successfully to the following command list (including defaults):

basis kpoint-dependent
coords-type Lattice
core-overlap-check vector
coulomb-interaction Periodic
davidson-band-ratio 1.1
dump End Ecomponents
dump-name /data/rc652/Co3O4/ion/Co3O4_ion.$VAR
elec-cutoff 20 100
elec-eigen-algo Davidson
elec-ex-corr gga-PBEsol
elec-smearing Fermi 0.01
electronic-minimize  \
	dirUpdateScheme      FletcherReeves \
	linminMethod         DirUpdateRecommended \
	nIterations          100 \
	history              15 \
	knormThreshold       0 \
	maxThreshold         no \
	energyDiffThreshold  1e-08 \
	nEnergyDiff          2 \
	alphaTstart          1 \
	alphaTmin            1e-10 \
	updateTestStepSize   yes \
	alphaTreduceFactor   0.1 \
	alphaTincreaseFactor 3 \
	nAlphaAdjustMax      3 \
	wolfeEnergy          0.0001 \
	wolfeGradient        0.9 \
	fdTest               no
electronic-scf  \
	nIterations	50 \
	energyDiffThreshold	1e-08 \
	residualThreshold	1e-07 \
	mixFraction	0.5 \
	qMetric	0.8 \
	history	10 \
	nEigSteps	2 \
	eigDiffThreshold	1e-08 \
	mixedVariable	Density \
	qKerker	0.8 \
	qKappa	-1 \
	verbose	no \
	mixFractionMag	1.5
exchange-regularization WignerSeitzTruncated
fluid None
fluid-ex-corr lda-TF lda-PZ
fluid-gummel-loop 10 1.000000e-05
fluid-minimize  \
	dirUpdateScheme      PolakRibiere \
	linminMethod         DirUpdateRecommended \
	nIterations          100 \
	history              15 \
	knormThreshold       0 \
	maxThreshold         no \
	energyDiffThreshold  0 \
	nEnergyDiff          2 \
	alphaTstart          1 \
	alphaTmin            1e-10 \
	updateTestStepSize   yes \
	alphaTreduceFactor   0.1 \
	alphaTincreaseFactor 3 \
	nAlphaAdjustMax      3 \
	wolfeEnergy          0.0001 \
	wolfeGradient        0.9 \
	fdTest               no
fluid-solvent H2O 55.338 ScalarEOS \
	epsBulk 78.4 \
	pMol 0.92466 \
	epsInf 1.77 \
	Pvap 1.06736e-10 \
	sigmaBulk 4.62e-05 \
	Rvdw 2.61727 \
	Res 1.42 \
	tauNuc 343133 \
	poleEl 15 7 1
forces-output-coords Positions
ion Co   0.372820000000000   0.378850000000000   0.135190000000000 1
ion Co   0.373650000000000   0.140380000000000   0.365280000000000 1
ion Co   0.609410000000000   0.872150000000000   0.378970000000000 1
ion Co   0.154740000000000   0.128690000000000   0.118370000000000 1
ion Co   0.265310000000000   0.754510000000000   0.240310000000000 1
ion Co   0.011330000000000   0.515810000000000   0.004010000000000 1
ion Co   0.367700000000000   0.875590000000000   0.631800000000000 1
ion Co   0.371060000000000   0.625160000000000   0.888020000000000 1
ion Co   0.635230000000000   0.372240000000000   0.868860000000000 1
ion Co   0.123710000000000   0.606810000000000   0.631400000000000 1
ion Co   0.248700000000000   0.251660000000000   0.763580000000000 1
ion Co  -0.000590000000000   0.007590000000000   0.510520000000000 1
ion Co   0.866050000000000   0.385500000000000   0.622120000000000 1
ion Co   0.877180000000000   0.097850000000000   0.888410000000000 1
ion Co   0.119990000000000   0.863010000000000   0.891240000000000 1
ion Co   0.639890000000000   0.133990000000000   0.610750000000000 1
ion Co   0.744720000000000   0.750770000000000   0.767090000000000 1
ion Co   0.509490000000000   0.505750000000000   0.491740000000000 1
ion Co   0.899570000000000   0.873110000000000   0.139140000000000 1
ion Co   0.873670000000000   0.653240000000000   0.370550000000000 1
ion Co   0.127380000000000   0.379020000000000   0.370330000000000 1
ion Co   0.633060000000000   0.638610000000000   0.128400000000000 1
ion Co   0.770950000000000   0.254380000000000   0.265710000000000 1
ion Co   0.509520000000000  -0.003300000000000  -0.001900000000000 1
ion O   0.859820000000000   0.365940000000000   0.866490000000000 1
ion O   0.887040000000000   0.103300000000000   0.126940000000000 1
ion O   0.112970000000000   0.115030000000000   0.890470000000000 1
ion O   0.109210000000000   0.881690000000000   0.135180000000000 1
ion O   0.145940000000000   0.138020000000000   0.371820000000000 1
ion O   0.124010000000000   0.352330000000000   0.151430000000000 1
ion O   0.393790000000000   0.895690000000000   0.383110000000000 1
ion O   0.367210000000000   0.140320000000000   0.127500000000000 1
ion O   0.856950000000000   0.882950000000000   0.346350000000000 1
ion O   0.892900000000000   0.607660000000000   0.589710000000000 1
ion O   0.115340000000000   0.606880000000000   0.399650000000000 1
ion O   0.109150000000000   0.373780000000000   0.617410000000000 1
ion O   0.132320000000000   0.631110000000000   0.865250000000000 1
ion O   0.140590000000000   0.861190000000000   0.609020000000000 1
ion O   0.401530000000000   0.389900000000000   0.891940000000000 1
ion O   0.369820000000000   0.628890000000000   0.644930000000000 1
ion O   0.349520000000000   0.370090000000000   0.367010000000000 1
ion O   0.396840000000000   0.127460000000000   0.613920000000000 1
ion O   0.622270000000000   0.130590000000000   0.381230000000000 1
ion O   0.619860000000000   0.883120000000000   0.602440000000000 1
ion O   0.641100000000000   0.131090000000000   0.877740000000000 1
ion O   0.646490000000000   0.373510000000000   0.632650000000000 1
ion O   0.883710000000000   0.890460000000000   0.884330000000000 1
ion O   0.859770000000000   0.135650000000000   0.633130000000000 1
ion O   0.354700000000000   0.861900000000000   0.868450000000000 1
ion O   0.389770000000000   0.598750000000000   0.121640000000000 1
ion O   0.615780000000000   0.608850000000000   0.887250000000000 1
ion O   0.610960000000000   0.389890000000000   0.122370000000000 1
ion O   0.623110000000000   0.649950000000000   0.358430000000000 1
ion O   0.648920000000000   0.843850000000000   0.114700000000000 1
ion O   0.873180000000000   0.395360000000000   0.387420000000000 1
ion O   0.877160000000000   0.637900000000000   0.126380000000000 1
ion-species GBRV/$ID_pbesol.uspp
ion-width 0
ionic-minimize  \
	dirUpdateScheme      L-BFGS \
	linminMethod         DirUpdateRecommended \
	nIterations          30 \
	history              15 \
	knormThreshold       0.0001 \
	maxThreshold         no \
	energyDiffThreshold  1e-06 \
	nEnergyDiff          2 \
	alphaTstart          1 \
	alphaTmin            1e-10 \
	updateTestStepSize   yes \
	alphaTreduceFactor   0.1 \
	alphaTincreaseFactor 3 \
	nAlphaAdjustMax      3 \
	wolfeEnergy          0.0001 \
	wolfeGradient        0.9 \
	fdTest               no
kpoint   0.000000000000   0.000000000000   0.000000000000  1.00000000000000
kpoint-folding 4 4 4 
latt-move-scale 1 1 1
latt-scale 1 1 1 
lattice  \
	  15.036300125038156    0.000000000000000    0.000000000000000  \
	   0.000000000000000   15.036300125038156   -0.000000000000000  \
	   0.000000000000000   -0.000000000000000   15.036300125038156 
lattice-minimize  \
	dirUpdateScheme      L-BFGS \
	linminMethod         DirUpdateRecommended \
	nIterations          0 \
	history              15 \
	knormThreshold       0 \
	maxThreshold         no \
	energyDiffThreshold  1e-06 \
	nEnergyDiff          2 \
	alphaTstart          1 \
	alphaTmin            1e-10 \
	updateTestStepSize   yes \
	alphaTreduceFactor   0.1 \
	alphaTincreaseFactor 3 \
	nAlphaAdjustMax      3 \
	wolfeEnergy          0.0001 \
	wolfeGradient        0.9 \
	fdTest               no
lcao-params -1 1e-06 0.01
pcm-variant GLSSA13
perturb-minimize  \
	nIterations            0 \
	algorithm              MINRES \
	residualTol            0.0001 \
	residualDiffThreshold  0.0001 \
	CGBypass               no \
	recomputeResidual      no
spintype no-spin
subspace-rotation-factor 1 yes
symmetries automatic
symmetry-threshold 0.0001



---------- Setting up symmetries ----------

Found 48 point-group symmetries of the bravais lattice
Found 1 space-group symmetries with basis
Applied RMS atom displacement 0 bohrs to make symmetries exact.

---------- Initializing the Grid ----------
R = 
[      15.0363            0            0  ]
[            0      15.0363            0  ]
[            0            0      15.0363  ]
unit cell volume = 3399.56
G =
[   0.417868         -0         -0  ]
[         -0   0.417868          0  ]
[         -0          0   0.417868  ]
Minimum fftbox size, Smin = [  68  68  68  ]
Chosen fftbox size, S = [  70  70  70  ]

---------- Initializing tighter grid for wavefunction operations ----------
R = 
[      15.0363            0            0  ]
[            0      15.0363            0  ]
[            0            0      15.0363  ]
unit cell volume = 3399.56
G =
[   0.417868         -0         -0  ]
[         -0   0.417868          0  ]
[         -0          0   0.417868  ]
Minimum fftbox size, Smin = [  64  64  64  ]
Chosen fftbox size, S = [  64  64  64  ]

---------- Exchange Correlation functional ----------
Initalized PBEsol GGA exchange.
Initalized PBEsol GGA correlation.

---------- Setting up pseudopotentials ----------
Width of ionic core gaussian charges (only for fluid interactions / plotting) set to 0

Reading pseudopotential file '/home/rc652/build/pseudopotentials/GBRV/co_pbesol.uspp':
  Title: Co.  Created by USPP 7.3.6 on 3-2-2014
  Reference state energy: -148.473209.  17 valence electrons in orbitals:
    |300>  occupation: 2  eigenvalue: -4.077719
    |310>  occupation: 6  eigenvalue: -2.732332
    |320>  occupation: 7  eigenvalue: -0.624325
    |400>  occupation: 1  eigenvalue: -0.468864
    |410>  occupation: 0  eigenvalue: -0.272586
  lMax: 2  lLocal: 3  QijEcut: 6
  6 projectors sampled on a log grid with 609 points:
    l: 0  eig: -4.077719  rCut: 1.5
    l: 0  eig: -0.468864  rCut: 1.5
    l: 1  eig: -2.732332  rCut: 1.5
    l: 1  eig: -0.272586  rCut: 1.5
    l: 2  eig: -0.624325  rCut: 1.55
    l: 2  eig: -1.000000  rCut: 1.55
  Partial core density with radius 0.65
  Transforming core density to a uniform radial grid of dG=0.02 with 1272 points.
  Transforming local potential to a uniform radial grid of dG=0.02 with 1272 points.
  Transforming nonlocal projectors to a uniform radial grid of dG=0.02 with 432 points.
  Transforming density augmentations to a uniform radial grid of dG=0.02 with 1272 points.
  Transforming atomic orbitals to a uniform radial grid of dG=0.02 with 432 points.
  Core radius for overlap checks: 1.55 bohrs.

Reading pseudopotential file '/home/rc652/build/pseudopotentials/GBRV/o_pbesol.uspp':
  Title: O.  Created by USPP 7.3.6 on 3-2-2014
  Reference state energy: -15.849885.  6 valence electrons in orbitals:
    |200>  occupation: 2  eigenvalue: -0.873214
    |210>  occupation: 4  eigenvalue: -0.330058
  lMax: 2  lLocal: 2  QijEcut: 6
  5 projectors sampled on a log grid with 511 points:
    l: 0  eig: -0.873214  rCut: 1.25
    l: 0  eig: 0.000000  rCut: 1.25
    l: 1  eig: -0.330058  rCut: 1.25
    l: 1  eig: 0.000000  rCut: 1.25
    l: 2  eig: 1.000000  rCut: 1.25
  Partial core density with radius 0.7
  Transforming core density to a uniform radial grid of dG=0.02 with 1272 points.
  Transforming local potential to a uniform radial grid of dG=0.02 with 1272 points.
  Transforming nonlocal projectors to a uniform radial grid of dG=0.02 with 432 points.
  Transforming density augmentations to a uniform radial grid of dG=0.02 with 1272 points.
  Transforming atomic orbitals to a uniform radial grid of dG=0.02 with 432 points.
  Core radius for overlap checks: 1.25 bohrs.

Initialized 2 species with 56 total atoms.

Folded 1 k-points by 4x4x4 to 64 k-points.

---------- Setting up k-points, bands, fillings ----------
Adding inversion symmetry to k-mesh for non-inversion-symmetric unit cell.
Reduced to 36 k-points under symmetry. 
Computing the number of bands and number of electrons
Calculating initial fillings.
nElectrons: 600.000000   nBands: 440   nStates: 36

----- Setting up reduced wavefunction bases (one per k-point) -----
average nbasis = 14528.391 , ideal nbasis = 14523.188

---------- Setting up ewald sum ----------
Optimum gaussian width for ewald sums = 3.066807 bohr.
Real space sum over 343 unit cells with max indices [  3  3  3  ]
Reciprocal space sum over 6859 terms with max indices [  9  9  9  ]

---------- Allocating electronic variables ----------
Initializing wave functions:  linear combination of atomic orbitals
Co pseudo-atom occupations:   s ( 2 0 )  p ( 6 0 )  d ( 9 )
O pseudo-atom occupations:   s ( 2 )  p ( 4 )
	FillingsUpdate:  mu: +0.628185398  nElectrons: 600.000000
LCAOMinimize: Iter:   0  F: -3812.9401281703990207  |grad|_K:  1.383e-02  alpha:  1.000e+00
	FillingsUpdate:  mu: +1.461342002  nElectrons: 600.000000
LCAOMinimize: Iter:   1  F: -3926.4771567771326772  |grad|_K:  7.574e-03  alpha:  4.895e-01  linmin:  1.172e-01  cgtest: -1.492e+00  t[s]:    186.65
	FillingsUpdate:  mu: +1.493817552  nElectrons: 600.000000
LCAOMinimize: Iter:   2  F: -3932.0220644086616630  |grad|_K:  6.661e-03  alpha:  1.290e-01  linmin:  3.155e-03  cgtest:  7.707e-01  t[s]:    252.48
LCAOMinimize: 	Predicted alpha/alphaT>3.000000, increasing alphaT to 3.871327e-01.
	FillingsUpdate:  mu: +1.107533252  nElectrons: 600.000000
LCAOMinimize: Iter:   3  F: -3971.5498105132842284  |grad|_K:  2.461e-02  alpha:  4.397e-01  linmin:  3.365e-02  cgtest: -1.567e-01  t[s]:    336.09
LCAOMinimize: 	Bad step direction: g.d > 0.
LCAOMinimize: 	Undoing step.
LCAOMinimize: 	Step failed: resetting search direction.
	FillingsUpdate:  mu: +1.107533252  nElectrons: 600.000000
LCAOMinimize: Iter:   4  F: -3971.5498105132842284  |grad|_K:  2.461e-02  alpha:  0.000e+00
LCAOMinimize: 	Step increased F by 1.221030e+02, reducing alpha to 1.875001e-02.
	FillingsUpdate:  mu: +0.779313808  nElectrons: 600.000000
LCAOMinimize: Iter:   5  F: -4033.5825136376129194  |grad|_K:  1.997e-02  alpha:  1.875e-02  linmin: -4.624e-02  cgtest: -3.111e-01  t[s]:    506.89
	FillingsUpdate:  mu: +0.794108899  nElectrons: 600.000000
LCAOMinimize: Iter:   6  F: -4042.7281505972632658  |grad|_K:  1.824e-02  alpha:  5.298e-03  linmin:  4.136e-02  cgtest:  6.081e-01  t[s]:    576.35
	FillingsUpdate:  mu: +0.716618301  nElectrons: 600.000000
LCAOMinimize: Iter:   7  F: -4052.6425531367885924  |grad|_K:  1.315e-02  alpha:  1.115e-02  linmin:  8.690e-02  cgtest:  2.091e-01  t[s]:    646.58
	FillingsUpdate:  mu: +0.730075386  nElectrons: 600.000000
LCAOMinimize: Iter:   8  F: -4058.5651406431138639  |grad|_K:  1.076e-02  alpha:  1.470e-02  linmin:  1.164e-01  cgtest:  1.603e-01  t[s]:    720.34
	FillingsUpdate:  mu: +0.648309959  nElectrons: 600.000000
LCAOMinimize: Iter:   9  F: -4062.3424099097187536  |grad|_K:  8.380e-03  alpha:  1.446e-02  linmin: -3.547e-03  cgtest:  5.459e-01  t[s]:    788.60
	FillingsUpdate:  mu: +0.610197937  nElectrons: 600.000000
LCAOMinimize: Iter:  10  F: -4065.4633635162563223  |grad|_K:  3.993e-03  alpha:  1.288e-02  linmin: -3.326e-02  cgtest:  1.373e-02  t[s]:    856.01
LCAOMinimize: 	Predicted alpha/alphaT>3.000000, increasing alphaT to 3.863651e-02.
	FillingsUpdate:  mu: +0.625746670  nElectrons: 600.000000
LCAOMinimize: Iter:  11  F: -4068.0664574062661814  |grad|_K:  5.606e-03  alpha:  4.358e-02  linmin: -8.532e-03  cgtest: -1.308e-01  t[s]:    942.79
LCAOMinimize: 	Step increased F by 2.214716e+00, reducing alpha to 9.231435e-03.
	FillingsUpdate:  mu: +0.599741558  nElectrons: 600.000000
LCAOMinimize: Iter:  12  F: -4070.1937032248597461  |grad|_K:  4.863e-03  alpha:  9.231e-03  linmin: -8.322e-02  cgtest:  9.743e-01  t[s]:   1063.10
LCAOMinimize: Encountered beta<0, resetting CG.
	FillingsUpdate:  mu: +0.562199367  nElectrons: 600.000000
LCAOMinimize: Iter:  13  F: -4071.7196470958233476  |grad|_K:  3.116e-03  alpha:  1.789e-02  linmin: -3.293e-02  cgtest:  9.780e-02  t[s]:   1133.33
	FillingsUpdate:  mu: +0.568178710  nElectrons: 600.000000
LCAOMinimize: Iter:  14  F: -4073.5698797903246486  |grad|_K:  4.047e-03  alpha:  4.753e-02  linmin: -2.057e-02  cgtest: -1.324e-01  t[s]:   1201.80
	FillingsUpdate:  mu: +0.718556853  nElectrons: 600.000000
LCAOMinimize: Iter:  15  F: -4077.1003690908046337  |grad|_K:  2.369e-03  alpha:  6.904e-02  linmin:  1.357e-01  cgtest: -2.297e-01  t[s]:   1271.13
LCAOMinimize: 	Bad step direction: g.d > 0.
LCAOMinimize: 	Undoing step.
LCAOMinimize: 	Step failed: resetting search direction.
	FillingsUpdate:  mu: +0.718556853  nElectrons: 600.000000
LCAOMinimize: Iter:  16  F: -4077.1003690908046337  |grad|_K:  2.369e-03  alpha:  0.000e+00
	FillingsUpdate:  mu: +0.661126023  nElectrons: 600.000000
LCAOMinimize: Iter:  17  F: -4077.6994620092959849  |grad|_K:  1.644e-03  alpha:  3.193e-02  linmin:  1.523e-02  cgtest: -8.749e-02  t[s]:   1391.78
	FillingsUpdate:  mu: +0.626580739  nElectrons: 600.000000
LCAOMinimize: Iter:  18  F: -4078.1051022393453422  |grad|_K:  1.115e-03  alpha:  4.615e-02  linmin:  3.339e-02  cgtest:  1.283e-01  t[s]:   1462.86
	FillingsUpdate:  mu: +0.600229403  nElectrons: 600.000000
LCAOMinimize: Iter:  19  F: -4078.3071274319554504  |grad|_K:  1.024e-03  alpha:  5.081e-02  linmin:  7.598e-03  cgtest:  9.809e-02  t[s]:   1533.21
	FillingsUpdate:  mu: +0.568482254  nElectrons: 600.000000
LCAOMinimize: Iter:  20  F: -4078.4073514319557034  |grad|_K:  4.346e-04  alpha:  2.801e-02  linmin: -1.313e-03  cgtest:  1.438e-04  t[s]:   1604.24
	FillingsUpdate:  mu: +0.562295754  nElectrons: 600.000000
LCAOMinimize: Iter:  21  F: -4078.4238457453193405  |grad|_K:  2.732e-04  alpha:  2.488e-02  linmin: -4.995e-04  cgtest: -2.540e-03  t[s]:   1675.60
LCAOMinimize: 	Predicted alpha/alphaT>3.000000, increasing alphaT to 7.462505e-02.
	FillingsUpdate:  mu: +0.559781079  nElectrons: 600.000000
LCAOMinimize: Iter:  22  F: -4078.4460711623255520  |grad|_K:  3.525e-04  alpha:  8.516e-02  linmin:  1.764e-03  cgtest:  7.556e-03  t[s]:   1763.93
	FillingsUpdate:  mu: +0.549995065  nElectrons: 600.000000
LCAOMinimize: Iter:  23  F: -4078.4706746131678301  |grad|_K:  4.115e-04  alpha:  5.709e-02  linmin:  1.051e-05  cgtest:  3.369e-02  t[s]:   1836.21
	FillingsUpdate:  mu: +0.539534160  nElectrons: 600.000000
LCAOMinimize: Iter:  24  F: -4078.4897252716336880  |grad|_K:  2.219e-04  alpha:  3.192e-02  linmin: -4.287e-04  cgtest:  1.994e-02  t[s]:   1908.93
	FillingsUpdate:  mu: +0.539093864  nElectrons: 600.000000
LCAOMinimize: Iter:  25  F: -4078.4958451743359547  |grad|_K:  1.150e-04  alpha:  3.542e-02  linmin:  4.088e-04  cgtest: -2.476e-03  t[s]:   1981.13
	FillingsUpdate:  mu: +0.539411770  nElectrons: 600.000000
LCAOMinimize: Iter:  26  F: -4078.4976703429251756  |grad|_K:  1.092e-04  alpha:  3.948e-02  linmin: -5.868e-04  cgtest:  3.642e-03  t[s]:   2053.48
	FillingsUpdate:  mu: +0.539606906  nElectrons: 600.000000
LCAOMinimize: Iter:  27  F: -4078.4994240529713352  |grad|_K:  8.097e-05  alpha:  4.192e-02  linmin: -3.616e-04  cgtest: -6.124e-03  t[s]:   2126.58
	FillingsUpdate:  mu: +0.541050251  nElectrons: 600.000000
LCAOMinimize: Iter:  28  F: -4078.5003375224819138  |grad|_K:  4.353e-05  alpha:  3.975e-02  linmin: -4.276e-04  cgtest:  1.778e-03  t[s]:   2198.88
	FillingsUpdate:  mu: +0.541404269  nElectrons: 600.000000
LCAOMinimize: Iter:  29  F: -4078.5004980752291885  |grad|_K:  1.776e-05  alpha:  2.419e-02  linmin:  7.536e-05  cgtest: -2.966e-03  t[s]:   2272.55
	FillingsUpdate:  mu: +0.541330599  nElectrons: 600.000000
LCAOMinimize: Iter:  30  F: -4078.5005354368531698  |grad|_K:  1.376e-05  alpha:  3.384e-02  linmin: -7.772e-05  cgtest:  7.330e-04  t[s]:   2345.16
LCAOMinimize: None of the convergence criteria satisfied after 30 iterations.


---- Citations for features of the code used in this run ----

   Software package:
      R. Sundararaman, K. Letchworth-Weaver, K.A. Schwarz, D. Gunceler, Y. Ozhabes and T.A. Arias, 'JDFTx: software for joint density-functional theory', SoftwareX 6, 278 (2017)

   gga-PBEsol exchange-correlation functional:
      J.P. Perdew et al., Phys. Rev. Lett. 100, 136406 (2008)

   Pseudopotentials:
      KF Garrity, JW Bennett, KM Rabe and D Vanderbilt, Comput. Mater. Sci. 81, 446 (2014)

This list may not be complete. Please suggest additional citations or
report any other bugs at https://github.com/shankar1729/jdftx/issues

Initialization completed successfully at t[s]:   2374.20


-------- Electronic minimization -----------
Will mix electronic density at each iteration.
	FillingsUpdate:  mu: +0.541330601  nElectrons: 600.000000
	FillingsUpdate:  mu: +0.537497689  nElectrons: 600.000000
SCF: Cycle:  0   F: -4078.674542582043159   dF: -1.740e-01   |Residual|: 1.256e+00   |deigs|: 4.016e-02  t[s]:   2669.36
	FillingsUpdate:  mu: +0.462174633  nElectrons: 600.000000
SCF: Cycle:  1   F: -4075.417290517510992   dF: +3.257e+00   |Residual|: 1.603e+00   |deigs|: 6.538e-02  t[s]:   2920.85
	FillingsUpdate:  mu: +0.501987829  nElectrons: 600.000000
SCF: Cycle:  2   F: -4038.194589757405538   dF: +3.722e+01   |Residual|: 3.923e+00   |deigs|: 3.493e-02  t[s]:   3167.48
	FillingsUpdate:  mu: +0.499901522  nElectrons: 600.000000
SCF: Cycle:  3   F: -4075.037895016623224   dF: -3.684e+01   |Residual|: 1.351e+00   |deigs|: 1.775e-02  t[s]:   3422.24
	FillingsUpdate:  mu: +0.494251083  nElectrons: 600.000000
SCF: Cycle:  4   F: -4071.508542669967937   dF: +3.529e+00   |Residual|: 1.833e+00   |deigs|: 5.787e-03  t[s]:   3672.29
	FillingsUpdate:  mu: +0.490483330  nElectrons: 600.000000
SCF: Cycle:  5   F: -4078.969746015565306   dF: -7.461e+00   |Residual|: 5.920e-01   |deigs|: 6.760e-03  t[s]:   3919.02
	FillingsUpdate:  mu: +0.489596655  nElectrons: 600.000000
SCF: Cycle:  6   F: -4079.192079733912124   dF: -2.223e-01   |Residual|: 5.090e-01   |deigs|: 1.490e-03  t[s]:   4166.91
	FillingsUpdate:  mu: +0.490031119  nElectrons: 600.000000
SCF: Cycle:  7   F: -4079.458337566063619   dF: -2.663e-01   |Residual|: 3.987e-01   |deigs|: 1.864e-03  t[s]:   4426.45
	FillingsUpdate:  mu: +0.490633675  nElectrons: 600.000000
SCF: Cycle:  8   F: -4079.789761175904914   dF: -3.314e-01   |Residual|: 1.539e-01   |deigs|: 1.360e-03  t[s]:   4673.76
	FillingsUpdate:  mu: +0.490453600  nElectrons: 600.000000
SCF: Cycle:  9   F: -4079.700602963274832   dF: +8.916e-02   |Residual|: 2.345e-01   |deigs|: 6.953e-04  t[s]:   4911.66
	FillingsUpdate:  mu: +0.490742867  nElectrons: 600.000000
SCF: Cycle: 10   F: -4079.766892817899134   dF: -6.629e-02   |Residual|: 1.797e-01   |deigs|: 7.439e-04  t[s]:   5160.73
	FillingsUpdate:  mu: +0.490949460  nElectrons: 600.000000
SCF: Cycle: 11   F: -4079.825995237937605   dF: -5.910e-02   |Residual|: 8.533e-02   |deigs|: 5.959e-04  t[s]:   5406.56
	FillingsUpdate:  mu: +0.490784026  nElectrons: 600.000000
SCF: Cycle: 12   F: -4079.685940791756366   dF: +1.401e-01   |Residual|: 2.415e-01   |deigs|: 8.246e-04  t[s]:   5651.88
	FillingsUpdate:  mu: +0.490913467  nElectrons: 600.000000
SCF: Cycle: 13   F: -4079.815747537712923   dF: -1.298e-01   |Residual|: 1.059e-01   |deigs|: 7.593e-04  t[s]:   5860.58
	FillingsUpdate:  mu: +0.490973052  nElectrons: 600.000000
SCF: Cycle: 14   F: -4079.834215365827731   dF: -1.847e-02   |Residual|: 5.856e-02   |deigs|: 5.381e-04  t[s]:   6012.23
	FillingsUpdate:  mu: +0.491285228  nElectrons: 600.000000
SCF: Cycle: 15   F: -4079.772223518433748   dF: +6.199e-02   |Residual|: 1.646e-01   |deigs|: 7.339e-04  t[s]:   6181.22
	FillingsUpdate:  mu: +0.491837572  nElectrons: 600.000000
SCF: Cycle: 16   F: -4079.756733154998983   dF: +1.549e-02   |Residual|: 1.841e-01   |deigs|: 1.065e-03  t[s]:   6381.71
	FillingsUpdate:  mu: +0.491290044  nElectrons: 600.000000
SCF: Cycle: 17   F: -4079.839079042515550   dF: -8.235e-02   |Residual|: 4.099e-02   |deigs|: 8.231e-04  t[s]:   6538.27
	FillingsUpdate:  mu: +0.491337878  nElectrons: 600.000000
SCF: Cycle: 18   F: -4079.842715393975141   dF: -3.636e-03   |Residual|: 1.600e-02   |deigs|: 2.080e-04  t[s]:   6692.03
	FillingsUpdate:  mu: +0.491211748  nElectrons: 600.000000
SCF: Cycle: 19   F: -4079.828980126685110   dF: +1.374e-02   |Residual|: 7.261e-02   |deigs|: 3.287e-04  t[s]:   6842.66
	FillingsUpdate:  mu: +0.491228909  nElectrons: 600.000000
SCF: Cycle: 20   F: -4079.841666541731684   dF: -1.269e-02   |Residual|: 2.482e-02   |deigs|: 2.582e-04  t[s]:   6999.77
	FillingsUpdate:  mu: +0.491232494  nElectrons: 600.000000
SCF: Cycle: 21   F: -4079.843091762835229   dF: -1.425e-03   |Residual|: 9.576e-03   |deigs|: 1.410e-04  t[s]:   7156.25
	FillingsUpdate:  mu: +0.491236906  nElectrons: 600.000000
SCF: Cycle: 22   F: -4079.843198952783951   dF: -1.072e-04   |Residual|: 7.503e-03   |deigs|: 7.099e-05  t[s]:   7307.99
	FillingsUpdate:  mu: +0.491266233  nElectrons: 600.000000
SCF: Cycle: 23   F: -4079.843096717335811   dF: +1.022e-04   |Residual|: 9.620e-03   |deigs|: 6.328e-05  t[s]:   7458.06
	FillingsUpdate:  mu: +0.491285387  nElectrons: 600.000000
SCF: Cycle: 24   F: -4079.843258389765197   dF: -1.617e-04   |Residual|: 5.679e-03   |deigs|: 5.783e-05  t[s]:   7609.09
	FillingsUpdate:  mu: +0.491295940  nElectrons: 600.000000
SCF: Cycle: 25   F: -4079.843231597403246   dF: +2.679e-05   |Residual|: 6.441e-03   |deigs|: 4.925e-05  t[s]:   7764.13
	FillingsUpdate:  mu: +0.491280379  nElectrons: 600.000000
SCF: Cycle: 26   F: -4079.843195388600179   dF: +3.621e-05   |Residual|: 7.609e-03   |deigs|: 6.398e-05  t[s]:   7913.99
	FillingsUpdate:  mu: +0.491290791  nElectrons: 600.000000
SCF: Cycle: 27   F: -4079.843311548240763   dF: -1.162e-04   |Residual|: 3.411e-03   |deigs|: 4.743e-05  t[s]:   8069.47
	FillingsUpdate:  mu: +0.491277881  nElectrons: 600.000000
SCF: Cycle: 28   F: -4079.843281329197453   dF: +3.022e-05   |Residual|: 4.771e-03   |deigs|: 2.925e-05  t[s]:   8233.76
	FillingsUpdate:  mu: +0.491281979  nElectrons: 600.000000
SCF: Cycle: 29   F: -4079.843319412370420   dF: -3.808e-05   |Residual|: 2.971e-03   |deigs|: 2.834e-05  t[s]:   8389.09
	FillingsUpdate:  mu: +0.491278093  nElectrons: 600.000000
SCF: Cycle: 30   F: -4079.843321043881133   dF: -1.632e-06   |Residual|: 2.894e-03   |deigs|: 2.232e-05  t[s]:   8545.55
	FillingsUpdate:  mu: +0.491281273  nElectrons: 600.000000
SCF: Cycle: 31   F: -4079.843334285687888   dF: -1.324e-05   |Residual|: 1.821e-03   |deigs|: 2.016e-05  t[s]:   8697.24
	FillingsUpdate:  mu: +0.491291962  nElectrons: 600.000000
SCF: Cycle: 32   F: -4079.843330796144983   dF: +3.490e-06   |Residual|: 2.093e-03   |deigs|: 1.572e-05  t[s]:   8849.10
	FillingsUpdate:  mu: +0.491296584  nElectrons: 600.000000
SCF: Cycle: 33   F: -4079.843339708013445   dF: -8.912e-06   |Residual|: 1.080e-03   |deigs|: 1.254e-05  t[s]:   9006.25
	FillingsUpdate:  mu: +0.491293121  nElectrons: 600.000000
SCF: Cycle: 34   F: -4079.843337627041365   dF: +2.081e-06   |Residual|: 1.381e-03   |deigs|: 9.783e-06  t[s]:   9151.69
	FillingsUpdate:  mu: +0.491290370  nElectrons: 600.000000
SCF: Cycle: 35   F: -4079.843340567163978   dF: -2.940e-06   |Residual|: 9.271e-04   |deigs|: 9.187e-06  t[s]:   9304.18
	FillingsUpdate:  mu: +0.491288510  nElectrons: 600.000000
SCF: Cycle: 36   F: -4079.843338116093491   dF: +2.451e-06   |Residual|: 1.307e-03   |deigs|: 9.311e-06  t[s]:   9457.42
	FillingsUpdate:  mu: +0.491289597  nElectrons: 600.000000
SCF: Cycle: 37   F: -4079.843341106636672   dF: -2.991e-06   |Residual|: 8.100e-04   |deigs|: 8.621e-06  t[s]:   9609.92
	FillingsUpdate:  mu: +0.491290212  nElectrons: 600.000000
SCF: Cycle: 38   F: -4079.843339160654978   dF: +1.946e-06   |Residual|: 1.136e-03   |deigs|: 7.136e-06  t[s]:   9758.53
	FillingsUpdate:  mu: +0.491292765  nElectrons: 600.000000
SCF: Cycle: 39   F: -4079.843340957877444   dF: -1.797e-06   |Residual|: 8.193e-04   |deigs|: 6.806e-06  t[s]:   9906.27
	FillingsUpdate:  mu: +0.491292883  nElectrons: 600.000000
SCF: Cycle: 40   F: -4079.843341711984976   dF: -7.541e-07   |Residual|: 6.225e-04   |deigs|: 5.496e-06  t[s]:  10061.95
	FillingsUpdate:  mu: +0.491294442  nElectrons: 600.000000
SCF: Cycle: 41   F: -4079.843342244636460   dF: -5.327e-07   |Residual|: 4.439e-04   |deigs|: 3.905e-06  t[s]:  10210.86
	FillingsUpdate:  mu: +0.491294511  nElectrons: 600.000000
SCF: Cycle: 42   F: -4079.843342138812204   dF: +1.058e-07   |Residual|: 4.930e-04   |deigs|: 3.619e-06  t[s]:  10362.57
	FillingsUpdate:  mu: +0.491292585  nElectrons: 600.000000
SCF: Cycle: 43   F: -4079.843341942613279   dF: +1.962e-07   |Residual|: 5.525e-04   |deigs|: 3.821e-06  t[s]:  10514.68
	FillingsUpdate:  mu: +0.491292769  nElectrons: 600.000000
SCF: Cycle: 44   F: -4079.843342600050619   dF: -6.574e-07   |Residual|: 2.672e-04   |deigs|: 2.945e-06  t[s]:  10665.09
	FillingsUpdate:  mu: +0.491293340  nElectrons: 600.000000
SCF: Cycle: 45   F: -4079.843342671209939   dF: -7.116e-08   |Residual|: 2.044e-04   |deigs|: 2.018e-06  t[s]:  10805.61
	FillingsUpdate:  mu: +0.491293555  nElectrons: 600.000000
SCF: Cycle: 46   F: -4079.843342639218918   dF: +3.199e-08   |Residual|: 2.376e-04   |deigs|: 1.881e-06  t[s]:  10960.23
	FillingsUpdate:  mu: +0.491294355  nElectrons: 600.000000
SCF: Cycle: 47   F: -4079.843342561044210   dF: +7.817e-08   |Residual|: 2.812e-04   |deigs|: 1.945e-06  t[s]:  11113.80
	FillingsUpdate:  mu: +0.491294686  nElectrons: 600.000000
SCF: Cycle: 48   F: -4079.843342644374843   dF: -8.333e-08   |Residual|: 2.289e-04   |deigs|: 1.931e-06  t[s]:  11265.91
	FillingsUpdate:  mu: +0.491294611  nElectrons: 600.000000
SCF: Cycle: 49   F: -4079.843342598772779   dF: +4.560e-08   |Residual|: 2.536e-04   |deigs|: 1.707e-06  t[s]:  11423.21
Setting wave functions to eigenvectors of Hamiltonian

# Ionic positions in lattice coordinates:
ion Co   0.372820000000000   0.378850000000000   0.135190000000000 1
ion Co   0.373650000000000   0.140380000000000   0.365280000000000 1
ion Co   0.609410000000000   0.872150000000000   0.378970000000000 1
ion Co   0.154740000000000   0.128690000000000   0.118370000000000 1
ion Co   0.265310000000000   0.754510000000000   0.240310000000000 1
ion Co   0.011330000000000   0.515810000000000   0.004010000000000 1
ion Co   0.367700000000000   0.875590000000000   0.631800000000000 1
ion Co   0.371060000000000   0.625160000000000   0.888020000000000 1
ion Co   0.635230000000000   0.372240000000000   0.868860000000000 1
ion Co   0.123710000000000   0.606810000000000   0.631400000000000 1
ion Co   0.248700000000000   0.251660000000000   0.763580000000000 1
ion Co  -0.000590000000000   0.007590000000000   0.510520000000000 1
ion Co   0.866050000000000   0.385500000000000   0.622120000000000 1
ion Co   0.877180000000000   0.097850000000000   0.888410000000000 1
ion Co   0.119990000000000   0.863010000000000   0.891240000000000 1
ion Co   0.639890000000000   0.133990000000000   0.610750000000000 1
ion Co   0.744720000000000   0.750770000000000   0.767090000000000 1
ion Co   0.509490000000000   0.505750000000000   0.491740000000000 1
ion Co   0.899570000000000   0.873110000000000   0.139140000000000 1
ion Co   0.873670000000000   0.653240000000000   0.370550000000000 1
ion Co   0.127380000000000   0.379020000000000   0.370330000000000 1
ion Co   0.633060000000000   0.638610000000000   0.128400000000000 1
ion Co   0.770950000000000   0.254380000000000   0.265710000000000 1
ion Co   0.509520000000000  -0.003300000000000  -0.001900000000000 1
ion O   0.859820000000000   0.365940000000000   0.866490000000000 1
ion O   0.887040000000000   0.103300000000000   0.126940000000000 1
ion O   0.112970000000000   0.115030000000000   0.890470000000000 1
ion O   0.109210000000000   0.881690000000000   0.135180000000000 1
ion O   0.145940000000000   0.138020000000000   0.371820000000000 1
ion O   0.124010000000000   0.352330000000000   0.151430000000000 1
ion O   0.393790000000000   0.895690000000000   0.383110000000000 1
ion O   0.367210000000000   0.140320000000000   0.127500000000000 1
ion O   0.856950000000000   0.882950000000000   0.346350000000000 1
ion O   0.892900000000000   0.607660000000000   0.589710000000000 1
ion O   0.115340000000000   0.606880000000000   0.399650000000000 1
ion O   0.109150000000000   0.373780000000000   0.617410000000000 1
ion O   0.132320000000000   0.631110000000000   0.865250000000000 1
ion O   0.140590000000000   0.861190000000000   0.609020000000000 1
ion O   0.401530000000000   0.389900000000000   0.891940000000000 1
ion O   0.369820000000000   0.628890000000000   0.644930000000000 1
ion O   0.349520000000000   0.370090000000000   0.367010000000000 1
ion O   0.396840000000000   0.127460000000000   0.613920000000000 1
ion O   0.622270000000000   0.130590000000000   0.381230000000000 1
ion O   0.619860000000000   0.883120000000000   0.602440000000000 1
ion O   0.641100000000000   0.131090000000000   0.877740000000000 1
ion O   0.646490000000000   0.373510000000000   0.632650000000000 1
ion O   0.883710000000000   0.890460000000000   0.884330000000000 1
ion O   0.859770000000000   0.135650000000000   0.633130000000000 1
ion O   0.354700000000000   0.861900000000000   0.868450000000000 1
ion O   0.389770000000000   0.598750000000000   0.121640000000000 1
ion O   0.615780000000000   0.608850000000000   0.887250000000000 1
ion O   0.610960000000000   0.389890000000000   0.122370000000000 1
ion O   0.623110000000000   0.649950000000000   0.358430000000000 1
ion O   0.648920000000000   0.843850000000000   0.114700000000000 1
ion O   0.873180000000000   0.395360000000000   0.387420000000000 1
ion O   0.877160000000000   0.637900000000000   0.126380000000000 1

# Forces in Lattice coordinates:
force Co   0.281547528127750  -0.391293640658931  -0.359403656048261 1
force Co   0.547813904584014  -0.448507171644644   0.562530259341744 1
force Co   0.965326191698233   0.591308282277033  -0.631205992604932 1
force Co  -1.481854475464078  -0.492108365904594   0.307433419546761 1
force Co  -0.078935867270300  -0.125167324093321   0.318381923152156 1
force Co  -0.173088874160243  -0.831498446452780   0.052666348088165 1
force Co   0.440364539935194   0.145137609564661  -0.317744710675545 1
force Co   0.321497531464048  -0.134013175125181  -0.404157743364948 1
force Co  -0.438608498916956   0.090449653800897   0.585912053232462 1
force Co   0.268318115461416   0.566465851897743  -0.235764430876597 1
force Co   0.145004067502265  -0.005819483022428  -0.203357458092684 1
force Co   0.142130196159654  -0.060294227817812  -0.277013527403640 1
force Co   0.754253510282245  -0.501966588602965   0.154901120741839 1
force Co  -0.253578957605407   1.956088358638421  -0.318048928807447 1
force Co   0.075572318923992   0.340680107893025  -0.340134001832908 1
force Co  -0.772644423350743  -0.263470806513753   0.491212895530841 1
force Co   0.023041621928535   0.087330030061442  -0.399272069166469 1
force Co  -0.260527724332588  -0.085738564695763   0.206370568875963 1
force Co  -1.341223192621650   0.057807805512595  -0.906227394159668 1
force Co   0.126050454299256  -0.718820968387766  -0.122914494724167 1
force Co  -0.706874504906193  -0.196529566733566   0.895023041363700 1
force Co  -0.202894196977064  -1.884229360695259  -0.387539455587800 1
force Co  -0.348531847314576  -0.306254542479922  -0.746675490172030 1
force Co  -0.202737221314599  -0.169986090502093   0.110701358091783 1
force O   0.511777106550934  -0.063774014441608  -0.001385606759052 1
force O   0.120454322118007   0.280063867479603  -0.060341510325859 1
force O   0.186564926056606  -0.134633921239085  -0.073822475098412 1
force O   1.267526997965132   0.124953941481006  -0.162875952994185 1
force O  -0.346961408602620  -0.069991864329358  -0.100776095349485 1
force O   0.099758474408694   0.591860242251621  -0.801301596936027 1
force O  -0.752297887530546  -0.001904574573112   0.054261985864609 1
force O   0.888691943155450  -0.063521012377149  -0.044112355659750 1
force O   0.011330458013569   0.047714069455609   1.291611046067470 1
force O  -0.363795088794303   0.592482885912983   0.896691152742077 1
force O   0.139235996538548   0.336317435195291  -0.549865922772915 1
force O   0.049822159597173  -0.015303736097604   0.012966461484197 1
force O   0.184239948345229   0.101215394532183  -0.154917818971282 1
force O  -0.173339674086293  -0.145228402563418   0.386185342302180 1
force O  -0.381446843072217  -0.245686211059515  -0.095446800738463 1
force O  -0.139341071012310   0.066506627055522  -0.048026318403126 1
force O   0.660089870646706   0.210900748497634   0.093879650069279 1
force O  -0.149208104180798  -0.106319111997339  -0.019338049377093 1
force O  -0.254280424042077  -0.215293524387081  -0.082260216225208 1
force O  -0.061132596451663   0.118748074609934   0.625030289476253 1
force O   0.146740806148390   0.098609285306976  -0.333020854577480 1
force O  -0.602193877165745  -0.035235221745533  -0.089803958042926 1
force O   0.112423973759101  -1.361778196890322  -0.029434642584004 1
force O   0.409407433672566   0.074003694001475   0.160175848403429 1
force O   0.116362863229893   0.036542958421231   0.145515141919258 1
force O  -0.106466456967012   0.771681156506477   0.105115097483149 1
force O   0.018461378388091   0.097450182796992   0.040795736841610 1
force O   0.285375173038026  -0.046339425993855   0.010850549361697 1
force O   0.259100207227820  -0.310504586623249   0.198316687197324 1
force O  -0.107857751963759   1.623032141886080   0.118568885279444 1
force O   0.440131755696893   0.390406555405467   0.158320876353845 1
force O  -0.241511470473594   0.097024947546696   0.337979430429824 1

# Energy components:
   Eewald =    -2535.0786336293695058
       EH =     1401.4041865486194638
     Eloc =    -3895.8030525789531566
      Enl =      694.0209446857363673
      Exc =     -502.9043955910835848
 Exc_core =       14.6635113332988478
       KE =      744.3001493488567348
-------------------------------------
     Etot =    -4079.3972898828956204
       TS =        0.4463976754834467
-------------------------------------
        F =    -4079.8436875583788606

IonicMinimize: Iter:   0  F: -4079.843687558378861  |grad|_K:  3.231e-02  t[s]:  11454.79

#--- Lowdin population analysis ---
# oxidation-state Co +0.217 +0.219 +0.225 +0.229 +0.216 +0.203 +0.243 +0.218 +0.220 +0.219 +0.238 +0.227 +0.214 +0.228 +0.227 +0.225 +0.233 +0.235 +0.204 +0.227 +0.217 +0.213 +0.225 +0.209
# oxidation-state O -0.186 -0.167 -0.142 -0.099 -0.154 -0.134 -0.131 -0.102 -0.109 -0.120 -0.146 -0.155 -0.108 -0.161 -0.158 -0.168 -0.101 -0.185 -0.146 -0.159 -0.154 -0.109 -0.103 -0.141 -0.146 -0.120 -0.139 -0.190 -0.108 -0.144 -0.138 -0.139


-------- Electronic minimization -----------
Will mix electronic density at each iteration.
	FillingsUpdate:  mu: +0.491294611  nElectrons: 600.000000
	FillingsUpdate:  mu: +0.492059316  nElectrons: 600.000000
SCF: Cycle:  0   F: -4061.151669012322600   dF: +1.643e+01   |Residual|: 2.353e+00   |deigs|: 5.072e-03  t[s]:  11802.52
	FillingsUpdate:  mu: +0.567041511  nElectrons: 600.000000
SCF: Cycle:  1   F: -3882.844864890732424   dF: +1.783e+02   |Residual|: 8.894e+00   |deigs|: 1.360e-01  t[s]:  12051.10
	FillingsUpdate:  mu: +0.523746295  nElectrons: 600.000000
SCF: Cycle:  2   F: -3990.429748767144247   dF: -1.076e+02   |Residual|: 6.075e+00   |deigs|: 9.279e-02  t[s]:  12301.04
	FillingsUpdate:  mu: +0.494529481  nElectrons: 600.000000
SCF: Cycle:  3   F: -4055.123397500468400   dF: -6.469e+01   |Residual|: 3.088e+00   |deigs|: 3.552e-02  t[s]:  12555.99
	FillingsUpdate:  mu: +0.493931974  nElectrons: 600.000000
SCF: Cycle:  4   F: -4061.911652249769759   dF: -6.788e+00   |Residual|: 2.603e+00   |deigs|: 1.216e-02  t[s]:  12811.06
	FillingsUpdate:  mu: +0.498185447  nElectrons: 600.000000
SCF: Cycle:  5   F: -4058.565467549051846   dF: +3.346e+00   |Residual|: 2.929e+00   |deigs|: 1.040e-02  t[s]:  13069.17
	FillingsUpdate:  mu: +0.499544145  nElectrons: 600.000000
SCF: Cycle:  6   F: -4065.039967353725388   dF: -6.474e+00   |Residual|: 2.425e+00   |deigs|: 8.067e-03  t[s]:  13324.03
	FillingsUpdate:  mu: +0.498292830  nElectrons: 600.000000
SCF: Cycle:  7   F: -4067.580767518969424   dF: -2.541e+00   |Residual|: 2.070e+00   |deigs|: 5.824e-03  t[s]:  13573.43
	FillingsUpdate:  mu: +0.487833898  nElectrons: 600.000000
SCF: Cycle:  8   F: -4074.734352492169364   dF: -7.154e+00   |Residual|: 1.443e+00   |deigs|: 9.228e-03  t[s]:  13827.31
	FillingsUpdate:  mu: +0.486315040  nElectrons: 600.000000
SCF: Cycle:  9   F: -4078.559833007355792   dF: -3.825e+00   |Residual|: 7.653e-01   |deigs|: 3.700e-03  t[s]:  14083.53
	FillingsUpdate:  mu: +0.488137456  nElectrons: 600.000000
SCF: Cycle: 10   F: -4077.905807757659659   dF: +6.540e-01   |Residual|: 8.966e-01   |deigs|: 3.164e-03  t[s]:  14338.39
	FillingsUpdate:  mu: +0.491132435  nElectrons: 600.000000
SCF: Cycle: 11   F: -4078.597385194744675   dF: -6.916e-01   |Residual|: 6.828e-01   |deigs|: 3.361e-03  t[s]:  14602.53
	FillingsUpdate:  mu: +0.492073744  nElectrons: 600.000000
SCF: Cycle: 12   F: -4079.343904415240104   dF: -7.465e-01   |Residual|: 4.983e-01   |deigs|: 2.538e-03  t[s]:  14858.41
	FillingsUpdate:  mu: +0.490633731  nElectrons: 600.000000
SCF: Cycle: 13   F: -4079.349155315369899   dF: -5.251e-03   |Residual|: 4.756e-01   |deigs|: 1.769e-03  t[s]:  15115.07
	FillingsUpdate:  mu: +0.489956590  nElectrons: 600.000000
SCF: Cycle: 14   F: -4079.685996010894542   dF: -3.368e-01   |Residual|: 3.242e-01   |deigs|: 1.076e-03  t[s]:  15366.78
	FillingsUpdate:  mu: +0.490470490  nElectrons: 600.000000
SCF: Cycle: 15   F: -4078.850152355725641   dF: +8.358e-01   |Residual|: 6.416e-01   |deigs|: 2.011e-03  t[s]:  15626.92
	FillingsUpdate:  mu: +0.491004747  nElectrons: 600.000000
SCF: Cycle: 16   F: -4079.655634475559054   dF: -8.055e-01   |Residual|: 3.457e-01   |deigs|: 1.726e-03  t[s]:  15881.54
	FillingsUpdate:  mu: +0.490314767  nElectrons: 600.000000
SCF: Cycle: 17   F: -4079.749521378450481   dF: -9.389e-02   |Residual|: 2.828e-01   |deigs|: 1.563e-03  t[s]:  16132.63
	FillingsUpdate:  mu: +0.490884870  nElectrons: 600.000000
SCF: Cycle: 18   F: -4079.655198742090306   dF: +9.432e-02   |Residual|: 3.450e-01   |deigs|: 1.240e-03  t[s]:  16383.33
	FillingsUpdate:  mu: +0.490449058  nElectrons: 600.000000
SCF: Cycle: 19   F: -4079.732269172665383   dF: -7.707e-02   |Residual|: 2.953e-01   |deigs|: 1.504e-03  t[s]:  16635.54
	FillingsUpdate:  mu: +0.490310218  nElectrons: 600.000000
SCF: Cycle: 20   F: -4079.804238848581008   dF: -7.197e-02   |Residual|: 2.306e-01   |deigs|: 7.394e-04  t[s]:  16877.03
	FillingsUpdate:  mu: +0.490721035  nElectrons: 600.000000
SCF: Cycle: 21   F: -4079.770846051260378   dF: +3.339e-02   |Residual|: 2.555e-01   |deigs|: 7.420e-04  t[s]:  17127.20
	FillingsUpdate:  mu: +0.490449949  nElectrons: 600.000000
SCF: Cycle: 22   F: -4079.889328159042179   dF: -1.185e-01   |Residual|: 1.498e-01   |deigs|: 7.625e-04  t[s]:  17369.96
	FillingsUpdate:  mu: +0.490241818  nElectrons: 600.000000
SCF: Cycle: 23   F: -4079.095678131144723   dF: +7.937e-01   |Residual|: 5.639e-01   |deigs|: 1.343e-03  t[s]:  17636.11
	FillingsUpdate:  mu: +0.490671625  nElectrons: 600.000000
SCF: Cycle: 24   F: -4079.843878202805627   dF: -7.482e-01   |Residual|: 1.996e-01   |deigs|: 1.513e-03  t[s]:  17890.98
	FillingsUpdate:  mu: +0.490524252  nElectrons: 600.000000
SCF: Cycle: 25   F: -4079.929286304879952   dF: -8.541e-02   |Residual|: 9.289e-02   |deigs|: 4.386e-04  t[s]:  18130.17
	FillingsUpdate:  mu: +0.490374382  nElectrons: 600.000000
SCF: Cycle: 26   F: -4079.918337226505628   dF: +1.095e-02   |Residual|: 1.148e-01   |deigs|: 5.776e-04  t[s]:  18284.54
	FillingsUpdate:  mu: +0.490472314  nElectrons: 600.000000
SCF: Cycle: 27   F: -4079.947832381631997   dF: -2.950e-02   |Residual|: 4.208e-02   |deigs|: 4.282e-04  t[s]:  18439.59
	FillingsUpdate:  mu: +0.490535436  nElectrons: 600.000000
SCF: Cycle: 28   F: -4079.950703259107286   dF: -2.871e-03   |Residual|: 2.702e-02   |deigs|: 2.186e-04  t[s]:  18591.97
	FillingsUpdate:  mu: +0.490464973  nElectrons: 600.000000
SCF: Cycle: 29   F: -4079.950739785672795   dF: -3.653e-05   |Residual|: 2.723e-02   |deigs|: 1.868e-04  t[s]:  18745.50
	FillingsUpdate:  mu: +0.490460963  nElectrons: 600.000000
SCF: Cycle: 30   F: -4079.949771999539280   dF: +9.678e-04   |Residual|: 3.328e-02   |deigs|: 1.940e-04  t[s]:  18899.46
	FillingsUpdate:  mu: +0.490455123  nElectrons: 600.000000
SCF: Cycle: 31   F: -4079.949203408372341   dF: +5.686e-04   |Residual|: 3.604e-02   |deigs|: 2.249e-04  t[s]:  19053.60
	FillingsUpdate:  mu: +0.490464394  nElectrons: 600.000000
SCF: Cycle: 32   F: -4079.950619586435096   dF: -1.416e-03   |Residual|: 2.641e-02   |deigs|: 1.856e-04  t[s]:  19212.85
	FillingsUpdate:  mu: +0.490493258  nElectrons: 600.000000
SCF: Cycle: 33   F: -4079.949093074010307   dF: +1.527e-03   |Residual|: 3.507e-02   |deigs|: 1.820e-04  t[s]:  19362.54
	FillingsUpdate:  mu: +0.490451152  nElectrons: 600.000000
SCF: Cycle: 34   F: -4079.950276355693859   dF: -1.183e-03   |Residual|: 2.945e-02   |deigs|: 1.960e-04  t[s]:  19518.16
	FillingsUpdate:  mu: +0.490486271  nElectrons: 600.000000
SCF: Cycle: 35   F: -4079.950783087875607   dF: -5.067e-04   |Residual|: 2.556e-02   |deigs|: 1.536e-04  t[s]:  19670.02
	FillingsUpdate:  mu: +0.490465944  nElectrons: 600.000000
SCF: Cycle: 36   F: -4079.949903042717324   dF: +8.800e-04   |Residual|: 3.136e-02   |deigs|: 1.852e-04  t[s]:  19824.45
	FillingsUpdate:  mu: +0.490464004  nElectrons: 600.000000
SCF: Cycle: 37   F: -4079.952107052913107   dF: -2.204e-03   |Residual|: 1.349e-02   |deigs|: 1.501e-04  t[s]:  19984.33
	FillingsUpdate:  mu: +0.490492921  nElectrons: 600.000000
SCF: Cycle: 38   F: -4079.952044754189046   dF: +6.230e-05   |Residual|: 1.404e-02   |deigs|: 9.892e-05  t[s]:  20137.42
	FillingsUpdate:  mu: +0.490475867  nElectrons: 600.000000
SCF: Cycle: 39   F: -4079.952473709516198   dF: -4.290e-04   |Residual|: 6.430e-03   |deigs|: 7.265e-05  t[s]:  20289.60
	FillingsUpdate:  mu: +0.490459964  nElectrons: 600.000000
SCF: Cycle: 40   F: -4079.952468102216699   dF: +5.607e-06   |Residual|: 6.605e-03   |deigs|: 4.722e-05  t[s]:  20440.11
	FillingsUpdate:  mu: +0.490478269  nElectrons: 600.000000
SCF: Cycle: 41   F: -4079.952290037419061   dF: +1.781e-04   |Residual|: 1.037e-02   |deigs|: 6.430e-05  t[s]:  20598.06
	FillingsUpdate:  mu: +0.490470981  nElectrons: 600.000000
SCF: Cycle: 42   F: -4079.952340682088561   dF: -5.064e-05   |Residual|: 9.638e-03   |deigs|: 6.567e-05  t[s]:  20749.79
	FillingsUpdate:  mu: +0.490471526  nElectrons: 600.000000
SCF: Cycle: 43   F: -4079.952440102053515   dF: -9.942e-05   |Residual|: 7.199e-03   |deigs|: 5.459e-05  t[s]:  20906.48
	FillingsUpdate:  mu: +0.490469525  nElectrons: 600.000000
SCF: Cycle: 44   F: -4079.952528022597562   dF: -8.792e-05   |Residual|: 4.204e-03   |deigs|: 3.509e-05  t[s]:  21061.10
	FillingsUpdate:  mu: +0.490466160  nElectrons: 600.000000
SCF: Cycle: 45   F: -4079.952549601893679   dF: -2.158e-05   |Residual|: 3.271e-03   |deigs|: 2.618e-05  t[s]:  21214.43
	FillingsUpdate:  mu: +0.490476977  nElectrons: 600.000000
SCF: Cycle: 46   F: -4079.952522266321921   dF: +2.734e-05   |Residual|: 4.668e-03   |deigs|: 2.972e-05  t[s]:  21367.35
	FillingsUpdate:  mu: +0.490472361  nElectrons: 600.000000
SCF: Cycle: 47   F: -4079.952560894311318   dF: -3.863e-05   |Residual|: 2.619e-03   |deigs|: 2.682e-05  t[s]:  21518.46
	FillingsUpdate:  mu: +0.490474937  nElectrons: 600.000000
SCF: Cycle: 48   F: -4079.952566381178713   dF: -5.487e-06   |Residual|: 2.246e-03   |deigs|: 1.818e-05  t[s]:  21669.25
	FillingsUpdate:  mu: +0.490468828  nElectrons: 600.000000
SCF: Cycle: 49   F: -4079.952567886982706   dF: -1.506e-06   |Residual|: 2.019e-03   |deigs|: 1.631e-05  t[s]:  21824.61
Setting wave functions to eigenvectors of Hamiltonian

# Ionic positions in lattice coordinates:
ion Co   0.373754226711738   0.377543117112119   0.133991599818354 1
ion Co   0.375470958158143   0.138882582213346   0.367151862782695 1
ion Co   0.612621375075110   0.874115419217856   0.376866432285604 1
ion Co   0.149801671453173   0.127047379688845   0.119392328595408 1
ion Co   0.265043729800111   0.754089382125206   0.241368789760979 1
ion Co   0.010750177510505   0.513037128618375   0.004183892616456 1
ion Co   0.369163125780663   0.876069562944064   0.630740334184208 1
ion Co   0.372127269887200   0.624709923301360   0.886672557881076 1
ion Co   0.633765932927908   0.372537438821744   0.870809729812668 1
ion Co   0.124600169567217   0.608692687915032   0.630613348347882 1
ion Co   0.249179503956470   0.251636839307545   0.762901271406861 1
ion Co  -0.000120066730322   0.007385425229328   0.509595978877831 1
ion Co   0.868558451985160   0.383824549422446   0.622634359141124 1
ion Co   0.876332126061184   0.104360467027656   0.887349321064235 1
ion Co   0.120238279437390   0.864140766767408   0.890105772428435 1
ion Co   0.637313512492529   0.133108798071591   0.612384358708740 1
ion Co   0.744793339508634   0.751057049720020   0.765758828358056 1
ion Co   0.508618984986998   0.505460689432256   0.492425764854444 1
ion Co   0.895100007645313   0.873298733570517   0.136120544487684 1
ion Co   0.874086383839414   0.650842371878270   0.370139165934928 1
ion Co   0.125022542231426   0.378361728593892   0.373309144180539 1
ion Co   0.632380918575285   0.632331280006603   0.127107900799523 1
ion Co   0.769785909968290   0.253356317880961   0.263221890925347 1
ion Co   0.508841441342215  -0.003869875209095  -0.001532836760916 1
ion O   0.861520946902990   0.365723836698072   0.866483886531044 1
ion O   0.887437747365484   0.104228900023087   0.126737549110077 1
ion O   0.113587911669491   0.114577856066635   0.890222654236188 1
ion O   0.113427776865724   0.882102346446691   0.134636084611766 1
ion O   0.144781139909107   0.137783129753779   0.371482892160371 1
ion O   0.124338825186055   0.354297257378097   0.148759972775159 1
ion O   0.391281271378864   0.895679876899741   0.383289206476254 1
ion O   0.370166164488784   0.140104679256151   0.127351596121128 1
ion O   0.856984338499736   0.883105118987660   0.350649878175263 1
ion O   0.891685079681814   0.609629330932114   0.592694699394964 1
ion O   0.115800294884800   0.607996238011945   0.397817314395215 1
ion O   0.109312525177581   0.373725254450458   0.617451682390220 1
ion O   0.132930168931274   0.631443291342732   0.864732587123224 1
ion O   0.140009342286080   0.860702573880902   0.610304591549152 1
ion O   0.400256295069912   0.389078025076746   0.891620640000641 1
ion O   0.369352565858957   0.629107702750597   0.644768561678361 1
ion O   0.351714864285940   0.370788570105547   0.367321142882011 1
ion O   0.396339706251561   0.127102151231078   0.613854100554230 1
ion O   0.621419790008257   0.129869240075695   0.380954554517052 1
ion O   0.619653018998746   0.883511679408742   0.604520003002497 1
ion O   0.641585287716298   0.131414612368565   0.876629460929545 1
ion O   0.644481154045212   0.373388877781602   0.632349432031884 1
ion O   0.884081004362817   0.885921168768834   0.884230476456373 1
ion O   0.861130031127939   0.135892669797151   0.633661925260253 1
ion O   0.355084121817617   0.862017916485499   0.868933101561072 1
ion O   0.389412046276464   0.601316104523250   0.121988559639879 1
ion O   0.615838086189633   0.609170752276807   0.887384360609372 1
ion O   0.611906973695240   0.389731898095224   0.122404635890989 1
ion O   0.623969471702885   0.648912164205831   0.359088943480131 1
ion O   0.648557412927555   0.849251309255859   0.115093364007862 1
ion O   0.874642350552836   0.396656367867006   0.387945747754589 1
ion O   0.876352313712593   0.638219336140555   0.127504054201070 1

# Forces in Lattice coordinates:
force Co   0.184255160453209  -0.263423419881849  -0.283892894372249 1
force Co   0.365272692416713  -0.346142684655329   0.448929920772437 1
force Co   0.695738175796576   0.490389681774941  -0.490776593345451 1
force Co  -1.042682316641774  -0.349929375014030   0.350925005956814 1
force Co  -0.071021714948426  -0.135882845407473   0.341121736277731 1
force Co  -0.140536222011282  -0.666129400435107   0.019701710962166 1
force Co   0.360657137667916   0.110628818131284  -0.270245890154141 1
force Co   0.253966966721151  -0.094574882918134  -0.338609952493760 1
force Co  -0.310405486109428   0.059602894331912   0.439899267896896 1
force Co   0.206860564806787   0.515736676973749  -0.226688648073655 1
force Co   0.136018061071268  -0.014129379569017  -0.182940659929416 1
force Co   0.109167329201736  -0.075023414199022  -0.249028119032042 1
force Co   0.505604497614977  -0.380556377226773   0.152094309213567 1
force Co  -0.136914178857221   1.166436382945810  -0.301214448337033 1
force Co   0.097821718009651   0.303542966990710  -0.344949341254139 1
force Co  -0.555295531259553  -0.222165485494129   0.449117281656459 1
force Co   0.000528651194997   0.027915602456873  -0.413812110864659 1
force Co  -0.234226094911296  -0.065435109537993   0.190446254684419 1
force Co  -0.871898848005505   0.066966170976559  -0.617978329374568 1
force Co   0.106856930927609  -0.650279720589722  -0.042112490767567 1
force Co  -0.451758176256639  -0.186558550937054   0.557077813496702 1
force Co  -0.126822629189581  -0.965920905094275  -0.290864611287774 1
force Co  -0.255521746919227  -0.153040915380129  -0.564130704387837 1
force Co  -0.178176850603154  -0.102361305446816   0.049585663542165 1
force O   0.391195548102459  -0.078277662771830   0.006628756567502 1
force O   0.134580451086166   0.247780250047983  -0.107386260070311 1
force O   0.116362678042996  -0.135101088942802  -0.064686296864767 1
force O   0.695841687234352   0.144893482036729  -0.203597570540632 1
force O  -0.238033237505425  -0.038622680679803  -0.123848465888156 1
force O   0.147954031014615   0.467930464946948  -0.557308214430104 1
force O  -0.457706217775314  -0.021298865019312   0.064570945011638 1
force O   0.441039081484591  -0.073092925884811  -0.004231654280145 1
force O   0.066452013316272  -0.030698434943239   0.888688701044179 1
force O  -0.305956733897460   0.490170426694813   0.771974804009973 1
force O   0.104007559536278   0.286173492550291  -0.468651648623535 1
force O   0.062724210839893   0.030679536176678   0.024436580379965 1
force O   0.131827603050978   0.072376124817809  -0.083403546591831 1
force O  -0.119614785903592  -0.122991236750672   0.389359665182369 1
force O  -0.340989609155152  -0.216359310629293  -0.074615212241460 1
force O  -0.117229988371899   0.073642342368064  -0.061379282991544 1
force O   0.472739103323352   0.135847259409869   0.064572195720769 1
force O  -0.154102432288320  -0.112255786925410  -0.013236766227561 1
force O  -0.213360241836026  -0.222719351787350  -0.044221522870273 1
force O  -0.086028672735043   0.113286714444969   0.456489485759532 1
force O   0.084894580392573   0.096335355173978  -0.300680453875512 1
force O  -0.409501951322237  -0.058179347780437  -0.028309986383702 1
force O   0.135666040499559  -0.622043948255413   0.063000014176154 1
force O   0.258598570011999   0.088347630931218   0.158097200372194 1
force O   0.115514220338846   0.030389962836418   0.099355989778515 1
force O  -0.061080797183643   0.551529171928757   0.046847047648413 1
force O   0.015336868949190   0.068260297482194   0.038380770977987 1
force O   0.258131069809097  -0.083833403292880  -0.005379488688589 1
force O   0.255751803555997  -0.230721512606897   0.118331017579567 1
force O  -0.113699941103804   0.806329865677154   0.226906290204374 1
force O   0.340385705132069   0.249700892637303   0.050137243926601 1
force O  -0.221644322276108   0.062615274731453   0.279496847502546 1

# Energy components:
   Eewald =    -2541.6087462133386907
       EH =     1395.2131693982971683
     Eloc =    -3882.7346134843437540
      Enl =      693.9245238236942441
      Exc =     -502.7588929840743504
 Exc_core =       14.6637149912267404
       KE =      743.7926522986779219
-------------------------------------
     Etot =    -4079.5081921698601946
       TS =        0.4452437978002082
-------------------------------------
        F =    -4079.9534359676604254

IonicMinimize: Iter:   1  F: -4079.953435967660425  |grad|_K:  2.211e-02  alpha:  7.529e-01  linmin: -9.776e-01  t[s]:  21855.59

#--- Lowdin population analysis ---
# oxidation-state Co +0.219 +0.222 +0.226 +0.229 +0.219 +0.208 +0.243 +0.221 +0.223 +0.221 +0.236 +0.228 +0.216 +0.230 +0.230 +0.227 +0.233 +0.238 +0.204 +0.230 +0.219 +0.214 +0.226 +0.210
# oxidation-state O -0.180 -0.158 -0.141 -0.110 -0.154 -0.140 -0.135 -0.116 -0.117 -0.127 -0.146 -0.150 -0.114 -0.160 -0.154 -0.164 -0.112 -0.177 -0.142 -0.159 -0.151 -0.118 -0.119 -0.143 -0.147 -0.124 -0.136 -0.176 -0.114 -0.156 -0.140 -0.137


-------- Electronic minimization -----------
Will mix electronic density at each iteration.
	FillingsUpdate:  mu: +0.490468828  nElectrons: 600.000000
	FillingsUpdate:  mu: +0.489807226  nElectrons: 600.000000
SCF: Cycle:  0   F: -4052.520113537362249   dF: +2.436e+01   |Residual|: 2.835e+00   |deigs|: 6.637e-03  t[s]:  22202.44
	FillingsUpdate:  mu: +0.592570190  nElectrons: 600.000000
SCF: Cycle:  1   F: -3875.248105675254919   dF: +1.773e+02   |Residual|: 9.249e+00   |deigs|: 1.664e-01  t[s]:  22447.95
	FillingsUpdate:  mu: +0.533226277  nElectrons: 600.000000
SCF: Cycle:  2   F: -3986.448573948619469   dF: -1.112e+02   |Residual|: 6.346e+00   |deigs|: 1.097e-01  t[s]:  22697.52
	FillingsUpdate:  mu: +0.498684234  nElectrons: 600.000000
SCF: Cycle:  3   F: -4045.376992652519675   dF: -5.893e+01   |Residual|: 3.709e+00   |deigs|: 3.913e-02  t[s]:  22946.93
	FillingsUpdate:  mu: +0.495786133  nElectrons: 600.000000
SCF: Cycle:  4   F: -4045.741316607274257   dF: -3.643e-01   |Residual|: 3.559e+00   |deigs|: 1.839e-02  t[s]:  23198.90
	FillingsUpdate:  mu: +0.494264206  nElectrons: 600.000000
SCF: Cycle:  5   F: -4059.148848823679600   dF: -1.341e+01   |Residual|: 2.816e+00   |deigs|: 1.465e-02  t[s]:  23453.21
	FillingsUpdate:  mu: +0.500853322  nElectrons: 600.000000
SCF: Cycle:  6   F: -4060.950791993840994   dF: -1.802e+00   |Residual|: 2.758e+00   |deigs|: 9.453e-03  t[s]:  23705.54
	FillingsUpdate:  mu: +0.499847609  nElectrons: 600.000000
SCF: Cycle:  7   F: -4055.763490681677013   dF: +5.187e+00   |Residual|: 2.849e+00   |deigs|: 4.210e-03  t[s]:  23953.35
	FillingsUpdate:  mu: +0.489793348  nElectrons: 600.000000
SCF: Cycle:  8   F: -4073.582510516883303   dF: -1.782e+01   |Residual|: 1.550e+00   |deigs|: 9.675e-03  t[s]:  24204.97
	FillingsUpdate:  mu: +0.483705717  nElectrons: 600.000000
SCF: Cycle:  9   F: -4077.671084224409697   dF: -4.089e+00   |Residual|: 9.834e-01   |deigs|: 5.839e-03  t[s]:  24456.70
	FillingsUpdate:  mu: +0.488192675  nElectrons: 600.000000
SCF: Cycle: 10   F: -4078.214156171542527   dF: -5.431e-01   |Residual|: 8.504e-01   |deigs|: 4.280e-03  t[s]:  24714.19
	FillingsUpdate:  mu: +0.490684259  nElectrons: 600.000000
SCF: Cycle: 11   F: -4078.233490175661245   dF: -1.933e-02   |Residual|: 8.111e-01   |deigs|: 2.298e-03  t[s]:  24971.30
	FillingsUpdate:  mu: +0.489716327  nElectrons: 600.000000
SCF: Cycle: 12   F: -4079.426680631517684   dF: -1.193e+00   |Residual|: 5.298e-01   |deigs|: 4.094e-03  t[s]:  25227.87
	FillingsUpdate:  mu: +0.488874313  nElectrons: 600.000000
SCF: Cycle: 13   F: -4079.696509721071379   dF: -2.698e-01   |Residual|: 4.000e-01   |deigs|: 1.677e-03  t[s]:  25484.36
	FillingsUpdate:  mu: +0.488901285  nElectrons: 600.000000
SCF: Cycle: 14   F: -4079.791501117792450   dF: -9.499e-02   |Residual|: 3.296e-01   |deigs|: 7.754e-04  t[s]:  25741.61
	FillingsUpdate:  mu: +0.489943309  nElectrons: 600.000000
SCF: Cycle: 15   F: -4079.509243974989204   dF: +2.823e-01   |Residual|: 4.565e-01   |deigs|: 1.771e-03  t[s]:  25995.56
	FillingsUpdate:  mu: +0.491178466  nElectrons: 600.000000
SCF: Cycle: 16   F: -4078.292383203548525   dF: +1.217e+00   |Residual|: 7.987e-01   |deigs|: 2.479e-03  t[s]:  26256.28
	FillingsUpdate:  mu: +0.489343106  nElectrons: 600.000000
SCF: Cycle: 17   F: -4079.506190476268785   dF: -1.214e+00   |Residual|: 4.532e-01   |deigs|: 2.218e-03  t[s]:  26501.92
	FillingsUpdate:  mu: +0.488864231  nElectrons: 600.000000
SCF: Cycle: 18   F: -4079.652929676568874   dF: -1.467e-01   |Residual|: 3.789e-01   |deigs|: 1.053e-03  t[s]:  26765.11
	FillingsUpdate:  mu: +0.490132056  nElectrons: 600.000000
SCF: Cycle: 19   F: -4079.749896139907378   dF: -9.697e-02   |Residual|: 3.376e-01   |deigs|: 1.409e-03  t[s]:  27023.79
	FillingsUpdate:  mu: +0.489729316  nElectrons: 600.000000
SCF: Cycle: 20   F: -4079.938404612622435   dF: -1.885e-01   |Residual|: 1.918e-01   |deigs|: 1.260e-03  t[s]:  27275.31
	FillingsUpdate:  mu: +0.489872118  nElectrons: 600.000000
SCF: Cycle: 21   F: -4079.989770202739692   dF: -5.137e-02   |Residual|: 1.351e-01   |deigs|: 6.332e-04  t[s]:  27457.93
	FillingsUpdate:  mu: +0.489793777  nElectrons: 600.000000
SCF: Cycle: 22   F: -4080.007859348037073   dF: -1.809e-02   |Residual|: 1.033e-01   |deigs|: 4.932e-04  t[s]:  27613.91
	FillingsUpdate:  mu: +0.490465768  nElectrons: 600.000000
SCF: Cycle: 23   F: -4079.777318690963966   dF: +2.305e-01   |Residual|: 3.193e-01   |deigs|: 1.672e-03  t[s]:  27870.62
	FillingsUpdate:  mu: +0.489901108  nElectrons: 600.000000
SCF: Cycle: 24   F: -4080.007865695946293   dF: -2.305e-01   |Residual|: 1.084e-01   |deigs|: 1.505e-03  t[s]:  28120.89
	FillingsUpdate:  mu: +0.489964762  nElectrons: 600.000000
SCF: Cycle: 25   F: -4080.033727084952261   dF: -2.586e-02   |Residual|: 4.095e-02   |deigs|: 3.458e-04  t[s]:  28282.17
	FillingsUpdate:  mu: +0.489862683  nElectrons: 600.000000
SCF: Cycle: 26   F: -4080.029141658857043   dF: +4.585e-03   |Residual|: 5.765e-02   |deigs|: 2.632e-04  t[s]:  28436.27
	FillingsUpdate:  mu: +0.489906178  nElectrons: 600.000000
SCF: Cycle: 27   F: -4080.036868005323868   dF: -7.726e-03   |Residual|: 2.209e-02   |deigs|: 2.286e-04  t[s]:  28595.35
	FillingsUpdate:  mu: +0.489859326  nElectrons: 600.000000
SCF: Cycle: 28   F: -4080.036993491064095   dF: -1.255e-04   |Residual|: 2.041e-02   |deigs|: 1.511e-04  t[s]:  28751.09
	FillingsUpdate:  mu: +0.489844713  nElectrons: 600.000000
SCF: Cycle: 29   F: -4080.029110019995642   dF: +7.883e-03   |Residual|: 5.726e-02   |deigs|: 2.291e-04  t[s]:  28906.06
	FillingsUpdate:  mu: +0.489846571  nElectrons: 600.000000
SCF: Cycle: 30   F: -4080.037375366128344   dF: -8.265e-03   |Residual|: 1.597e-02   |deigs|: 1.932e-04  t[s]:  29056.09
	FillingsUpdate:  mu: +0.489840240  nElectrons: 600.000000
SCF: Cycle: 31   F: -4080.036957074269594   dF: +4.183e-04   |Residual|: 2.051e-02   |deigs|: 1.225e-04  t[s]:  29209.26
	FillingsUpdate:  mu: +0.489867410  nElectrons: 600.000000
SCF: Cycle: 32   F: -4080.037489084932531   dF: -5.320e-04   |Residual|: 1.459e-02   |deigs|: 1.252e-04  t[s]:  29363.83
	FillingsUpdate:  mu: +0.489901518  nElectrons: 600.000000
SCF: Cycle: 33   F: -4080.037498996488466   dF: -9.912e-06   |Residual|: 1.462e-02   |deigs|: 1.043e-04  t[s]:  29516.63
	FillingsUpdate:  mu: +0.489930819  nElectrons: 600.000000
SCF: Cycle: 34   F: -4080.037861375011289   dF: -3.624e-04   |Residual|: 8.889e-03   |deigs|: 8.378e-05  t[s]:  29675.17
	FillingsUpdate:  mu: +0.489878677  nElectrons: 600.000000
SCF: Cycle: 35   F: -4080.037615235070461   dF: +2.461e-04   |Residual|: 1.297e-02   |deigs|: 8.469e-05  t[s]:  29830.02
	FillingsUpdate:  mu: +0.489840742  nElectrons: 600.000000
SCF: Cycle: 36   F: -4080.037506281832066   dF: +1.090e-04   |Residual|: 1.443e-02   |deigs|: 9.593e-05  t[s]:  29987.20
	FillingsUpdate:  mu: +0.489849904  nElectrons: 600.000000
SCF: Cycle: 37   F: -4080.037842290224035   dF: -3.360e-04   |Residual|: 8.801e-03   |deigs|: 7.800e-05  t[s]:  30140.93
	FillingsUpdate:  mu: +0.489842826  nElectrons: 600.000000
SCF: Cycle: 38   F: -4080.037959944294016   dF: -1.177e-04   |Residual|: 6.023e-03   |deigs|: 5.693e-05  t[s]:  30293.53
	FillingsUpdate:  mu: +0.489862589  nElectrons: 600.000000
SCF: Cycle: 39   F: -4080.038006570245670   dF: -4.663e-05   |Residual|: 4.347e-03   |deigs|: 4.049e-05  t[s]:  30445.89
	FillingsUpdate:  mu: +0.489864567  nElectrons: 600.000000
SCF: Cycle: 40   F: -4080.037982995696893   dF: +2.357e-05   |Residual|: 5.203e-03   |deigs|: 3.415e-05  t[s]:  30596.91
	FillingsUpdate:  mu: +0.489868976  nElectrons: 600.000000
SCF: Cycle: 41   F: -4080.038039791977099   dF: -5.680e-05   |Residual|: 2.475e-03   |deigs|: 2.766e-05  t[s]:  30749.05
	FillingsUpdate:  mu: +0.489871145  nElectrons: 600.000000
SCF: Cycle: 42   F: -4080.038037508452817   dF: +2.284e-06   |Residual|: 2.651e-03   |deigs|: 1.781e-05  t[s]:  30901.53
	FillingsUpdate:  mu: +0.489873224  nElectrons: 600.000000
SCF: Cycle: 43   F: -4080.038051954126331   dF: -1.445e-05   |Residual|: 1.283e-03   |deigs|: 1.459e-05  t[s]:  31053.75
	FillingsUpdate:  mu: +0.489866451  nElectrons: 600.000000
SCF: Cycle: 44   F: -4080.038049153582506   dF: +2.801e-06   |Residual|: 1.633e-03   |deigs|: 1.132e-05  t[s]:  31202.12
	FillingsUpdate:  mu: +0.489862226  nElectrons: 600.000000
SCF: Cycle: 45   F: -4080.038053344120272   dF: -4.191e-06   |Residual|: 1.098e-03   |deigs|: 1.049e-05  t[s]:  31355.47
	FillingsUpdate:  mu: +0.489868941  nElectrons: 600.000000
SCF: Cycle: 46   F: -4080.038051858326980   dF: +1.486e-06   |Residual|: 1.348e-03   |deigs|: 1.029e-05  t[s]:  31506.22
	FillingsUpdate:  mu: +0.489871868  nElectrons: 600.000000
SCF: Cycle: 47   F: -4080.038048647497817   dF: +3.211e-06   |Residual|: 1.706e-03   |deigs|: 1.075e-05  t[s]:  31658.08
	FillingsUpdate:  mu: +0.489867566  nElectrons: 600.000000
SCF: Cycle: 48   F: -4080.038054772525811   dF: -6.125e-06   |Residual|: 8.209e-04   |deigs|: 9.121e-06  t[s]:  31812.54
	FillingsUpdate:  mu: +0.489870376  nElectrons: 600.000000
SCF: Cycle: 49   F: -4080.038055301539771   dF: -5.290e-07   |Residual|: 6.968e-04   |deigs|: 5.686e-06  t[s]:  31957.91
Setting wave functions to eigenvectors of Hamiltonian

# Ionic positions in lattice coordinates:
ion Co   0.374697599283340   0.376144405372562   0.132261110930116 1
ion Co   0.377382816705556   0.136802473879040   0.369920146323185 1
ion Co   0.616555400941445   0.877217402310926   0.373908612383143 1
ion Co   0.144027432796568   0.125087916339005   0.122047282880572 1
ion Co   0.264565684336723   0.753082121997792   0.243877304394534 1
ion Co   0.009870207247652   0.508920124541918   0.004205528017790 1
ion Co   0.371423233502884   0.876723165277264   0.629002888082142 1
ion Co   0.373675518941863   0.624181564491459   0.884516935407543 1
ion Co   0.632035111731237   0.372842576715428   0.873393852947960 1
ion Co   0.125836696071588   0.612160460187334   0.629042587209613 1
ion Co   0.250107804210570   0.251502340562302   0.761682923225784 1
ion Co   0.000528892169663   0.006795096110865   0.507936777484261 1
ion Co   0.871221045798719   0.381570837703909   0.623707062493843 1
ion Co   0.875789487862060   0.109707303708187   0.885278540414701 1
ion Co   0.121011300640821   0.866153369308524   0.887644477856572 1
ion Co   0.634175464190030   0.131682093102681   0.615418894897933 1
ion Co   0.744710216682684   0.751031521724670   0.762772918255640 1
ion Co   0.507051119213989   0.505068185053516   0.493721977667763 1
ion Co   0.890649201716758   0.873804332421543   0.132807888521046 1
ion Co   0.874769965408242   0.646479077591522   0.370143728346079 1
ion Co   0.122759025518903   0.377071564236220   0.376013551411216 1
ion Co   0.631759483679086   0.628876858777019   0.125406359560284 1
ion Co   0.768314103491990   0.252834673765570   0.259899655439738 1
ion Co   0.507664797207276  -0.004349048894700  -0.001403471812495 1
ion O   0.863846288812953   0.365111254091730   0.866564594713841 1
ion O   0.888441477599328   0.105863844723271   0.125805320773966 1
ion O   0.114149951003323   0.113614112458537   0.889801533867683 1
ion O   0.116243273830621   0.883200788534287   0.133044657951409 1
ion O   0.143492391596534   0.137621859528477   0.370522680521991 1
ion O   0.125563668244189   0.357154635031464   0.145713808885938 1
ion O   0.389121808136461   0.895453442781475   0.383789519601841 1
ion O   0.371633358013355   0.139547154649143   0.127473313024516 1
ion O   0.857656580209352   0.882593333237002   0.355466347106442 1
ion O   0.889725123274744   0.612724594182889   0.597713822415096 1
ion O   0.116404251006830   0.609837413132592   0.394797081749635 1
ion O   0.109801895628552   0.374109832722532   0.617671541710375 1
ion O   0.133667844061799   0.631846493822733   0.864409776036354 1
ion O   0.139356253578727   0.859908869463750   0.613082867684535 1
ion O   0.397983381538738   0.387648135523969   0.891172404562777 1
ion O   0.368599269041362   0.629653175592212   0.644287583042576 1
ion O   0.354371384579563   0.371470881742329   0.367674687007836 1
ion O   0.395224742687369   0.126280232101997   0.613786773670039 1
ion O   0.620054130184387   0.128258057639516   0.380785716158166 1
ion O   0.618946937093660   0.884291759730488   0.607138369016318 1
ion O   0.641955017756400   0.132086231068755   0.874619918071922 1
ion O   0.642286167007784   0.372887622231006   0.632380388288943 1
ion O   0.885126211256254   0.884244963256067   0.885023917491946 1
ion O   0.862402597578210   0.136569183888633   0.634779917336811 1
ion O   0.355897094754194   0.862207276578783   0.869471003781323 1
ion O   0.389143363305717   0.604410119331570   0.122109044390221 1
ion O   0.615931862402215   0.609543453677069   0.887651710940331 1
ion O   0.613634027712347   0.388994718531555   0.122310319875583 1
ion O   0.625768177675149   0.647567312842731   0.359636148285878 1
ion O   0.647725595810466   0.851942946524348   0.117108649822756 1
ion O   0.876684388452036   0.397903238538940   0.387904640606032 1
ion O   0.874849876817735   0.638532646555596   0.129274409267959 1

# Forces in Lattice coordinates:
force Co   0.107967665971971  -0.133351372498341  -0.181572396279183 1
force Co   0.181295443327264  -0.215193802299553   0.283580897203097 1
force Co   0.418994811359429   0.332829033704552  -0.288379539196241 1
force Co  -0.697862737735618  -0.188625189524186   0.295274217532148 1
force Co  -0.107283567045518  -0.109446052362704   0.301038231816979 1
force Co  -0.133126463548905  -0.472192236786594  -0.019894782932429 1
force Co   0.237708842287421   0.057897413275767  -0.179261337635866 1
force Co   0.153777214709171  -0.054113164627318  -0.231651816007728 1
force Co  -0.162001504805768   0.023213937041334   0.271348688105606 1
force Co   0.113511487505227   0.392272975388583  -0.169582410222092 1
force Co   0.104997167007022  -0.029412508370955  -0.151511829552620 1
force Co   0.054927189231382  -0.077209132000656  -0.194710706961470 1
force Co   0.267022694043888  -0.215429518220863   0.130345977301223 1
force Co  -0.036057250856816   0.805845304484878  -0.243623153514725 1
force Co   0.116880709716844   0.236651909849956  -0.327231963565154 1
force Co  -0.346796595286280  -0.153360938502671   0.344658129232682 1
force Co   0.031061262491599   0.001851780594466  -0.374238924622021 1
force Co  -0.188449239097881  -0.030047374600212   0.155617388473412 1
force Co  -0.570982629467117   0.044536953514153  -0.359195818327140 1
force Co   0.061608361421333  -0.509834338765232   0.049902296282253 1
force Co  -0.212160960067504  -0.105015893293504   0.281161266916376 1
force Co  -0.091943821129290  -0.562988659831952  -0.151617369591714 1
force Co  -0.210812790303296  -0.042061897293749  -0.378586929127635 1
force Co  -0.137871393040981  -0.047320087301761   0.007774240430410 1
force O   0.245550255610741  -0.075107535214957   0.013753389156804 1
force O   0.127295220140544   0.199225747354679  -0.130039544991801 1
force O   0.074607906225583  -0.107957336309792  -0.032820123334140 1
force O   0.378453713630851   0.109193403421139  -0.217631173787083 1
force O  -0.144012347729379  -0.025526711690346  -0.111574462360075 1
force O   0.178003509900824   0.290407082697380  -0.328427749452618 1
force O  -0.217960634120272  -0.034732393581024   0.058013288015148 1
force O   0.166169958498080  -0.079340893850409   0.051538121544347 1
force O   0.099811338199671  -0.111152405004373   0.520293543654576 1
force O  -0.217810269504522   0.336841647437240   0.577022711513515 1
force O   0.059734637154964   0.205780703771689  -0.352959213307718 1
force O   0.075247105471909   0.086270187078825   0.030104868354573 1
force O   0.083996352978711   0.056765080421091  -0.027524688629013 1
force O  -0.063000487235386  -0.070284603886296   0.380218153830890 1
force O  -0.265638346087876  -0.164461780151944  -0.053385844210856 1
force O  -0.080353452141367   0.080885799415125  -0.081528371592856 1
force O   0.300893649703957   0.046210857530475   0.028326717686463 1
force O  -0.149295014542900  -0.114273445863138   0.006464780707190 1
force O  -0.132220348911344  -0.201457296207209  -0.001909892783601 1
force O  -0.089123695693739   0.107129244499607   0.268795193004617 1
force O   0.006235589955597   0.073208045294844  -0.245492406765021 1
force O  -0.245093380457472  -0.079137117576869   0.035388305363156 1
force O   0.092680534844644  -0.337113865336101   0.082336903942204 1
force O   0.144068139572043   0.062556368752950   0.119582630658413 1
force O   0.125488804304576   0.019539258475232   0.039546046673002 1
force O  -0.024450088884353   0.337346174880415  -0.025320838151467 1
force O   0.017168986490503   0.057161487831689   0.014071703938532 1
force O   0.198749985656238  -0.098783128592187  -0.025284789504123 1
force O   0.240189102736140  -0.138196208900898   0.069827903637841 1
force O  -0.116269909642686   0.530270314066062   0.237106996117555 1
force O   0.240518555666984   0.120005160743644  -0.000737804732990 1
force O  -0.151325911132879   0.018947072043580   0.196333753113731 1

# Energy components:
   Eewald =    -2547.0658351596280227
       EH =     1390.0456357126179228
     Eloc =    -3871.8469999010749234
      Enl =      693.8586529387121118
      Exc =     -502.6491839203317795
 Exc_core =       14.6636978041049719
       KE =      743.3980324316254382
-------------------------------------
     Etot =    -4079.5960000939739984
       TS =        0.4439848920388011
-------------------------------------
        F =    -4080.0399849860127688

IonicMinimize: Iter:   2  F: -4080.039984986012769  |grad|_K:  1.479e-02  alpha:  4.223e-01  linmin: -9.866e-01  t[s]:  31988.82

#--- Lowdin population analysis ---
# oxidation-state Co +0.221 +0.223 +0.226 +0.226 +0.221 +0.211 +0.240 +0.223 +0.224 +0.222 +0.237 +0.231 +0.218 +0.229 +0.233 +0.227 +0.235 +0.234 +0.207 +0.232 +0.220 +0.215 +0.228 +0.216
# oxidation-state O -0.173 -0.151 -0.144 -0.119 -0.151 -0.145 -0.137 -0.128 -0.126 -0.138 -0.146 -0.146 -0.123 -0.159 -0.148 -0.158 -0.123 -0.166 -0.141 -0.157 -0.148 -0.129 -0.127 -0.144 -0.148 -0.130 -0.133 -0.166 -0.125 -0.153 -0.140 -0.137


-------- Electronic minimization -----------
Will mix electronic density at each iteration.
	FillingsUpdate:  mu: +0.489870376  nElectrons: 600.000000
	FillingsUpdate:  mu: +0.489503883  nElectrons: 600.000000
SCF: Cycle:  0   F: -4045.802381715016054   dF: +3.114e+01   |Residual|: 3.162e+00   |deigs|: 6.729e-03  t[s]:  32344.06
	FillingsUpdate:  mu: +0.602251035  nElectrons: 600.000000
SCF: Cycle:  1   F: -3869.537480838507690   dF: +1.763e+02   |Residual|: 9.638e+00   |deigs|: 1.743e-01  t[s]:  32597.31
	FillingsUpdate:  mu: +0.540156460  nElectrons: 600.000000
SCF: Cycle:  2   F: -3956.097782770130380   dF: -8.656e+01   |Residual|: 7.276e+00   |deigs|: 1.078e-01  t[s]:  32855.48
	FillingsUpdate:  mu: +0.502186983  nElectrons: 600.000000
SCF: Cycle:  3   F: -4027.550962623249688   dF: -7.145e+01   |Residual|: 4.393e+00   |deigs|: 4.829e-02  t[s]:  33110.99
	FillingsUpdate:  mu: +0.498615090  nElectrons: 600.000000
SCF: Cycle:  4   F: -4042.622713782777282   dF: -1.507e+01   |Residual|: 3.829e+00   |deigs|: 1.723e-02  t[s]:  33361.62
	FillingsUpdate:  mu: +0.496267757  nElectrons: 600.000000
SCF: Cycle:  5   F: -4052.359898468498159   dF: -9.737e+00   |Residual|: 3.273e+00   |deigs|: 2.143e-02  t[s]:  33609.11
	FillingsUpdate:  mu: +0.493853144  nElectrons: 600.000000
SCF: Cycle:  6   F: -4073.060361333137735   dF: -2.070e+01   |Residual|: 1.683e+00   |deigs|: 1.623e-02  t[s]:  33854.52
	FillingsUpdate:  mu: +0.498043924  nElectrons: 600.000000
SCF: Cycle:  7   F: -4068.843865486865070   dF: +4.216e+00   |Residual|: 2.147e+00   |deigs|: 7.189e-03  t[s]:  34105.71
	FillingsUpdate:  mu: +0.492238675  nElectrons: 600.000000
SCF: Cycle:  8   F: -4066.972302273169134   dF: +1.872e+00   |Residual|: 2.122e+00   |deigs|: 7.377e-03  t[s]:  34356.91
	FillingsUpdate:  mu: +0.488094439  nElectrons: 600.000000
SCF: Cycle:  9   F: -4076.555400259187081   dF: -9.583e+00   |Residual|: 1.127e+00   |deigs|: 5.520e-03  t[s]:  34610.87
	FillingsUpdate:  mu: +0.488544749  nElectrons: 600.000000
SCF: Cycle: 10   F: -4075.728655351726502   dF: +8.267e-01   |Residual|: 1.275e+00   |deigs|: 3.671e-03  t[s]:  34865.76
	FillingsUpdate:  mu: +0.489003835  nElectrons: 600.000000
SCF: Cycle: 11   F: -4075.999632516101883   dF: -2.710e-01   |Residual|: 1.246e+00   |deigs|: 4.799e-03  t[s]:  35126.11
	FillingsUpdate:  mu: +0.492714950  nElectrons: 600.000000
SCF: Cycle: 12   F: -4078.395238547487679   dF: -2.396e+00   |Residual|: 7.894e-01   |deigs|: 6.634e-03  t[s]:  35387.82
	FillingsUpdate:  mu: +0.492972091  nElectrons: 600.000000
SCF: Cycle: 13   F: -4079.492183926589860   dF: -1.097e+00   |Residual|: 4.951e-01   |deigs|: 1.260e-03  t[s]:  35645.97
	FillingsUpdate:  mu: +0.489156240  nElectrons: 600.000000
SCF: Cycle: 14   F: -4077.787554946529326   dF: +1.705e+00   |Residual|: 9.167e-01   |deigs|: 3.047e-03  t[s]:  35907.50
	FillingsUpdate:  mu: +0.489043646  nElectrons: 600.000000
SCF: Cycle: 15   F: -4079.883403131237628   dF: -2.096e+00   |Residual|: 2.935e-01   |deigs|: 1.878e-03  t[s]:  36163.05
	FillingsUpdate:  mu: +0.489789973  nElectrons: 600.000000
SCF: Cycle: 16   F: -4079.851947724984711   dF: +3.146e-02   |Residual|: 3.028e-01   |deigs|: 7.369e-04  t[s]:  36413.96
	FillingsUpdate:  mu: +0.490539875  nElectrons: 600.000000
SCF: Cycle: 17   F: -4079.672140470173417   dF: +1.798e-01   |Residual|: 4.077e-01   |deigs|: 1.604e-03  t[s]:  36671.42
	FillingsUpdate:  mu: +0.490179890  nElectrons: 600.000000
SCF: Cycle: 18   F: -4079.913833214493479   dF: -2.417e-01   |Residual|: 2.621e-01   |deigs|: 8.955e-04  t[s]:  36921.25
	FillingsUpdate:  mu: +0.489893249  nElectrons: 600.000000
SCF: Cycle: 19   F: -4079.976677131498036   dF: -6.284e-02   |Residual|: 2.088e-01   |deigs|: 7.855e-04  t[s]:  37169.51
	FillingsUpdate:  mu: +0.490273034  nElectrons: 600.000000
SCF: Cycle: 20   F: -4078.541079091386564   dF: +1.436e+00   |Residual|: 7.490e-01   |deigs|: 1.814e-03  t[s]:  37423.70
	FillingsUpdate:  mu: +0.489997936  nElectrons: 600.000000
SCF: Cycle: 21   F: -4079.986787626851310   dF: -1.446e+00   |Residual|: 1.976e-01   |deigs|: 1.516e-03  t[s]:  37668.89
	FillingsUpdate:  mu: +0.489685431  nElectrons: 600.000000
SCF: Cycle: 22   F: -4079.848422924002989   dF: +1.384e-01   |Residual|: 3.070e-01   |deigs|: 9.975e-04  t[s]:  37929.89
	FillingsUpdate:  mu: +0.489236503  nElectrons: 600.000000
SCF: Cycle: 23   F: -4080.003581508644402   dF: -1.552e-01   |Residual|: 1.892e-01   |deigs|: 7.101e-04  t[s]:  38181.94
	FillingsUpdate:  mu: +0.488799149  nElectrons: 600.000000
SCF: Cycle: 24   F: -4079.872059537460700   dF: +1.315e-01   |Residual|: 2.820e-01   |deigs|: 8.937e-04  t[s]:  38437.73
	FillingsUpdate:  mu: +0.489100550  nElectrons: 600.000000
SCF: Cycle: 25   F: -4080.060088026782523   dF: -1.880e-01   |Residual|: 1.168e-01   |deigs|: 6.368e-04  t[s]:  38688.47
[...]
ion Co   0.501502408272761   0.500629959776084   0.500940015722080 1
ion Co   0.877273401541783   0.875818637362532   0.126666176458515 1
ion Co   0.877372595395412   0.626408764243010   0.376349877624259 1
ion Co   0.127590063709516   0.375857827658360   0.376248731814525 1
ion Co   0.627491886041067   0.626228461334590   0.126500826871002 1
ion Co   0.753500014857314   0.251905279253787   0.251662592952842 1
ion Co   0.501673347745045   0.000638710058431   0.000909189883763 1
ion O   0.866857388272407   0.365654349296633   0.865832120045752 1
ion O   0.887772143708630   0.115799791781179   0.116185904904253 1
ion O   0.117254741752584   0.116069371726034   0.886582364964388 1
ion O   0.117273016334469   0.886350010092539   0.116317825122761 1
ion O   0.137617472657063   0.136135939947766   0.366144657509703 1
ion O   0.137458937830626   0.365832681792540   0.136501955377540 1
ion O   0.388011291120247   0.886755601118201   0.386977620085827 1
ion O   0.367078269037511   0.136264646509346   0.136414198871764 1
ion O   0.866764042281830   0.865605946117611   0.365934780443879 1
ion O   0.887908094355348   0.615893232197060   0.616213305210082 1
ion O   0.117453924930301   0.615944755006467   0.386598187086699 1
ion O   0.117323428906299   0.386367568591347   0.616180515408405 1
ion O   0.137399149715702   0.636273713024706   0.866150562280992 1
ion O   0.137501975245419   0.865915115036320   0.636542962687062 1
ion O   0.387994938515412   0.386869638268086   0.886803549686766 1
ion O   0.367092943980336   0.636401324254182   0.636613278727140 1
ion O   0.366864968142320   0.365562244472764   0.365695038542710 1
ion O   0.387843715226761   0.116006559022608   0.615989440896480 1
ion O   0.617545354599080   0.115997992460980   0.386400559104772 1
ion O   0.617287936027940   0.886431825472244   0.616232307273884 1
ion O   0.637438916862617   0.136309300076611   0.866036263196207 1
ion O   0.637555393851923   0.365959973226213   0.636388142989187 1
ion O   0.887892432179094   0.886738965874310   0.887057055850710 1
ion O   0.867057584545735   0.136333747995724   0.636570358602752 1
ion O   0.366668623519150   0.865738331102460   0.865879559745194 1
ion O   0.387747941070920   0.615831447419907   0.116137231247783 1
ion O   0.617351382335033   0.616130620137019   0.886538403527005 1
ion O   0.617288093184004   0.386354933630749   0.116051197944273 1
ion O   0.637490504622381   0.636135057830470   0.366190065350804 1
ion O   0.637483370712303   0.865749426436207   0.136527181754886 1
ion O   0.888060187390953   0.386780457151183   0.387003332639987 1
ion O   0.867099239343069   0.636253296116406   0.136719746346126 1

# Forces in Lattice coordinates:
force Co   0.000329683894585  -0.000378266229071   0.002476676962094 1
force Co   0.000143719205006  -0.000451896921896   0.001010324190467 1
force Co  -0.004308565838330   0.004182657280393   0.003435708380473 1
force Co  -0.000805138436177  -0.000267506648359   0.000448502062080 1
force Co   0.000579104782242  -0.000166716474215  -0.000267696596383 1
force Co  -0.000352870498713  -0.002549744820201   0.000108133856789 1
force Co   0.003007684044436  -0.000294289615376  -0.001725531118266 1
force Co   0.000449748283360   0.002012973291426  -0.001914400569158 1
force Co   0.004771057863680  -0.000677842251202  -0.000158485332489 1
force Co  -0.003564804690576  -0.002164414112734  -0.002866257349193 1
force Co   0.000956689403516  -0.000022947371860   0.000215935491926 1
force Co   0.000033817396701   0.000856199230721  -0.000488245468002 1
force Co   0.000554222368331   0.000432807804387   0.000054779105499 1
force Co   0.002252331032407  -0.001423511842522   0.000501609520695 1
force Co  -0.003259017181062   0.001769031527219   0.001970919284291 1
force Co   0.000658657297251  -0.001280115838877   0.000142934862662 1
force Co  -0.000198614901840  -0.000148659613140   0.000436428797832 1
force Co   0.000872096704161   0.001908291940591   0.000282887270677 1
force Co   0.004020300431539   0.003783338836282  -0.006390828772822 1
force Co   0.003513011694153  -0.004344029055063   0.002741308351869 1
force Co  -0.002636505427771   0.002562535059677   0.002507912242242 1
force Co   0.000746718766186   0.000265973982470  -0.001909625289108 1
force Co  -0.001690720121500  -0.000726717373968  -0.000100677764417 1
force Co   0.000059350652420   0.000621443190719   0.000514608250691 1
force O  -0.001119496697909   0.000535836406611   0.000683298331875 1
force O   0.000251990727952   0.000355187010676  -0.000163581365666 1
force O   0.001302492972501  -0.000943404599897   0.000396227129778 1
force O  -0.000053594009456   0.000781597851263  -0.001129217292549 1
force O  -0.000674353744611   0.000158568953739  -0.000147409735408 1
force O   0.001571054432020   0.001114883099847  -0.000909849730803 1
force O   0.002361169892193   0.000084278074066  -0.000100021858590 1
force O   0.000271071647499   0.001205005886247   0.001241412341209 1
force O   0.003096848441015   0.000575877469918   0.001518736920074 1
force O  -0.000702846597026   0.001070826011069  -0.000494126685388 1
force O  -0.000884902257937   0.000510335946756   0.001056686940347 1
force O   0.001559852835998   0.001851292793133   0.000241512426952 1
force O   0.002448986754385  -0.000273337384320   0.001428603538472 1
force O   0.000275267831626   0.001623673932929   0.000257506725557 1
force O  -0.000646932517095  -0.001929573509137   0.000510482052905 1
force O   0.001010498341729   0.000547685544197   0.000825684974623 1
force O   0.001758029274971   0.000810121701843   0.000454787944118 1
force O  -0.000077955707629  -0.000327894625287   0.001175272374068 1
force O  -0.000940513447438  -0.000351167025889   0.001655928513774 1
force O   0.000004058115113   0.001502024554219  -0.001087457957623 1
force O  -0.000291043605960   0.000083117120247   0.001418178226766 1
force O  -0.000046204072349   0.000869889096266   0.001181569985917 1
force O   0.002768918976331   0.000927822814607   0.001128752269563 1
force O   0.000413086673310   0.000548001977504   0.000946381459339 1
force O   0.003694146128801  -0.001041113648262   0.000698795176024 1
force O   0.000753212804045   0.001088196594212   0.000635980972596 1
force O   0.000034188208976  -0.000592641656044   0.001588286626447 1
force O   0.000591474531792   0.001115927355976   0.001643352967735 1
force O   0.000064111987005   0.000025848978829   0.000273768337498 1
force O  -0.000445935150011   0.002535217819539  -0.000176384375574 1
force O   0.001920733110391   0.000582914027317  -0.000252599490590 1
force O  -0.001278100023078   0.000420998985156  -0.000852178000749 1

# Energy components:
   Eewald =    -2552.7279530458358749
       EH =     1384.7571178858429448
     Eloc =    -3860.6733076460886878
      Enl =      693.7985553332139261
      Exc =     -502.5661180386519504
 Exc_core =       14.6631929294453691
       KE =      743.0374561789187737
-------------------------------------
     Etot =    -4079.7110564031563626
       TS =        0.4396429563240537
-------------------------------------
        F =    -4080.1506993594803134

IonicMinimize: Iter:  16  F: -4080.150699359480313  |grad|_K:  1.037e-04  alpha:  1.000e+00  linmin:  3.974e-01  t[s]: 146815.26

#--- Lowdin population analysis ---
# oxidation-state Co +0.226 +0.225 +0.225 +0.225 +0.228 +0.228 +0.226 +0.225 +0.225 +0.225 +0.228 +0.228 +0.225 +0.226 +0.225 +0.225 +0.228 +0.228 +0.225 +0.225 +0.225 +0.225 +0.228 +0.228
# oxidation-state O -0.142 -0.144 -0.145 -0.145 -0.144 -0.144 -0.143 -0.143 -0.142 -0.144 -0.145 -0.145 -0.144 -0.144 -0.143 -0.143 -0.142 -0.144 -0.145 -0.145 -0.144 -0.144 -0.143 -0.143 -0.142 -0.144 -0.145 -0.145 -0.144 -0.144 -0.143 -0.143


-------- Electronic minimization -----------
Will mix electronic density at each iteration.
	FillingsUpdate:  mu: +0.489604480  nElectrons: 600.000000
	FillingsUpdate:  mu: +0.489604219  nElectrons: 600.000000
SCF: Cycle:  0   F: -4080.150652575912318   dF: +4.480e-05   |Residual|: 3.981e-03   |deigs|: 7.268e-08  t[s]: 147072.70
	FillingsUpdate:  mu: +0.489607224  nElectrons: 600.000000
SCF: Cycle:  1   F: -4080.145376598914481   dF: +5.276e-03   |Residual|: 4.514e-02   |deigs|: 1.579e-04  t[s]: 147229.88
	FillingsUpdate:  mu: +0.489604647  nElectrons: 600.000000
SCF: Cycle:  2   F: -4080.150268918700931   dF: -4.892e-03   |Residual|: 1.272e-02   |deigs|: 1.321e-04  t[s]: 147385.67
	FillingsUpdate:  mu: +0.489604491  nElectrons: 600.000000
SCF: Cycle:  3   F: -4080.150701024811497   dF: -4.321e-04   |Residual|: 9.100e-04   |deigs|: 4.156e-05  t[s]: 147535.83
	FillingsUpdate:  mu: +0.489604903  nElectrons: 600.000000
SCF: Cycle:  4   F: -4080.150699850327328   dF: +1.174e-06   |Residual|: 1.018e-03   |deigs|: 2.805e-06  t[s]: 147689.05
	FillingsUpdate:  mu: +0.489603574  nElectrons: 600.000000
SCF: Cycle:  5   F: -4080.150684293764698   dF: +1.556e-05   |Residual|: 2.570e-03   |deigs|: 6.614e-06  t[s]: 147841.47
	FillingsUpdate:  mu: +0.489602935  nElectrons: 600.000000
SCF: Cycle:  6   F: -4080.150701418315293   dF: -1.712e-05   |Residual|: 6.725e-04   |deigs|: 6.759e-06  t[s]: 147993.98
	FillingsUpdate:  mu: +0.489605581  nElectrons: 600.000000
SCF: Cycle:  7   F: -4080.150702277185701   dF: -8.589e-07   |Residual|: 3.261e-04   |deigs|: 4.340e-06  t[s]: 148130.86
	FillingsUpdate:  mu: +0.489602879  nElectrons: 600.000000
SCF: Cycle:  8   F: -4080.150701765826398   dF: +5.114e-07   |Residual|: 5.613e-04   |deigs|: 4.222e-06  t[s]: 148285.74
	FillingsUpdate:  mu: +0.489604353  nElectrons: 600.000000
SCF: Cycle:  9   F: -4080.150702507025926   dF: -7.412e-07   |Residual|: 8.099e-05   |deigs|: 2.502e-06  t[s]: 148440.62
	FillingsUpdate:  mu: +0.489604468  nElectrons: 600.000000
SCF: Cycle: 10   F: -4080.150702353323595   dF: +1.537e-07   |Residual|: 2.416e-04   |deigs|: 6.195e-07  t[s]: 148563.15
	FillingsUpdate:  mu: +0.489604546  nElectrons: 600.000000
SCF: Cycle: 11   F: -4080.150702518695198   dF: -1.654e-07   |Residual|: 3.330e-05   |deigs|: 6.095e-07  t[s]: 148714.45
	FillingsUpdate:  mu: +0.489604320  nElectrons: 600.000000
SCF: Cycle: 12   F: -4080.150702473432830   dF: +4.526e-08   |Residual|: 1.375e-04   |deigs|: 3.626e-07  t[s]: 148861.45
	FillingsUpdate:  mu: +0.489604280  nElectrons: 600.000000
SCF: Cycle: 13   F: -4080.150702510740757   dF: -3.731e-08   |Residual|: 6.284e-05   |deigs|: 3.824e-07  t[s]: 149014.30
	FillingsUpdate:  mu: +0.489604346  nElectrons: 600.000000
SCF: Cycle: 14   F: -4080.150702518929847   dF: -8.189e-09   |Residual|: 3.179e-05   |deigs|: 2.556e-07  t[s]: 149153.04
	FillingsUpdate:  mu: +0.489604466  nElectrons: 600.000000
SCF: Cycle: 15   F: -4080.150702520558752   dF: -1.629e-09   |Residual|: 1.851e-05   |deigs|: 1.531e-07  t[s]: 149272.20
SCF: Converged (|Delta E|<1.000000e-08 for 2 iters).

Setting wave functions to eigenvectors of Hamiltonian

# Ionic positions in lattice coordinates:
ion Co   0.377336958595002   0.375869071909193   0.126352260120284 1
ion Co   0.377502255676083   0.126354376954830   0.376142511901671 1
ion Co   0.627520664180011   0.875957508336879   0.376268462993305 1
ion Co   0.127530576144518   0.126209157670614   0.126466761881299 1
ion Co   0.253379633773594   0.751641801080846   0.251824933877767 1
ion Co   0.001583388404117   0.500636556686719   0.001059873671889 1
ion Co   0.377315831336810   0.876050728271892   0.626489070320988 1
ion Co   0.377321984484417   0.626394017667493   0.876284283919537 1
ion Co   0.627460332998176   0.376041693084998   0.876167603405736 1
ion Co   0.127552343086042   0.626338650191424   0.626519996197247 1
ion Co   0.253189266496238   0.251657817959208   0.751699005748988 1
ion Co   0.001622141422889   0.000683945245683   0.501004043242364 1
ion Co   0.877382326476600   0.375988244721940   0.626524232107814 1
ion Co   0.877292949915465   0.126344920295437   0.876292189188542 1
ion Co   0.127434012525022   0.875919358215273   0.876366462220433 1
ion Co   0.627527081314824   0.126410012203385   0.626341978743685 1
ion Co   0.753233851827757   0.751837393195873   0.751690333071411 1
ion Co   0.501525998548850   0.500682183066885   0.500933616784569 1
ion Co   0.877331167800282   0.875834408031652   0.126566558748698 1
ion Co   0.877402700977335   0.626375015717292   0.376406406863166 1
ion Co   0.127573165507666   0.375898475158049   0.376304191014053 1
ion Co   0.627493687519781   0.626256408221594   0.126471143950560 1
ion Co   0.753542677842847   0.251927802809894   0.251603382588856 1
ion Co   0.501659293781678   0.000642710593854   0.000894809643739 1
ion O   0.866820058841209   0.365641712658230   0.865865714895930 1
ion O   0.887799958796277   0.115777219547773   0.116140093277456 1
ion O   0.117271675565131   0.115970726760460   0.886590186198798 1
ion O   0.117295741311565   0.886298668148474   0.116299534432568 1
ion O   0.137602595671483   0.136148162740364   0.366149110762122 1
ion O   0.137503270160714   0.365813855414648   0.136516259406310 1
ion O   0.388040056962478   0.886770544549842   0.386948670900538 1
ion O   0.367093952586063   0.136262171886821   0.136458127189100 1
ion O   0.866818576744263   0.865617906676773   0.365927277357176 1
ion O   0.887856040475861   0.615938071659019   0.616248605554441 1
ion O   0.117434937645618   0.615970249796625   0.386649677226448 1
ion O   0.117321988430483   0.386427586911747   0.616215929448401 1
ion O   0.137426626905697   0.636207372243025   0.866200010201402 1
ion O   0.137495611238278   0.865937179241274   0.636560539736039 1
ion O   0.387949110928233   0.386784393105121   0.886791955940029 1
ion O   0.367082397475949   0.636412160467747   0.636594284143062 1
ion O   0.366899071360947   0.365581645305381   0.365717235213139 1
ion O   0.387812630953687   0.116002106897708   0.616015944789726 1
ion O   0.617538078925129   0.116075553374228   0.386395400485343 1
ion O   0.617263058429165   0.886509697450491   0.616168688481700 1
ion O   0.637430742600188   0.136296681772430   0.866035032260224 1
ion O   0.637541423161868   0.365991524135081   0.636409687095378 1
ion O   0.887928460104348   0.886699193811470   0.887022285023071 1
ion O   0.867055031608396   0.136365413119166   0.636564967334501 1
ion O   0.366737995480943   0.865678719569062   0.865863952639287 1
ion O   0.387760726139776   0.615819417270213   0.116103352793201 1
ion O   0.617326236200902   0.616098868323536   0.886544847431054 1
ion O   0.617296754227426   0.386380941922930   0.116067691258073 1
ion O   0.637494173047723   0.636193996858530   0.366188253094034 1
ion O   0.637493241462873   0.865815195011860   0.136505247948541 1
ion O   0.888098732420250   0.386788724900701   0.387022699549811 1
ion O   0.867066753501072   0.636242081178366   0.136724625726495 1

# Forces in Lattice coordinates:
force Co   0.000677557382513   0.000552355528168   0.001059755369433 1
force Co  -0.000311173345980   0.000325727890365   0.000912195537052 1
force Co   0.000137518988425   0.001109596158019   0.000878329314356 1
force Co  -0.000140834475902   0.000571737568902   0.000637670338237 1
force Co   0.000193910518622   0.000322297245528   0.000107376282473 1
force Co   0.000171561307918   0.000371576327007  -0.000302926055894 1
force Co   0.000817051117371  -0.000215499249020  -0.000166384775131 1
force Co   0.000698461290093   0.000243082525317  -0.000329599615848 1
force Co   0.001167379804725  -0.000234972826981   0.000705617620743 1
force Co  -0.000593499615980   0.000139329352449  -0.000409504834325 1
force Co   0.001174160906398   0.000043264545852   0.000291063706505 1
force Co   0.000230113184021   0.000369647313055  -0.000012231675567 1
force Co   0.000449595495446  -0.000017165396626  -0.000048069019963 1
force Co   0.001444556047999  -0.000112937069714   0.000229799803678 1
force Co   0.000502606598936   0.000453343240708  -0.000043868264194 1
force Co   0.000581051378797  -0.000008067994793   0.000572850126406 1
force Co   0.000300857171038   0.000167758673417   0.000349392779552 1
force Co   0.000765649216912   0.000474625526993   0.000309489521112 1
force Co   0.001172685152689   0.001312718537884  -0.000667226001133 1
force Co   0.000599419868322  -0.000530818902790   0.000069153006893 1
force Co  -0.000345676821479   0.000498126561348   0.000541338427597 1
force Co   0.000706432923615   0.000647563241665   0.000131338545391 1
force Co  -0.001078334192337  -0.000679285939142   0.000861711976224 1
force Co   0.000083924985568   0.000571659668877   0.000548251116373 1
force O   0.000153286753773  -0.000060089424373   0.000069259062180 1
force O   0.000281031423339   0.000951725679729   0.000271460363392 1
force O   0.000927948378484   0.000176160669180   0.000365115977701 1
force O   0.000523228408054   0.000821669491235  -0.000167246587369 1
force O  -0.000462884604460   0.000589637898534   0.000207149566184 1
force O   0.000744540417689   0.000646736229087   0.000108306148541 1
force O   0.000668206470571   0.000104636823907  -0.000124964811617 1
force O   0.000009343519139   0.000726685074060   0.000936771376423 1
force O   0.001318647445370   0.000281884770718   0.000195860155055 1
force O  -0.000448686723003   0.000356949515762  -0.000327818972555 1
force O  -0.000140730012441   0.000565633074193   0.000113635113349 1
force O   0.000755279065514   0.000469796145299   0.000247426399168 1
force O   0.001223933247832   0.000399423250354   0.000147295476343 1
force O   0.000362463475651   0.000715096151552   0.000116303856372 1
force O   0.000826089944989  -0.000444876543559   0.001084873376332 1
force O   0.000314290558206   0.000331885145417   0.000287431900833 1
force O   0.000428675214020   0.000678830113311   0.000905813461163 1
force O   0.000414084888754  -0.000328700542512   0.000483828799076 1
force O  -0.000593499416962   0.000058429131026   0.001456974449562 1
force O   0.000735078099957   0.000480474185250   0.000112553663278 1
force O   0.000682901575130  -0.000048222353399   0.000884226900463 1
force O   0.000319140324993   0.000331501307945   0.000642854656276 1
force O   0.001229014997073   0.000710696556595  -0.000075754233519 1
force O   0.000733490515770   0.000202742492093   0.000694835866508 1
force O   0.001515339927947  -0.000178322239204   0.000106878486586 1
force O   0.000663424265579   0.000707459385057   0.000618370534771 1
force O   0.000602093929376  -0.000307222278423   0.000623281966179 1
force O   0.000539469468750   0.000621588272276   0.001090534963286 1
force O   0.000556658148136   0.000583034675852  -0.000000258124927 1
force O   0.000477636248948   0.001512739903136   0.000281289930162 1
force O   0.000492420218701  -0.000151708874422  -0.000119948302792 1
force O  -0.000097451375764   0.000841802515930  -0.000580496339245 1

# Energy components:
   Eewald =    -2552.7284749724549329
       EH =     1384.7567609496061323
     Eloc =    -3860.6724470392873627
      Enl =      693.7985827421574641
      Exc =     -502.5661239504669311
 Exc_core =       14.6632013292456680
       KE =      743.0374410610966152
-------------------------------------
     Etot =    -4079.7110598801036758
       TS =        0.4396426404552638
-------------------------------------
        F =    -4080.1507025205587524

IonicMinimize: Iter:  17  F: -4080.150702520558752  |grad|_K:  3.175e-05  alpha:  1.000e+00  linmin: -2.194e-01  t[s]: 149302.62
IonicMinimize: Converged (|grad|_K<1.000000e-04).

#--- Lowdin population analysis ---
# oxidation-state Co +0.226 +0.225 +0.225 +0.225 +0.228 +0.228 +0.226 +0.225 +0.225 +0.225 +0.228 +0.228 +0.225 +0.226 +0.225 +0.225 +0.228 +0.228 +0.225 +0.225 +0.225 +0.225 +0.228 +0.228
# oxidation-state O -0.142 -0.144 -0.145 -0.145 -0.144 -0.144 -0.143 -0.143 -0.142 -0.144 -0.145 -0.145 -0.144 -0.144 -0.143 -0.143 -0.142 -0.144 -0.145 -0.145 -0.144 -0.144 -0.143 -0.143 -0.142 -0.144 -0.145 -0.145 -0.144 -0.144 -0.143 -0.143


Dumping '/data/rc652/Co3O4/ion/Co3O4_ion.Ecomponents' ... done
End date and time: Wed Jun 26 05:53:57 2024  (Duration: 1-17:28:45.45)
Done!
