--------------------------------------------------------------------------
Initialization of PSM library failed.

  Error: PSM is in the finalized state
--------------------------------------------------------------------------

*************** JDFTx 1.7.0  ***************

Start date and time: Fri Dec  8 18:42:07 2023
Executable jdftx with command-line: -i /home/cam559/Valla_project/Mo/M8O22.in
Running on hosts (process indices):  node3201.physics.cornell.edu (0-9)
Divided in process groups (process indices):  0 (0)  1 (1)  2 (2)  3 (3)  4 (4)  5 (5)  6 (6)  7 (7)  8 (8)  9 (9)
Resource initialization completed at t[s]:      0.00
Run totals: 10 processes, 30 threads, 0 GPUs


Input parsed successfully to the following command list (including defaults):

basis kpoint-dependent
coords-type Cartesian
core-overlap-check vector
coulomb-interaction Periodic
davidson-band-ratio 1.1
dump End Ecomponents
dump-name M8O22.$VAR
elec-cutoff 20 100
elec-eigen-algo Davidson
elec-ex-corr gga-PBE
elec-smearing Fermi 0.004
electronic-minimize  \
	dirUpdateScheme      FletcherReeves \
	linminMethod         DirUpdateRecommended \
	nIterations          100 \
	history              15 \
	knormThreshold       0 \
	energyDiffThreshold  1e-08 \
	nEnergyDiff          2 \
	alphaTstart          1 \
	alphaTmin            1e-10 \
	updateTestStepSize   yes \
	alphaTreduceFactor   0.1 \
	alphaTincreaseFactor 3 \
	nAlphaAdjustMax      3 \
	wolfeEnergy          0.0001 \
	wolfeGradient        0.9 \
	fdTest               no
exchange-regularization WignerSeitzTruncated
fluid None
fluid-ex-corr lda-TF lda-PZ
fluid-gummel-loop 10 1.000000e-05
fluid-minimize  \
	dirUpdateScheme      PolakRibiere \
	linminMethod         DirUpdateRecommended \
	nIterations          100 \
	history              15 \
	knormThreshold       0 \
	energyDiffThreshold  0 \
	nEnergyDiff          2 \
	alphaTstart          1 \
	alphaTmin            1e-10 \
	updateTestStepSize   yes \
	alphaTreduceFactor   0.1 \
	alphaTincreaseFactor 3 \
	nAlphaAdjustMax      3 \
	wolfeEnergy          0.0001 \
	wolfeGradient        0.9 \
	fdTest               no
fluid-solvent H2O 55.338 ScalarEOS \
	epsBulk 78.4 \
	pMol 0.92466 \
	epsInf 1.77 \
	Pvap 1.06736e-10 \
	sigmaBulk 4.62e-05 \
	Rvdw 2.61727 \
	Res 1.42 \
	tauNuc 343133 \
	poleEl 15 7 1
forces-output-coords Positions
initial-state M8O22.$VAR
ion Mo  10.103931999999999   6.571614000000000   4.161042000000000 1
ion Mo  10.166262000000000  13.763904000000000   3.075524000000000 1
ion Mo   3.284637999999999   7.812847000000001  10.490653000000000 1
ion Mo   3.222308000000000   0.620633000000000  11.576156000000001 1
ion Mo  10.039289000000000   6.688465999999999  11.598290000000000 1
ion Mo  10.042704999999998  13.880641000000001  10.380945000000001 1
ion Mo   3.349085999999999   7.696097000000000   3.054672000000000 1
ion Mo   3.345670000000000   0.503781000000000   4.272016999999999 1
ion O  10.657951999999998   0.191967000000000   7.267408000000000 1
ion O   9.609979999999997   7.384917999999999  -0.029750000000000 1
ion O   2.728342000000000  -0.192672000000000   7.385379000000000 1
ion O   3.776327999999999   7.000267000000000  14.682539000000002 1
ion O  10.651424999999996   6.434950000000001   7.356265000000000 1
ion O   9.428429000000000  13.627017000000000  14.622577999999999 1
ion O   2.734810000000000   7.949721000000000   7.296305000000000 1
ion O   3.957805999999999   0.757296000000000   0.029977000000000 1
ion O  13.509780999999998   0.532973000000000   3.010172000000000 1
ion O   6.759240999999999   7.725833999999999   4.226639999999999 1
ion O  -0.122383000000000  13.850917999999998  11.641769999999999 1
ion O   6.628155999999999   6.659273999999999  10.425303000000000 1
ion O  -0.033086000000000   6.673994000000000   3.166741000000000 1
ion O   6.726798999999998  13.866864000000000   4.159759000000001 1
ion O  13.420417999999998   7.709874000000000  11.486031000000002 1
ion O   6.660532999999999   0.518253000000000  10.492997999999998 1
ion O   3.792549000000000   3.749145000000001   4.289947000000000 1
ion O   2.900309000000000  10.941133000000001   3.037641000000000 1
ion O   9.593928999999999  10.635604999999998  10.363913999999999 1
ion O  10.486169000000000   3.443087999999999  11.616220000000002 1
ion O   2.657636000000000   3.747103000000000  10.747038000000000 1
ion O   3.847951000000000  10.939527000000000  11.319940000000001 1
ion O  10.729575999999998  10.637211000000001   3.904809999999999 1
ion-species GBRV/$ID_pbe.uspp
ion-width 0
ionic-minimize  \
	dirUpdateScheme      L-BFGS \
	linminMethod         DirUpdateRecommended \
	nIterations          30 \
	history              15 \
	knormThreshold       0.0001 \
	energyDiffThreshold  1e-05 \
	nEnergyDiff          2 \
	alphaTstart          1 \
	alphaTmin            1e-10 \
	updateTestStepSize   yes \
	alphaTreduceFactor   0.1 \
	alphaTincreaseFactor 3 \
	nAlphaAdjustMax      3 \
	wolfeEnergy          0.0001 \
	wolfeGradient        0.9 \
	fdTest               no
kpoint   0.000000000000   0.000000000000   0.000000000000  1.00000000000000
kpoint-folding 3 3 3 
latt-move-scale 1 1 1
latt-scale 1 1 1 
lattice  \
	  13.575244000000000   -0.000000000000000   -0.188005000000000  \
	  -0.000000000000000   14.384490000000000    0.000002000000000  \
	  -0.088857000000000    0.000002000000000   14.741403000000000 
lattice-minimize  \
	dirUpdateScheme      L-BFGS \
	linminMethod         DirUpdateRecommended \
	nIterations          0 \
	history              15 \
	knormThreshold       0 \
	energyDiffThreshold  1e-06 \
	nEnergyDiff          2 \
	alphaTstart          1 \
	alphaTmin            1e-10 \
	updateTestStepSize   yes \
	alphaTreduceFactor   0.1 \
	alphaTincreaseFactor 3 \
	nAlphaAdjustMax      3 \
	wolfeEnergy          0.0001 \
	wolfeGradient        0.9 \
	fdTest               no
lcao-params -1 1e-06 0.004
pcm-variant GLSSA13
spintype no-spin
subspace-rotation-factor 1 yes
symmetries automatic
symmetry-threshold 0.0001



---------- Setting up symmetries ----------

Found 4 point-group symmetries of the bravais lattice
Found 1 space-group symmetries with basis
Applied RMS atom displacement 0 bohrs to make symmetries exact.

---------- Initializing the Grid ----------
R = 
[      13.5752            0    -0.188005  ]
[            0      14.3845        2e-06  ]
[    -0.088857        2e-06      14.7414  ]
unit cell volume = 2878.36
G =
[    0.46288 -8.20795e-10 0.00590336  ]
[ -3.87933e-10   0.436803 -5.9267e-08  ]
[ 0.00279011 -5.9267e-08   0.426263  ]
Minimum fftbox size, Smin = [  64  68  68  ]
Chosen fftbox size, S = [  64  70  70  ]

---------- Initializing tighter grid for wavefunction operations ----------
R = 
[      13.5752            0    -0.188005  ]
[            0      14.3845        2e-06  ]
[    -0.088857        2e-06      14.7414  ]
unit cell volume = 2878.36
G =
[    0.46288 -8.20795e-10 0.00590336  ]
[ -3.87933e-10   0.436803 -5.9267e-08  ]
[ 0.00279011 -5.9267e-08   0.426263  ]
Minimum fftbox size, Smin = [  56  60  60  ]
Chosen fftbox size, S = [  56  60  60  ]

---------- Exchange Correlation functional ----------
Initalized PBE GGA exchange.
Initalized PBE GGA correlation.

---------- Setting up pseudopotentials ----------
Width of ionic core gaussian charges (only for fluid interactions / plotting) set to 0

Reading pseudopotential file '/home/cam559/JDFTx/build/pseudopotentials/GBRV/mo_pbe.uspp':
  Title: Mo.  Created by USPP 7.3.6 on 14-9-2013
  Reference state energy: -69.261020.  14 valence electrons in orbitals:
    |400>  occupation: 2  eigenvalue: -2.465796
    |410>  occupation: 6  eigenvalue: -1.510132
    |420>  occupation: 4  eigenvalue: -0.207728
    |500>  occupation: 2  eigenvalue: -0.179278
    |510>  occupation: 0  eigenvalue: -0.052696
  lMax: 2  lLocal: 3  QijEcut: 5
  6 projectors sampled on a log grid with 629 points:
    l: 0  eig: -2.465797  rCut: 1.8
    l: 0  eig: -0.179280  rCut: 1.8
    l: 1  eig: -1.510132  rCut: 2
    l: 1  eig: 0.150000  rCut: 2
    l: 2  eig: -0.052696  rCut: 2.2
    l: 2  eig: 0.150000  rCut: 2.2
  Partial core density with radius 1.2
  Transforming core density to a uniform radial grid of dG=0.02 with 1313 points.
  Transforming local potential to a uniform radial grid of dG=0.02 with 1313 points.
  Transforming nonlocal projectors to a uniform radial grid of dG=0.02 with 432 points.
  Transforming density augmentations to a uniform radial grid of dG=0.02 with 1313 points.
  Transforming atomic orbitals to a uniform radial grid of dG=0.02 with 432 points.
  Core radius for overlap checks: 2.20 bohrs.

Reading pseudopotential file '/home/cam559/JDFTx/build/pseudopotentials/GBRV/o_pbe.uspp':
  Title: O.  Created by USPP 7.3.6 on 3-2-2014
  Reference state energy: -15.894388.  6 valence electrons in orbitals:
    |200>  occupation: 2  eigenvalue: -0.878823
    |210>  occupation: 4  eigenvalue: -0.332131
  lMax: 2  lLocal: 2  QijEcut: 6
  5 projectors sampled on a log grid with 511 points:
    l: 0  eig: -0.878823  rCut: 1.25
    l: 0  eig: 0.000000  rCut: 1.25
    l: 1  eig: -0.332132  rCut: 1.25
    l: 1  eig: 0.000000  rCut: 1.25
    l: 2  eig: 1.000000  rCut: 1.25
  Partial core density with radius 0.7
  Transforming core density to a uniform radial grid of dG=0.02 with 1313 points.
  Transforming local potential to a uniform radial grid of dG=0.02 with 1313 points.
  Transforming nonlocal projectors to a uniform radial grid of dG=0.02 with 432 points.
  Transforming density augmentations to a uniform radial grid of dG=0.02 with 1313 points.
  Transforming atomic orbitals to a uniform radial grid of dG=0.02 with 432 points.
  Core radius for overlap checks: 1.25 bohrs.

Initialized 2 species with 31 total atoms.

Folded 1 k-points by 3x3x3 to 27 k-points.

---------- Setting up k-points, bands, fillings ----------
Adding inversion symmetry to k-mesh for non-inversion-symmetric unit cell.
Reduced to 14 k-points under symmetry. 
Computing the number of bands and number of electrons
Calculating initial fillings.
nElectrons: 250.000000   nBands: 196   nStates: 14

----- Setting up reduced wavefunction bases (one per k-point) -----
average nbasis = 12293.815 , ideal nbasis = 12296.561

---------- Setting up ewald sum ----------
Optimum gaussian width for ewald sums = 3.201828 bohr.
Real space sum over 729 unit cells with max indices [  4  4  4  ]
Reciprocal space sum over 4913 terms with max indices [  8  8  8  ]

---------- Allocating electronic variables ----------
Initializing wave functions:  linear combination of atomic orbitals
Mo pseudo-atom occupations:   s ( 2 0 )  p ( 6 0 )  d ( 6 )
O pseudo-atom occupations:   s ( 2 )  p ( 4 )
	FillingsUpdate:  mu: +0.509995609  nElectrons: 250.000000
LCAOMinimize: Iter:   0  F: -902.6626011063710848  |grad|_K:  9.034e-03  alpha:  1.000e+00
	FillingsUpdate:  mu: +0.356011138  nElectrons: 250.000000
LCAOMinimize: Iter:   1  F: -913.0689655571259209  |grad|_K:  6.428e-03  alpha:  2.163e-01  linmin: -4.449e-01  cgtest:  6.349e-01  t[s]:     79.35
	FillingsUpdate:  mu: +0.404944957  nElectrons: 250.000000
LCAOMinimize: Iter:   2  F: -914.6671747416850167  |grad|_K:  6.929e-03  alpha:  3.528e-01  linmin:  4.349e-01  cgtest: -6.777e-01  t[s]:    101.70
LCAOMinimize: 	Bad step direction: g.d > 0.
LCAOMinimize: 	Undoing step.
LCAOMinimize: 	Step failed: resetting search direction.
	FillingsUpdate:  mu: +0.404944957  nElectrons: 250.000000
LCAOMinimize: Iter:   3  F: -914.6671747416850167  |grad|_K:  6.929e-03  alpha:  0.000e+00
	FillingsUpdate:  mu: +0.238557561  nElectrons: 250.000000
LCAOMinimize: Iter:   4  F: -916.8390034178751193  |grad|_K:  1.277e-03  alpha:  1.977e-01  linmin:  1.211e-01  cgtest: -5.523e-01  t[s]:    137.89
	FillingsUpdate:  mu: +0.262902827  nElectrons: 250.000000
LCAOMinimize: Iter:   5  F: -916.8813948579963835  |grad|_K:  7.292e-04  alpha:  1.238e-01  linmin:  2.031e-03  cgtest:  5.487e-01  t[s]:    159.44
	FillingsUpdate:  mu: +0.263866378  nElectrons: 250.000000
LCAOMinimize: Iter:   6  F: -916.9101984551371061  |grad|_K:  2.382e-04  alpha:  2.060e-01  linmin:  7.586e-02  cgtest: -1.991e-01  t[s]:    181.14
	FillingsUpdate:  mu: +0.273588536  nElectrons: 250.000000
LCAOMinimize: Iter:   7  F: -916.9134822170248071  |grad|_K:  1.935e-04  alpha:  2.423e-01  linmin:  3.587e-03  cgtest:  1.839e-01  t[s]:    202.75
	FillingsUpdate:  mu: +0.267752817  nElectrons: 250.000000
LCAOMinimize: Iter:   8  F: -916.9160588526641504  |grad|_K:  1.047e-04  alpha:  2.557e-01  linmin:  2.759e-04  cgtest: -6.960e-02  t[s]:    225.07
	FillingsUpdate:  mu: +0.271563997  nElectrons: 250.000000
LCAOMinimize: Iter:   9  F: -916.9165702295844085  |grad|_K:  3.548e-05  alpha:  1.718e-01  linmin:  6.144e-05  cgtest: -1.510e-02  t[s]:    247.24
	FillingsUpdate:  mu: +0.271384299  nElectrons: 250.000000
LCAOMinimize: Iter:  10  F: -916.9166365941603090  |grad|_K:  1.201e-05  alpha:  1.942e-01  linmin:  2.146e-03  cgtest: -3.536e-03  t[s]:    269.02
	FillingsUpdate:  mu: +0.271532431  nElectrons: 250.000000
LCAOMinimize: Iter:  11  F: -916.9166459332210479  |grad|_K:  6.783e-06  alpha:  2.390e-01  linmin:  2.439e-04  cgtest:  3.930e-03  t[s]:    290.60
	FillingsUpdate:  mu: +0.271538644  nElectrons: 250.000000
LCAOMinimize: Iter:  12  F: -916.9166493647637708  |grad|_K:  3.925e-06  alpha:  2.747e-01  linmin:  1.392e-04  cgtest: -4.320e-04  t[s]:    313.20
	FillingsUpdate:  mu: +0.271604336  nElectrons: 250.000000
LCAOMinimize: Iter:  13  F: -916.9166503992627213  |grad|_K:  1.613e-06  alpha:  2.472e-01  linmin:  3.244e-06  cgtest:  5.676e-04  t[s]:    335.18
	FillingsUpdate:  mu: +0.271569296  nElectrons: 250.000000
LCAOMinimize: Iter:  14  F: -916.9166505368555136  |grad|_K:  7.511e-07  alpha:  1.948e-01  linmin: -5.779e-06  cgtest: -1.188e-04  t[s]:    356.53
	FillingsUpdate:  mu: +0.271596285  nElectrons: 250.000000
LCAOMinimize: Iter:  15  F: -916.9166505687820745  |grad|_K:  4.633e-07  alpha:  2.084e-01  linmin:  3.403e-04  cgtest: -1.803e-03  t[s]:    378.57
LCAOMinimize: Converged (|Delta F|<1.000000e-06 for 2 iters).


---- Citations for features of the code used in this run ----

   Software package:
      R. Sundararaman, K. Letchworth-Weaver, K.A. Schwarz, D. Gunceler, Y. Ozhabes and T.A. Arias, 'JDFTx: software for joint density-functional theory', SoftwareX 6, 278 (2017)

   gga-PBE exchange-correlation functional:
      J.P. Perdew, K. Burke and M. Ernzerhof, Phys. Rev. Lett. 77, 3865 (1996)

   Pseudopotentials:
      KF Garrity, JW Bennett, KM Rabe and D Vanderbilt, Comput. Mater. Sci. 81, 446 (2014)

   Total energy minimization with Auxiliary Hamiltonian:
      C. Freysoldt, S. Boeck, and J. Neugebauer, Phys. Rev. B 79, 241103(R) (2009)

This list may not be complete. Please suggest additional citations or
report any other bugs at https://github.com/shankar1729/jdftx/issues

Initialization completed successfully at t[s]:    395.35


-------- Electronic minimization -----------
	FillingsUpdate:  mu: +0.271596285  nElectrons: 250.000000
ElecMinimize: Iter:   0  F: -916.916650568781733  |grad|_K:  2.107e-04  alpha:  1.000e+00
	FillingsUpdate:  mu: +0.294115550  nElectrons: 250.000000
	SubspaceRotationAdjust: set factor to 0.794
ElecMinimize: Iter:   1  F: -917.747795266492858  |grad|_K:  1.321e-04  alpha:  5.477e-01  linmin: -1.921e-06  t[s]:    519.62
	FillingsUpdate:  mu: +0.276339027  nElectrons: 250.000000
	SubspaceRotationAdjust: set factor to 0.477
ElecMinimize: Iter:   2  F: -917.905693194277660  |grad|_K:  6.109e-05  alpha:  2.830e-01  linmin:  4.287e-04  t[s]:    603.84
	FillingsUpdate:  mu: +0.256403767  nElectrons: 250.000000
	SubspaceRotationAdjust: set factor to 0.427
ElecMinimize: Iter:   3  F: -917.962075324463626  |grad|_K:  3.397e-05  alpha:  4.591e-01  linmin:  1.516e-04  t[s]:    689.44
	FillingsUpdate:  mu: +0.281894224  nElectrons: 250.000000
	SubspaceRotationAdjust: set factor to 0.298
ElecMinimize: Iter:   4  F: -917.974203786947669  |grad|_K:  1.855e-05  alpha:  3.136e-01  linmin:  3.188e-05  t[s]:    776.08
	FillingsUpdate:  mu: +0.275734000  nElectrons: 250.000000
	SubspaceRotationAdjust: set factor to 0.341
ElecMinimize: Iter:   5  F: -917.978853943788067  |grad|_K:  9.192e-06  alpha:  3.983e-01  linmin:  5.723e-05  t[s]:    870.09
	FillingsUpdate:  mu: +0.275103674  nElectrons: 250.000000
	SubspaceRotationAdjust: set factor to 0.413
ElecMinimize: Iter:   6  F: -917.980206931163025  |grad|_K:  5.254e-06  alpha:  4.727e-01  linmin:  4.591e-05  t[s]:    970.29
	FillingsUpdate:  mu: +0.277478057  nElectrons: 250.000000
	SubspaceRotationAdjust: set factor to 0.455
ElecMinimize: Iter:   7  F: -917.980660847359900  |grad|_K:  3.946e-06  alpha:  4.852e-01  linmin:  3.103e-05  t[s]:   1057.65
	FillingsUpdate:  mu: +0.276418774  nElectrons: 250.000000
	SubspaceRotationAdjust: set factor to 0.558
ElecMinimize: Iter:   8  F: -917.980895921185038  |grad|_K:  2.521e-06  alpha:  4.459e-01  linmin:  1.925e-05  t[s]:   1141.18
	FillingsUpdate:  mu: +0.276860206  nElectrons: 250.000000
	SubspaceRotationAdjust: set factor to 0.686
ElecMinimize: Iter:   9  F: -917.981002822092478  |grad|_K:  1.738e-06  alpha:  4.969e-01  linmin:  1.140e-05  t[s]:   1226.65
	FillingsUpdate:  mu: +0.276734982  nElectrons: 250.000000
	SubspaceRotationAdjust: set factor to 0.786
ElecMinimize: Iter:  10  F: -917.981046747394544  |grad|_K:  1.063e-06  alpha:  4.291e-01  linmin:  9.782e-07  t[s]:   1310.39
	FillingsUpdate:  mu: +0.276585394  nElectrons: 250.000000
	SubspaceRotationAdjust: set factor to 0.752
ElecMinimize: Iter:  11  F: -917.981062109901359  |grad|_K:  6.555e-07  alpha:  4.002e-01  linmin:  4.970e-07  t[s]:   1399.39
	FillingsUpdate:  mu: +0.276921246  nElectrons: 250.000000
	SubspaceRotationAdjust: set factor to 0.569
ElecMinimize: Iter:  12  F: -917.981066712993538  |grad|_K:  4.912e-07  alpha:  3.152e-01  linmin:  4.119e-07  t[s]:   1486.75
	FillingsUpdate:  mu: +0.276676182  nElectrons: 250.000000
	SubspaceRotationAdjust: set factor to 0.405
ElecMinimize: Iter:  13  F: -917.981068693029783  |grad|_K:  2.695e-07  alpha:  2.415e-01  linmin:  8.967e-07  t[s]:   1570.74
	FillingsUpdate:  mu: +0.276700365  nElectrons: 250.000000
	SubspaceRotationAdjust: set factor to 0.556
ElecMinimize: Iter:  14  F: -917.981069615251045  |grad|_K:  1.738e-07  alpha:  3.739e-01  linmin:  1.658e-06  t[s]:   1652.86
	FillingsUpdate:  mu: +0.276760224  nElectrons: 250.000000
	SubspaceRotationAdjust: set factor to 0.618
ElecMinimize: Iter:  15  F: -917.981070032092362  |grad|_K:  1.217e-07  alpha:  4.068e-01  linmin:  2.895e-06  t[s]:   1740.06
	FillingsUpdate:  mu: +0.276705659  nElectrons: 250.000000
	SubspaceRotationAdjust: set factor to 0.655
ElecMinimize: Iter:  16  F: -917.981070216893954  |grad|_K:  9.616e-08  alpha:  3.684e-01  linmin:  1.524e-06  t[s]:   1830.13
	FillingsUpdate:  mu: +0.276732808  nElectrons: 250.000000
	SubspaceRotationAdjust: set factor to 0.74
ElecMinimize: Iter:  17  F: -917.981070338756467  |grad|_K:  6.185e-08  alpha:  3.893e-01  linmin:  1.403e-06  t[s]:   1916.35
	FillingsUpdate:  mu: +0.276721540  nElectrons: 250.000000
	SubspaceRotationAdjust: set factor to 0.773
ElecMinimize: Iter:  18  F: -917.981070386675924  |grad|_K:  4.054e-08  alpha:  3.702e-01  linmin:  2.175e-07  t[s]:   1999.67
	FillingsUpdate:  mu: +0.276722129  nElectrons: 250.000000
	SubspaceRotationAdjust: set factor to 0.819
ElecMinimize: Iter:  19  F: -917.981070406543154  |grad|_K:  2.327e-08  alpha:  3.559e-01  linmin: -5.440e-08  t[s]:   2081.74
	FillingsUpdate:  mu: +0.276731401  nElectrons: 250.000000
	SubspaceRotationAdjust: set factor to 0.743
ElecMinimize: Iter:  20  F: -917.981070413912335  |grad|_K:  1.929e-08  alpha:  4.014e-01  linmin:  3.109e-07  t[s]:   2164.41
	FillingsUpdate:  mu: +0.276720858  nElectrons: 250.000000
	SubspaceRotationAdjust: set factor to 0.608
ElecMinimize: Iter:  21  F: -917.981070417137289  |grad|_K:  1.397e-08  alpha:  2.554e-01  linmin:  1.567e-07  t[s]:   2248.57
ElecMinimize: Converged (|Delta F|<1.000000e-08 for 2 iters).
Setting wave functions to eigenvectors of Hamiltonian

# Ionic positions in cartesian coordinates:
ion Mo  10.103931999999999   6.571614000000000   4.161042000000000 1
ion Mo  10.166262000000000  13.763904000000000   3.075524000000000 1
ion Mo   3.284637999999999   7.812847000000001  10.490653000000000 1
ion Mo   3.222308000000000   0.620633000000000  11.576156000000001 1
ion Mo  10.039289000000000   6.688465999999999  11.598290000000000 1
ion Mo  10.042704999999998  13.880641000000001  10.380945000000001 1
ion Mo   3.349085999999999   7.696097000000000   3.054672000000000 1
ion Mo   3.345670000000000   0.503781000000000   4.272016999999999 1
ion O  10.657951999999998   0.191967000000000   7.267408000000000 1
ion O   9.609979999999997   7.384917999999999  -0.029750000000000 1
ion O   2.728342000000000  -0.192672000000000   7.385379000000000 1
ion O   3.776327999999999   7.000267000000000  14.682539000000002 1
ion O  10.651424999999996   6.434950000000001   7.356265000000000 1
ion O   9.428429000000000  13.627017000000000  14.622577999999999 1
ion O   2.734810000000000   7.949721000000000   7.296305000000000 1
ion O   3.957805999999999   0.757296000000000   0.029977000000000 1
ion O  13.509780999999998   0.532973000000000   3.010172000000000 1
ion O   6.759240999999999   7.725833999999999   4.226639999999999 1
ion O  -0.122383000000000  13.850917999999998  11.641769999999999 1
ion O   6.628155999999999   6.659273999999999  10.425303000000000 1
ion O  -0.033086000000000   6.673994000000000   3.166741000000000 1
ion O   6.726798999999998  13.866864000000000   4.159759000000001 1
ion O  13.420417999999998   7.709874000000000  11.486031000000002 1
ion O   6.660532999999999   0.518253000000000  10.492997999999998 1
ion O   3.792549000000000   3.749145000000001   4.289947000000000 1
ion O   2.900309000000000  10.941133000000001   3.037641000000000 1
ion O   9.593928999999999  10.635604999999998  10.363913999999999 1
ion O  10.486169000000000   3.443087999999999  11.616220000000002 1
ion O   2.657636000000000   3.747103000000000  10.747038000000000 1
ion O   3.847951000000000  10.939527000000000  11.319940000000001 1
ion O  10.729575999999998  10.637211000000001   3.904809999999999 1

# Forces in Cartesian coordinates:
force Mo   0.011291903517666   0.055915746143794  -0.002456197830280 1
force Mo   0.002717830628301  -0.008146962945066   0.016487758174384 1
force Mo  -0.000839225121143  -0.011069750943561   0.010952125751259 1
force Mo   0.000545805197843  -0.012292171200399  -0.009990690054932 1
force Mo   0.000469772264075   0.012847577397530  -0.016265823464009 1
force Mo  -0.000116943534827   0.009797844704598   0.016665531870479 1
force Mo   0.001355666568494  -0.014518598740322   0.009598251046929 1
force Mo  -0.002737858703662  -0.016615677988437  -0.010203832508972 1
force O   0.002290024966818   0.008241689830097  -0.024505962754620 1
force O  -0.005299066716484  -0.006309966228269   0.029260494641844 1
force O  -0.002310264345057  -0.002732855293736   0.010964772431465 1
force O   0.002498332688525  -0.002954325406461  -0.012836938306224 1
force O  -0.002153537990131  -0.015999941381013  -0.003691877942542 1
force O  -0.003836368630345   0.005793467312925  -0.011838177543817 1
force O  -0.003001642269604   0.000414932799852  -0.016096831069969 1
force O   0.003250387949037   0.000950120465644   0.015773397235590 1
force O  -0.015320625821959   0.009804849667968  -0.002020908879537 1
force O   0.015636887763236  -0.018091329639787   0.001033704000336 1
force O  -0.002594228910661  -0.001180546752450   0.000923244564615 1
force O   0.003765579005481  -0.001646828586126  -0.001231812087262 1
force O  -0.022438639488211  -0.013913205332697   0.002916678641783 1
force O   0.014019705151372   0.010323841047242  -0.001893606436403 1
force O  -0.001743607247614   0.000920932563733   0.000692618619223 1
force O   0.000908931623182   0.001437915238723  -0.001043975915894 1
force O   0.002691448011061   0.016502020951737  -0.000246783403005 1
force O  -0.002609709200467   0.023055928988775   0.001798348127081 1
force O  -0.001690119383273  -0.015478357179732  -0.000130007216163 1
force O   0.002040733252746  -0.014810713153780  -0.001277559067833 1
force O  -0.002259215736711   0.012117302953274  -0.003695337160149 1
force O   0.002125542379082   0.011810849929302   0.003456409894940 1
force O   0.003320214315731  -0.024098584003609  -0.001087466421465 1

# Energy components:
   Eewald =     -581.1165386331462059
       EH =      288.0229263032738913
     Eloc =     -915.4009551571293741
      Enl =      153.8105511085069566
      Exc =     -160.4257926509832259
 Exc_core =       11.2602656515178854
       KE =      285.8770631377356040
-------------------------------------
     Etot =     -917.9724802402242858
       TS =        0.0085901769130280
-------------------------------------
        F =     -917.9810704171372890

IonicMinimize: Iter:   0  F: -917.981070417137289  |grad|_K:  1.167e-02  t[s]:   2264.18

#--- Lowdin population analysis ---
# oxidation-state Mo +0.806 +0.881 +0.951 +0.951 +0.939 +0.946 +0.921 +0.940
# oxidation-state O -0.271 -0.269 -0.253 -0.257 -0.201 -0.248 -0.256 -0.258 -0.351 -0.320 -0.349 -0.351 -0.318 -0.351 -0.346 -0.348 -0.280 -0.274 -0.271 -0.274 -0.278 -0.276 -0.216


-------- Electronic minimization -----------
	FillingsUpdate:  mu: +0.271081185  nElectrons: 250.000000
ElecMinimize: Iter:   0  F: -917.839191781588511  |grad|_K:  9.546e-05  alpha:  1.000e+00
	FillingsUpdate:  mu: +0.283755599  nElectrons: 250.000000
	SubspaceRotationAdjust: set factor to 0.67
ElecMinimize: Iter:   1  F: -917.954074499577587  |grad|_K:  5.385e-05  alpha:  3.737e-01  linmin:  2.534e-04  t[s]:   2416.93
	FillingsUpdate:  mu: +0.265364546  nElectrons: 250.000000
	SubspaceRotationAdjust: set factor to 0.511
ElecMinimize: Iter:   2  F: -917.981090650130682  |grad|_K:  2.524e-05  alpha:  2.738e-01  linmin:  2.641e-04  t[s]:   2500.07
	FillingsUpdate:  mu: +0.279294104  nElectrons: 250.000000
	SubspaceRotationAdjust: set factor to 0.437
ElecMinimize: Iter:   3  F: -917.986855624500322  |grad|_K:  1.541e-05  alpha:  2.675e-01  linmin: -1.744e-04  t[s]:   2587.87
	FillingsUpdate:  mu: +0.275802307  nElectrons: 250.000000
	SubspaceRotationAdjust: set factor to 0.638
ElecMinimize: Iter:   4  F: -917.990194567179287  |grad|_K:  7.409e-06  alpha:  4.114e-01  linmin:  8.386e-05  t[s]:   2672.81
	FillingsUpdate:  mu: +0.274220718  nElectrons: 250.000000
	SubspaceRotationAdjust: set factor to 0.737
ElecMinimize: Iter:   5  F: -917.991079194137455  |grad|_K:  4.900e-06  alpha:  4.758e-01  linmin:  2.790e-05  t[s]:   2756.81
	FillingsUpdate:  mu: +0.276771070  nElectrons: 250.000000
	SubspaceRotationAdjust: set factor to 0.541
ElecMinimize: Iter:   6  F: -917.991300697484462  |grad|_K:  3.337e-06  alpha:  2.723e-01  linmin:  1.934e-05  t[s]:   2842.35
	FillingsUpdate:  mu: +0.275289960  nElectrons: 250.000000
	SubspaceRotationAdjust: set factor to 0.39
ElecMinimize: Iter:   7  F: -917.991402234470911  |grad|_K:  1.532e-06  alpha:  2.684e-01  linmin: -4.116e-06  t[s]:   2926.02
	FillingsUpdate:  mu: +0.275548559  nElectrons: 250.000000
	SubspaceRotationAdjust: set factor to 0.499
ElecMinimize: Iter:   8  F: -917.991434042548235  |grad|_K:  8.433e-07  alpha:  3.987e-01  linmin:  4.436e-07  t[s]:   3014.86
	FillingsUpdate:  mu: +0.275723385  nElectrons: 250.000000
	SubspaceRotationAdjust: set factor to 0.576
ElecMinimize: Iter:   9  F: -917.991442766313298  |grad|_K:  4.366e-07  alpha:  3.607e-01  linmin: -3.429e-07  t[s]:   3099.40
	FillingsUpdate:  mu: +0.275560504  nElectrons: 250.000000
	SubspaceRotationAdjust: set factor to 0.634
ElecMinimize: Iter:  10  F: -917.991445046005651  |grad|_K:  2.732e-07  alpha:  3.516e-01  linmin: -7.082e-07  t[s]:   3179.67
	FillingsUpdate:  mu: +0.275661456  nElectrons: 250.000000
	SubspaceRotationAdjust: set factor to 0.656
ElecMinimize: Iter:  11  F: -917.991446127236372  |grad|_K:  1.910e-07  alpha:  4.260e-01  linmin:  5.379e-07  t[s]:   3265.88
	FillingsUpdate:  mu: +0.275585740  nElectrons: 250.000000
	SubspaceRotationAdjust: set factor to 0.543
ElecMinimize: Iter:  12  F: -917.991446547859596  |grad|_K:  1.158e-07  alpha:  3.393e-01  linmin:  1.508e-07  t[s]:   3352.65
	FillingsUpdate:  mu: +0.275637414  nElectrons: 250.000000
	SubspaceRotationAdjust: set factor to 0.407
ElecMinimize: Iter:  13  F: -917.991446687567077  |grad|_K:  6.274e-08  alpha:  3.064e-01  linmin:  1.346e-07  t[s]:   3439.31
	FillingsUpdate:  mu: +0.275617701  nElectrons: 250.000000
	SubspaceRotationAdjust: set factor to 0.363
ElecMinimize: Iter:  14  F: -917.991446735420482  |grad|_K:  2.992e-08  alpha:  3.576e-01  linmin:  2.531e-07  t[s]:   3527.61
	FillingsUpdate:  mu: +0.275619659  nElectrons: 250.000000
	SubspaceRotationAdjust: set factor to 0.38
ElecMinimize: Iter:  15  F: -917.991446747476630  |grad|_K:  1.726e-08  alpha:  3.965e-01  linmin: -4.096e-07  t[s]:   3619.54
	FillingsUpdate:  mu: +0.275620481  nElectrons: 250.000000
	SubspaceRotationAdjust: set factor to 0.398
ElecMinimize: Iter:  16  F: -917.991446750834939  |grad|_K:  8.804e-09  alpha:  3.313e-01  linmin:  1.021e-06  t[s]:   3711.33
	FillingsUpdate:  mu: +0.275619780  nElectrons: 250.000000
	SubspaceRotationAdjust: set factor to 0.441
ElecMinimize: Iter:  17  F: -917.991446751798549  |grad|_K:  4.682e-09  alpha:  3.670e-01  linmin: -1.688e-06  t[s]:   3795.93
ElecMinimize: Converged (|Delta F|<1.000000e-08 for 2 iters).
Setting wave functions to eigenvectors of Hamiltonian

# Ionic positions in cartesian coordinates:
ion Mo  10.115224622479518   6.627527320168964   4.158585494204015 1
ion Mo  10.168980549590152  13.755754611080102   3.092011450208679 1
ion Mo   3.283799493840711   7.801774823081608  10.501604817785555 1
ion Mo   3.222854524159697   0.608338402824770  11.566165001979366 1
ion Mo  10.039759491225929   6.701311151422699  11.582023868570287 1
ion Mo  10.042588775427026  13.890436418729768  10.397610223904774 1
ion Mo   3.350442385530348   7.681575975284848   3.064269943081224 1
ion Mo   3.342932860258193   0.487162896036732   4.261812859525323 1
ion O  10.660242743928670   0.200206263855266   7.242901729279676 1
ion O   9.604681652245368   7.378605607796900  -0.000489813323861 1
ion O   2.726032454616798  -0.195407281268567   7.396343464465761 1
ion O   3.778827051650379   6.997310248618708  14.669701753728072 1
ion O  10.649272180971719   6.418947632644156   7.352572814091753 1
ion O   9.424593350331509  13.632808041338095  14.610739514490477 1
ion O   2.731809076692250   7.950133506825023   7.280207860964326 1
ion O   3.961057106910891   0.758243694490813   0.045750089269885 1
ion O  13.494461093139895   0.542775423693137   3.008150783154758 1
ion O   6.774878606725090   7.707740244385382   4.227673396034631 1
ion O  -0.124976509948807  13.849735027272718  11.642692936598911 1
ion O   6.631922297967335   6.657624745439043  10.424070879947031 1
ion O  -0.055523920526356   6.660078368692472   3.169657370676078 1
ion O   6.740819424113225  13.877185415072409   4.157865085597892 1
ion O  13.418675111714238   7.710792506588903  11.486723310653520 1
ion O   6.661442650585036   0.519688489263893  10.491953716118401 1
ion O   3.795241166972916   3.765644594976907   4.289699908631289 1
ion O   2.897700009761388  10.964186503013945   3.039439040161376 1
ion O   9.592239599578580  10.620124216845436  10.363783684818131 1
ion O  10.488210452214599   3.428274860871389  11.614942132966464 1
ion O   2.655377503225143   3.759217876978443  10.743342354874144 1
ion O   3.850077261340937  10.951335423954470  11.323396101929236 1
ion O  10.732896933277585  10.613109990021561   3.903722225612830 1

# Forces in Cartesian coordinates:
force Mo   0.011428195398403   0.054494556922889  -0.004662325582196 1
force Mo   0.001554588185590  -0.009720698941359   0.006792388114834 1
force Mo  -0.000807292792934  -0.005036384492726   0.001509287794813 1
force Mo   0.000935184361912  -0.004931666045900  -0.001219019661734 1
force Mo  -0.001622781823850   0.005912713788548  -0.000794571930024 1
force Mo   0.000947356269408   0.005665547245076   0.003437695427594 1
force Mo  -0.000048676418043  -0.008221602556698   0.004258448202700 1
force Mo  -0.002350775321213  -0.007738760801566  -0.004987162926416 1
force O  -0.000317255857575   0.005197024710913  -0.011901925105817 1
force O  -0.002527766402309  -0.009464307226850   0.013298462438247 1
force O  -0.000908057343673  -0.001484613662497   0.003880443512931 1
force O   0.000659548278190  -0.000963786097117  -0.004261847045023 1
force O  -0.001523340032739  -0.014946183837774   0.000560819427109 1
force O  -0.002214486612406   0.005803268339521  -0.001799110561557 1
force O  -0.001178424532640  -0.000139670126013  -0.006238097109835 1
force O   0.001422271698929   0.000241122403002   0.005892916816664 1
force O  -0.013228763583960   0.009599248422039  -0.001062073660704 1
force O   0.006157428581484  -0.014211012402094   0.000014506379627 1
force O  -0.001856832982188  -0.001121951915149   0.000745963608741 1
force O   0.002272700364693  -0.001054246475646  -0.001302263876970 1
force O  -0.011447077252890  -0.010776426449575   0.000572246897773 1
force O   0.011582844522520   0.010159087854396  -0.001181585928257 1
force O  -0.000953241828786   0.001317463924905   0.000494142941827 1
force O   0.000653555521029   0.001358119141968  -0.001140436962376 1
force O   0.000773814265549   0.006433191770799  -0.001061574698162 1
force O  -0.000671529315876   0.011222583554181   0.002360513754181 1
force O  -0.000593066956974  -0.007441754567016   0.000447882929007 1
force O   0.000987576522883  -0.005838558400852  -0.002028668780741 1
force O  -0.001048934881630   0.005109181199964  -0.002197796864320 1
force O   0.001001600460745   0.005222487268149   0.002136912159857 1
force O   0.002867807930821  -0.024701582270868  -0.000600186043905 1

# Energy components:
   Eewald =     -581.7426560873667540
       EH =      287.4307946802035190
     Eloc =     -913.9895424439419003
      Enl =      153.7577142470057368
      Exc =     -160.3599538632257122
 Exc_core =       11.2602577251817735
       KE =      285.6604945023659639
-------------------------------------
     Etot =     -917.9828912397772456
       TS =        0.0085555120212768
-------------------------------------
        F =     -917.9914467517985486

IonicMinimize: Iter:   1  F: -917.991446751798549  |grad|_K:  8.277e-03  alpha:  1.000e+00  linmin: -9.099e-01  t[s]:   3811.48

#--- Lowdin population analysis ---
# oxidation-state Mo +0.823 +0.889 +0.951 +0.951 +0.939 +0.946 +0.924 +0.940
# oxidation-state O -0.283 -0.280 -0.254 -0.257 -0.207 -0.255 -0.263 -0.264 -0.345 -0.314 -0.343 -0.345 -0.313 -0.345 -0.340 -0.341 -0.288 -0.283 -0.277 -0.280 -0.282 -0.279 -0.216


-------- Electronic minimization -----------
	FillingsUpdate:  mu: +0.274798496  nElectrons: 250.000000
ElecMinimize: Iter:   0  F: -917.755867284361102  |grad|_K:  1.161e-04  alpha:  1.000e+00
	FillingsUpdate:  mu: +0.282295122  nElectrons: 250.000000
	SubspaceRotationAdjust: set factor to 0.536
ElecMinimize: Iter:   1  F: -917.926087832285361  |grad|_K:  6.635e-05  alpha:  3.739e-01  linmin:  4.808e-04  t[s]:   3963.01
	FillingsUpdate:  mu: +0.272418304  nElectrons: 250.000000
	SubspaceRotationAdjust: set factor to 0.573
ElecMinimize: Iter:   2  F: -917.976250455728177  |grad|_K:  2.938e-05  alpha:  3.384e-01  linmin:  3.674e-04  t[s]:   4050.08
	FillingsUpdate:  mu: +0.278843580  nElectrons: 250.000000
	SubspaceRotationAdjust: set factor to 0.716
ElecMinimize: Iter:   3  F: -917.993498997243250  |grad|_K:  2.068e-05  alpha:  5.842e-01  linmin: -5.368e-04  t[s]:   4132.83
	FillingsUpdate:  mu: +0.270509711  nElectrons: 250.000000
	SubspaceRotationAdjust: set factor to 0.629
ElecMinimize: Iter:   4  F: -917.998500100501246  |grad|_K:  1.442e-05  alpha:  3.309e-01  linmin: -7.729e-05  t[s]:   4223.36
	FillingsUpdate:  mu: +0.277259108  nElectrons: 250.000000
	SubspaceRotationAdjust: set factor to 0.387
ElecMinimize: Iter:   5  F: -918.000550520315073  |grad|_K:  7.851e-06  alpha:  2.894e-01  linmin: -1.116e-04  t[s]:   4312.21
	FillingsUpdate:  mu: +0.274961109  nElectrons: 250.000000
	SubspaceRotationAdjust: set factor to 0.32
ElecMinimize: Iter:   6  F: -918.001221504260229  |grad|_K:  3.931e-06  alpha:  3.184e-01  linmin: -8.222e-06  t[s]:   4404.31
	FillingsUpdate:  mu: +0.275048065  nElectrons: 250.000000
	SubspaceRotationAdjust: set factor to 0.394
ElecMinimize: Iter:   7  F: -918.001405340867450  |grad|_K:  2.039e-06  alpha:  3.498e-01  linmin:  1.881e-06  t[s]:   4486.03
	FillingsUpdate:  mu: +0.275572854  nElectrons: 250.000000
	SubspaceRotationAdjust: set factor to 0.441
ElecMinimize: Iter:   8  F: -918.001465158029873  |grad|_K:  1.037e-06  alpha:  4.231e-01  linmin:  1.161e-05  t[s]:   4569.33
	FillingsUpdate:  mu: +0.275399427  nElectrons: 250.000000
	SubspaceRotationAdjust: set factor to 0.574
ElecMinimize: Iter:   9  F: -918.001478681577964  |grad|_K:  6.552e-07  alpha:  3.699e-01  linmin: -2.304e-06  t[s]:   4654.23
	FillingsUpdate:  mu: +0.275421923  nElectrons: 250.000000
	SubspaceRotationAdjust: set factor to 0.768
ElecMinimize: Iter:  10  F: -918.001485290239088  |grad|_K:  4.474e-07  alpha:  4.527e-01  linmin:  1.314e-06  t[s]:   4742.44
	FillingsUpdate:  mu: +0.275442643  nElectrons: 250.000000
	SubspaceRotationAdjust: set factor to 0.857
ElecMinimize: Iter:  11  F: -918.001488800504603  |grad|_K:  2.819e-07  alpha:  5.158e-01  linmin:  1.108e-06  t[s]:   4832.26
	FillingsUpdate:  mu: +0.275378332  nElectrons: 250.000000
	SubspaceRotationAdjust: set factor to 0.753
ElecMinimize: Iter:  12  F: -918.001489803337790  |grad|_K:  1.946e-07  alpha:  3.711e-01  linmin:  6.846e-08  t[s]:   4919.80
	FillingsUpdate:  mu: +0.275460460  nElectrons: 250.000000
	SubspaceRotationAdjust: set factor to 0.49
ElecMinimize: Iter:  13  F: -918.001490091031656  |grad|_K:  1.268e-07  alpha:  2.233e-01  linmin: -6.050e-09  t[s]:   5010.95
	FillingsUpdate:  mu: +0.275421955  nElectrons: 250.000000
	SubspaceRotationAdjust: set factor to 0.418
ElecMinimize: Iter:  14  F: -918.001490250662073  |grad|_K:  6.881e-08  alpha:  2.918e-01  linmin:  5.515e-08  t[s]:   5099.53
	FillingsUpdate:  mu: +0.275414011  nElectrons: 250.000000
	SubspaceRotationAdjust: set factor to 0.502
ElecMinimize: Iter:  15  F: -918.001490311069688  |grad|_K:  4.319e-08  alpha:  3.750e-01  linmin: -7.789e-07  t[s]:   5188.36
	FillingsUpdate:  mu: +0.275428795  nElectrons: 250.000000
	SubspaceRotationAdjust: set factor to 0.517
ElecMinimize: Iter:  16  F: -918.001490333553306  |grad|_K:  2.629e-08  alpha:  3.543e-01  linmin: -6.359e-07  t[s]:   5277.24
	FillingsUpdate:  mu: +0.275424540  nElectrons: 250.000000
	SubspaceRotationAdjust: set factor to 0.624
ElecMinimize: Iter:  17  F: -918.001490343180876  |grad|_K:  1.842e-08  alpha:  4.095e-01  linmin:  2.055e-07  t[s]:   5365.22
	FillingsUpdate:  mu: +0.275424457  nElectrons: 250.000000
	SubspaceRotationAdjust: set factor to 0.79
ElecMinimize: Iter:  18  F: -918.001490347881941  |grad|_K:  1.245e-08  alpha:  4.088e-01  linmin: -1.509e-07  t[s]:   5452.63
ElecMinimize: Converged (|Delta F|<1.000000e-08 for 2 iters).
Setting wave functions to eigenvectors of Hamiltonian

# Ionic positions in cartesian coordinates:
ion Mo  10.135690197909605   6.725049357562503   4.150182373061936 1
ion Mo  10.171735754086381  13.738314119612614   3.103915268389356 1
ion Mo   3.282358260034994   7.792922697399923  10.504057525463525 1
ion Mo   3.224542195950213   0.599709069888360  11.564218306895409 1
ion Mo  10.036801816169625   6.711714972272740  11.581015348770464 1
ion Mo  10.044316202202799  13.900472358432802  10.403414428833726 1
ion Mo   3.350321000288135   7.667028673676360   3.071753424309126 1
ion Mo   3.338737929675000   0.473548651463140   4.253025790109775 1
ion O  10.659608527112722   0.209432402378535   7.221932452537682 1
ion O   9.600233333517245   7.361582038111926   0.022894407679892 1
ion O   2.724447305055061  -0.198028377855312   7.403103804710123 1
ion O   3.779961969966120   6.995641298305888  14.662302541556246 1
ion O  10.646565000261159   6.392222389894092   7.353692111467057 1
ion O   9.420675271860443  13.643200782798944  14.607788072882300 1
ion O   2.729751120753305   7.949872147386195   7.269304923663308 1
ion O   3.963557740425133   0.758659922089509   0.056038742291091 1
ion O  13.470837711348182   0.559958013964924   3.006277094555677 1
ion O   6.785652481009969   7.682406345444655   4.227674355832402 1
ion O  -0.128277858031659  13.847731503980741  11.644025764555275 1
ion O   6.635954296307140   6.655756642225995  10.421739804472564 1
ion O  -0.075720829873323   6.640873291283220   3.170621525737231 1
ion O   6.761493361992374  13.895371319940653   4.155770875928340 1
ion O  13.416992786901561   7.713165032654081  11.487604763854467 1
ion O   6.662608987186606   0.522121117799734  10.489911651681933 1
ion O   3.796578546042907   3.776896759400966   4.287779903573543 1
ion O   2.896552560162743  10.983965693069539   3.043681926070833 1
ion O   9.591210224877603  10.607019307132878  10.364602988120378 1
ion O  10.489953519848696   3.418064903023904  11.611292526353951 1
ion O   2.653535045382815   3.768181259860044  10.739449828025853 1
ion O   3.851843550565164  10.960512820904350  11.327188609772520 1
ion O  10.738021991011252  10.568876485896091   3.902662858844009 1

# Forces in Cartesian coordinates:
force Mo   0.010937167174047   0.051070051014146   0.001372041097980 1
force Mo   0.000903986783783  -0.009470421849330   0.001343867191159 1
force Mo  -0.000562702255505  -0.000920854435724  -0.001942295471919 1
force Mo   0.000714925668524  -0.000472388007036   0.001358955557790 1
force Mo  -0.001431942999672   0.000034659220495   0.001597517295595 1
force Mo   0.001056452651150   0.002392959153778  -0.003404520437339 1
force Mo  -0.000244701407082  -0.005034875303444   0.000872018446561 1
force Mo  -0.002375615238644  -0.002542896818757  -0.001412784018034 1
force O  -0.001502588919509   0.002583255844680  -0.005116167104017 1
force O  -0.001647448251154  -0.010172711483016   0.006846797772241 1
force O   0.000187927285334  -0.000560082011943  -0.001541975389080 1
force O  -0.000556267220028   0.000451942678749   0.001367391941939 1
force O  -0.001714383911122  -0.012753030063266  -0.000824058484407 1
force O  -0.001480377004926   0.004898397614976   0.003421425650526 1
force O  -0.000358338658516  -0.000304516294626  -0.001931113645112 1
force O   0.000499052211854  -0.000037039328648   0.001967571412149 1
force O  -0.010082168006069   0.008684725348521   0.000103524620164 1
force O  -0.004433120286664  -0.009192059073104  -0.000993467792736 1
force O  -0.000947195499413  -0.000813687549365   0.000574702635104 1
force O   0.000562040279890  -0.000342806820929  -0.000928133923544 1
force O   0.001175030359035  -0.007429643551782  -0.002732760729612 1
force O   0.008496941199228   0.009565702218847  -0.000575391987344 1
force O  -0.000358850975307   0.001485473762933   0.000578120338155 1
force O   0.000199605792395   0.001231230295025  -0.000998131400059 1
force O  -0.000769238818706   0.000227256920510  -0.001782600130681 1
force O   0.000744003798390   0.002864912009764   0.002827909709486 1
force O   0.000254867196577  -0.000876425532138   0.001210176986176 1
force O   0.000241172430048  -0.000775996180883  -0.001840065773328 1
force O  -0.000129225790534   0.000230100689520  -0.000948170303014 1
force O   0.000144859700722   0.000341227308431   0.000987338501212 1
force O   0.002368640185533  -0.023942344399272   0.000439066082823 1

# Energy components:
   Eewald =     -581.8803667888888640
       EH =      287.3437884138032814
     Eloc =     -913.6611870023662050
      Enl =      153.7335035607134159
      Exc =     -160.3280332753997470
 Exc_core =       11.2602526580201214
       KE =      285.5391504647466263
-------------------------------------
     Etot =     -917.9928919693713851
       TS =        0.0085983785105508
-------------------------------------
        F =     -918.0014903478819406

IonicMinimize: Iter:   2  F: -918.001490347881941  |grad|_K:  6.898e-03  alpha:  3.856e-01  linmin: -9.148e-01  t[s]:   5468.08

#--- Lowdin population analysis ---
# oxidation-state Mo +0.843 +0.899 +0.951 +0.951 +0.939 +0.945 +0.925 +0.939
# oxidation-state O -0.291 -0.286 -0.253 -0.255 -0.221 -0.257 -0.266 -0.267 -0.342 -0.311 -0.339 -0.341 -0.311 -0.340 -0.336 -0.337 -0.293 -0.291 -0.283 -0.285 -0.285 -0.284 -0.219


-------- Electronic minimization -----------
	FillingsUpdate:  mu: +0.276756476  nElectrons: 250.000000
ElecMinimize: Iter:   0  F: -917.797467517352175  |grad|_K:  1.172e-04  alpha:  1.000e+00
	FillingsUpdate:  mu: +0.280091795  nElectrons: 250.000000
	SubspaceRotationAdjust: set factor to 0.872
ElecMinimize: Iter:   1  F: -917.953578144813036  |grad|_K:  7.127e-05  alpha:  3.489e-01  linmin:  1.006e-03  t[s]:   5628.22
	FillingsUpdate:  mu: +0.257653021  nElectrons: 250.000000
	SubspaceRotationAdjust: set factor to 0.605
ElecMinimize: Iter:   2  F: -917.992486574597933  |grad|_K:  4.192e-05  alpha:  2.335e-01  linmin:  1.516e-04  t[s]:   5717.56
	FillingsUpdate:  mu: +0.277236960  nElectrons: 250.000000
	SubspaceRotationAdjust: set factor to 0.568
ElecMinimize: Iter:   3  F: -918.003574237323051  |grad|_K:  1.692e-05  alpha:  1.868e-01  linmin: -8.087e-05  t[s]:   5804.32
	FillingsUpdate:  mu: +0.276836748  nElectrons: 250.000000
	SubspaceRotationAdjust: set factor to 0.774
ElecMinimize: Iter:   4  F: -918.008073231915773  |grad|_K:  7.762e-06  alpha:  4.604e-01  linmin: -8.464e-05  t[s]:   5889.45
	FillingsUpdate:  mu: +0.273839381  nElectrons: 250.000000
	SubspaceRotationAdjust: set factor to 0.596
ElecMinimize: Iter:   5  F: -918.008799133408274  |grad|_K:  5.988e-06  alpha:  3.535e-01  linmin:  1.775e-06  t[s]:   5980.15
	FillingsUpdate:  mu: +0.276144010  nElectrons: 250.000000
	SubspaceRotationAdjust: set factor to 0.421
ElecMinimize: Iter:   6  F: -918.009084576896498  |grad|_K:  2.961e-06  alpha:  2.344e-01  linmin:  7.477e-08  t[s]:   6073.56
	FillingsUpdate:  mu: +0.275534799  nElectrons: 250.000000
	SubspaceRotationAdjust: set factor to 0.488
ElecMinimize: Iter:   7  F: -918.009198093813552  |grad|_K:  1.457e-06  alpha:  3.808e-01  linmin:  3.239e-06  t[s]:   6168.88
	FillingsUpdate:  mu: +0.275415234  nElectrons: 250.000000
	SubspaceRotationAdjust: set factor to 0.561
ElecMinimize: Iter:   8  F: -918.009224418109397  |grad|_K:  8.894e-07  alpha:  3.647e-01  linmin: -1.016e-06  t[s]:   6260.62
	FillingsUpdate:  mu: +0.275650783  nElectrons: 250.000000
	SubspaceRotationAdjust: set factor to 0.598
ElecMinimize: Iter:   9  F: -918.009233733723931  |grad|_K:  4.983e-07  alpha:  3.463e-01  linmin:  4.101e-06  t[s]:   6351.56
	FillingsUpdate:  mu: +0.275501851  nElectrons: 250.000000
	SubspaceRotationAdjust: set factor to 0.581
ElecMinimize: Iter:  10  F: -918.009236850086040  |grad|_K:  3.097e-07  alpha:  3.692e-01  linmin: -2.068e-06  t[s]:   6442.60
	FillingsUpdate:  mu: +0.275575449  nElectrons: 250.000000
	SubspaceRotationAdjust: set factor to 0.633
ElecMinimize: Iter:  11  F: -918.009238079463785  |grad|_K:  1.966e-07  alpha:  3.768e-01  linmin:  1.642e-06  t[s]:   6538.67
	FillingsUpdate:  mu: +0.275549362  nElectrons: 250.000000
	SubspaceRotationAdjust: set factor to 0.702
ElecMinimize: Iter:  12  F: -918.009238559743380  |grad|_K:  1.116e-07  alpha:  3.657e-01  linmin:  4.992e-07  t[s]:   6633.37
	FillingsUpdate:  mu: +0.275552477  nElectrons: 250.000000
	SubspaceRotationAdjust: set factor to 0.642
ElecMinimize: Iter:  13  F: -918.009238710872751  |grad|_K:  5.789e-08  alpha:  3.571e-01  linmin:  3.465e-07  t[s]:   6727.09
	FillingsUpdate:  mu: +0.275555608  nElectrons: 250.000000
	SubspaceRotationAdjust: set factor to 0.508
ElecMinimize: Iter:  14  F: -918.009238749678730  |grad|_K:  2.890e-08  alpha:  3.408e-01  linmin:  3.166e-08  t[s]:   6819.97
	FillingsUpdate:  mu: +0.275551919  nElectrons: 250.000000
	SubspaceRotationAdjust: set factor to 0.506
ElecMinimize: Iter:  15  F: -918.009238759486379  |grad|_K:  1.624e-08  alpha:  3.445e-01  linmin: -1.518e-06  t[s]:   6911.60
	FillingsUpdate:  mu: +0.275554714  nElectrons: 250.000000
	SubspaceRotationAdjust: set factor to 0.487
ElecMinimize: Iter:  16  F: -918.009238762671885  |grad|_K:  8.296e-09  alpha:  3.548e-01  linmin:  1.777e-07  t[s]:   7008.34
ElecMinimize: Converged (|Delta F|<1.000000e-08 for 2 iters).
Setting wave functions to eigenvectors of Hamiltonian

# Ionic positions in cartesian coordinates:
ion Mo  10.156438054773115   6.822831021403827   4.153058594888162 1
ion Mo  10.173997667719489  13.720938619402647   3.110983421945757 1
ion Mo   3.281258374142414   7.788265753115362  10.504581256265405 1
ion Mo   3.225768816656275   0.595326908690395  11.562963295218317 1
ion Mo  10.034923200443730   6.715189957131109  11.577506108747080 1
ion Mo  10.045881654829522  13.907008469263854  10.403058421507390 1
ion Mo   3.350454715040926   7.654557691143166   3.075939103573097 1
ion Mo   3.334082821880121   0.464545169408263   4.247855841932294 1
ion O  10.657948919972853   0.215818177399790   7.206396741462062 1
ion O   9.595894852970364   7.343617580895034   0.043055391223024 1
ion O   2.724124847650983  -0.199720980843260   7.403632777970836 1
ion O   3.779787858306223   6.995515057141213  14.660825209095064 1
ion O  10.643082558278619   6.367348450397341   7.350548494311481 1
ion O   9.417136663504273  13.652556850206880  14.609653851890542 1
ion O   2.728249949946350   7.949511556538839   7.261186449794432 1
ion O   3.965350540707754   0.758881339924066   0.064206388873249 1
ion O  13.450539925784229   0.576584813731701   3.005967197611644 1
ion O   6.782211647277021   7.662842063371923   4.226315269567781 1
ion O  -0.130463507921776  13.846106221480882  11.645211381253546 1
ion O   6.637812310500674   6.654765201926266  10.419974407374621 1
ion O  -0.079275349231693   6.625129035870912   3.166742154334485 1
ion O   6.778930236001229  13.913619072848261   4.154331969386376 1
ion O  13.415934468458328   7.715778023612832  11.488778860830202 1
ion O   6.663144863356404   0.524476435758563  10.488048248053596 1
ion O   3.796066683048036   3.782046523106279   4.284810845531281 1
ion O   2.897033464271549  10.995061153633941   3.048774011713375 1
ion O   9.591164790009465  10.601375930641128  10.366589323169082 1
ion O  10.490923376770965   3.412388110182645  11.608093658015102 1
ion O   2.652707484140098   3.771952561555581  10.736917057970292 1
ion O   3.852671031011525  10.964324335211009  11.329723772901243 1
ion O  10.742757079700894  10.523601895849549   3.903194493589187 1

# Forces in Cartesian coordinates:
force Mo   0.008674972488300   0.044027945134009   0.000967635071145 1
force Mo   0.000277818475776  -0.007734743984974  -0.001043158517772 1
force Mo  -0.000648659819788   0.000927799058443  -0.004190424421354 1
force Mo   0.000795446207652   0.001446752219125   0.003736323250170 1
force Mo  -0.001784447077491  -0.002358062727279   0.005407902746118 1
force Mo   0.001041698715353   0.001304019804577  -0.006261667535120 1
force Mo  -0.000260018596947  -0.003088729782063  -0.000595910196271 1
force Mo  -0.002103154766869   0.000168712263172  -0.001190553846544 1
force O  -0.001842492381338   0.000505856605584  -0.001522485336795 1
force O  -0.000521798352102  -0.010589845341859   0.000861570826661 1
force O   0.000543581943823  -0.000330715603701  -0.002958941655827 1
force O  -0.000768807609830   0.000927607183181   0.002431448427767 1
force O  -0.001253928430850  -0.010341497791909   0.000989679349718 1
force O  -0.001108287339042   0.003704404866104   0.005168294174666 1
force O   0.000034120783447  -0.000377826605049   0.001452299590421 1
force O  -0.000231562478072  -0.000256510783600  -0.001179265964286 1
force O  -0.007767580887154   0.007391466344928   0.000881215873946 1
force O  -0.008474741525177  -0.006080829753053  -0.000730297562542 1
force O  -0.000412362558772  -0.000549748817216   0.000297648336953 1
force O  -0.000151808158036   0.000039229353381  -0.000682129577309 1
force O   0.006791197689718  -0.005889630151618  -0.004342420816789 1
force O   0.006557693592345   0.008604041857243  -0.000186470031961 1
force O  -0.000463307263739   0.001370438455781   0.000461164172132 1
force O  -0.000045043067651   0.001055822022257  -0.000914012289267 1
force O  -0.001669513905313  -0.002868479958427  -0.002043769718850 1
force O   0.001493769090032  -0.001536642511599   0.003075106892464 1
force O   0.000613939206730   0.002093842112425   0.001587306333135 1
force O  -0.000040230022105   0.001085785042553  -0.001805534090369 1
force O   0.000257012027364  -0.001957820708408  -0.000350017210810 1
force O  -0.000236481189947  -0.001854302385962   0.000351730152076 1
force O   0.002570009439420  -0.018599670395392   0.002215382282662 1

# Energy components:
   Eewald =     -581.6865947974978326
       EH =      287.5808506315894988
     Eloc =     -914.0609433355759847
      Enl =      153.7282886302471070
      Exc =     -160.3225377616572587
 Exc_core =       11.2602527093811879
       KE =      285.5003135136132641
-------------------------------------
     Etot =     -918.0003704099001425
       TS =        0.0088683527716936
-------------------------------------
        F =     -918.0092387626718846

IonicMinimize: Iter:   3  F: -918.009238762671885  |grad|_K:  6.002e-03  alpha:  1.757e-01  linmin: -8.956e-01  t[s]:   7024.18

#--- Lowdin population analysis ---
# oxidation-state Mo +0.862 +0.908 +0.951 +0.950 +0.939 +0.944 +0.927 +0.937
# oxidation-state O -0.295 -0.293 -0.252 -0.254 -0.231 -0.257 -0.268 -0.269 -0.340 -0.311 -0.337 -0.338 -0.312 -0.337 -0.334 -0.335 -0.296 -0.299 -0.286 -0.286 -0.286 -0.285 -0.219


-------- Electronic minimization -----------
	FillingsUpdate:  mu: +0.278639098  nElectrons: 250.000000
ElecMinimize: Iter:   0  F: -917.814850022623432  |grad|_K:  1.048e-04  alpha:  1.000e+00
	FillingsUpdate:  mu: +0.279581414  nElectrons: 250.000000
	SubspaceRotationAdjust: set factor to 0.642
ElecMinimize: Iter:   1  F: -917.952720043486124  |grad|_K:  6.027e-05  alpha:  3.717e-01  linmin:  4.679e-04  t[s]:   7177.70
	FillingsUpdate:  mu: +0.273003366  nElectrons: 250.000000
	SubspaceRotationAdjust: set factor to 0.661
ElecMinimize: Iter:   2  F: -917.995340629043767  |grad|_K:  2.776e-05  alpha:  3.493e-01  linmin:  2.266e-04  t[s]:   7262.51
	FillingsUpdate:  mu: +0.278733882  nElectrons: 250.000000
	SubspaceRotationAdjust: set factor to 0.729
ElecMinimize: Iter:   3  F: -918.009682704047918  |grad|_K:  1.897e-05  alpha:  5.420e-01  linmin: -7.304e-04  t[s]:   7344.28
	FillingsUpdate:  mu: +0.272442997  nElectrons: 250.000000
	SubspaceRotationAdjust: set factor to 0.533
ElecMinimize: Iter:   4  F: -918.013104276644867  |grad|_K:  1.194e-05  alpha:  2.679e-01  linmin: -7.748e-05  t[s]:   7431.55
	FillingsUpdate:  mu: +0.276342011  nElectrons: 250.000000
	SubspaceRotationAdjust: set factor to 0.343
ElecMinimize: Iter:   5  F: -918.014585272424029  |grad|_K:  5.902e-06  alpha:  3.041e-01  linmin: -9.455e-05  t[s]:   7518.70
	FillingsUpdate:  mu: +0.275615542  nElectrons: 250.000000
	SubspaceRotationAdjust: set factor to 0.378
ElecMinimize: Iter:   6  F: -918.015015908395981  |grad|_K:  3.020e-06  alpha:  3.622e-01  linmin: -6.428e-06  t[s]:   7605.91
	FillingsUpdate:  mu: +0.275401842  nElectrons: 250.000000
	SubspaceRotationAdjust: set factor to 0.41
ElecMinimize: Iter:   7  F: -918.015120967840971  |grad|_K:  1.550e-06  alpha:  3.387e-01  linmin: -1.987e-06  t[s]:   7692.11
	FillingsUpdate:  mu: +0.275720609  nElectrons: 250.000000
	SubspaceRotationAdjust: set factor to 0.449
ElecMinimize: Iter:   8  F: -918.015155230643472  |grad|_K:  7.928e-07  alpha:  4.195e-01  linmin:  1.244e-05  t[s]:   7783.14
	FillingsUpdate:  mu: +0.275564402  nElectrons: 250.000000
	SubspaceRotationAdjust: set factor to 0.576
ElecMinimize: Iter:   9  F: -918.015163279078592  |grad|_K:  4.915e-07  alpha:  3.767e-01  linmin:  6.251e-08  t[s]:   7872.11
	FillingsUpdate:  mu: +0.275584257  nElectrons: 250.000000
	SubspaceRotationAdjust: set factor to 0.77
ElecMinimize: Iter:  10  F: -918.015167109348909  |grad|_K:  3.477e-07  alpha:  4.664e-01  linmin:  1.158e-06  t[s]:   7959.73
	FillingsUpdate:  mu: +0.275632431  nElectrons: 250.000000
	SubspaceRotationAdjust: set factor to 0.815
ElecMinimize: Iter:  11  F: -918.015169113637739  |grad|_K:  2.330e-07  alpha:  4.877e-01  linmin:  1.095e-06  t[s]:   8045.56
	FillingsUpdate:  mu: +0.275552626  nElectrons: 250.000000
	SubspaceRotationAdjust: set factor to 0.595
ElecMinimize: Iter:  12  F: -918.015169637174949  |grad|_K:  1.683e-07  alpha:  2.837e-01  linmin:  1.002e-07  t[s]:   8135.78
	FillingsUpdate:  mu: +0.275604926  nElectrons: 250.000000
	SubspaceRotationAdjust: set factor to 0.399
ElecMinimize: Iter:  13  F: -918.015169877423318  |grad|_K:  8.383e-08  alpha:  2.493e-01  linmin: -2.573e-07  t[s]:   8225.69
	FillingsUpdate:  mu: +0.275598765  nElectrons: 250.000000
	SubspaceRotationAdjust: set factor to 0.413
ElecMinimize: Iter:  14  F: -918.015169963669678  |grad|_K:  4.839e-08  alpha:  3.608e-01  linmin: -1.673e-06  t[s]:   8310.84
	FillingsUpdate:  mu: +0.275590020  nElectrons: 250.000000
	SubspaceRotationAdjust: set factor to 0.455
ElecMinimize: Iter:  15  F: -918.015169993427207  |grad|_K:  2.916e-08  alpha:  3.737e-01  linmin:  2.535e-08  t[s]:   8402.48
	FillingsUpdate:  mu: +0.275595392  nElectrons: 250.000000
	SubspaceRotationAdjust: set factor to 0.515
ElecMinimize: Iter:  16  F: -918.015170004657080  |grad|_K:  1.734e-08  alpha:  3.880e-01  linmin:  4.420e-07  t[s]:   8494.71
	FillingsUpdate:  mu: +0.275595288  nElectrons: 250.000000
	SubspaceRotationAdjust: set factor to 0.655
ElecMinimize: Iter:  17  F: -918.015170009168173  |grad|_K:  1.209e-08  alpha:  4.426e-01  linmin: -9.322e-07  t[s]:   8580.53
	FillingsUpdate:  mu: +0.275594254  nElectrons: 250.000000
	SubspaceRotationAdjust: set factor to 0.813
ElecMinimize: Iter:  18  F: -918.015170011258078  |grad|_K:  8.441e-09  alpha:  4.207e-01  linmin: -1.383e-06  t[s]:   8662.19
ElecMinimize: Converged (|Delta F|<1.000000e-08 for 2 iters).
Setting wave functions to eigenvectors of Hamiltonian

# Ionic positions in cartesian coordinates:
ion Mo  10.173704750346225   6.921327025135986   4.152427347883979 1
ion Mo  10.175081996959248  13.706526448787534   3.117009207590047 1
ion Mo   3.279314531514943   7.785357355841332  10.501489696442341 1
ion Mo   3.227668401845817   0.592327156593675  11.566453332312195 1
ion Mo  10.031736587870315   6.715692687637113  11.581595204072125 1
ion Mo  10.047336736410728  13.914403173147107  10.399749009164626 1
ion Mo   3.351259197834279   7.642413963401885   3.079199767487633 1
ion Mo   3.329103891367611   0.457937721390917   4.237896751187934 1
ion O  10.656114003087129   0.217925049888867   7.192655368061569 1
ion O   9.593486771239547   7.320380843240765   0.053656473579594 1
ion O   2.724024304915020  -0.201940546388547   7.404300848388471 1
ion O   3.780118923407741   6.995785412875146  14.656673036411144 1
ion O  10.640423687554549   6.343949239269490   7.353351154786343 1
ion O   9.413074965821203  13.660044743641727  14.612391557680546 1
ion O   2.726772727874417   7.949088263719224   7.258694570961112 1
ion O   3.965813319180851   0.758709447063605   0.067566766434988 1
ion O  13.431614816068347   0.593125630971465   3.007841935520935 1
ion O   6.770449128426971   7.646496000562645   4.226703454989383 1
ion O  -0.131813266836196  13.844974150996492  11.645720546622615 1
ion O   6.638751308538043   6.654504326570186  10.418566232970027 1
ion O  -0.071563151038422   6.608225195809897   3.157692856713485 1
ion O   6.795891386209947  13.933477418702806   4.153501935417725 1
ion O  13.413446740315846   7.718425787779334  11.489823196926292 1
ion O   6.663154615008301   0.526900419407892  10.485961725456059 1
ion O   3.793221294284323   3.783170573315012   4.280609359602128 1
ion O   2.899260272040080  11.000217308307654   3.055907064822423 1
ion O   9.591707431044915  10.599771140487752  10.370094786373468 1
ion O  10.491835698928336   3.406451110552601  11.604313632379263 1
ion O   2.652268841181403   3.773168888580056  10.734876532123085 1
ion O   3.853062464945963  10.965387216085519  11.331472771761517 1
ion O  10.750217623652484  10.488019846624855   3.910727875876954 1

# Forces in Cartesian coordinates:
force Mo   0.007429760838171   0.029932586984207   0.006497473408449 1
force Mo  -0.000602593991869  -0.002862625812431  -0.003371472456727 1
force Mo  -0.000429336197857   0.001623688089560  -0.003114507369335 1
force Mo   0.000107019520050   0.002494734006808   0.001604811865591 1
force Mo  -0.000754222319101  -0.004915399035080   0.002102399107024 1
force Mo   0.000995425352429   0.000209224510014  -0.007489191961950 1
force Mo  -0.000490720547301  -0.001828577787563  -0.004020094668225 1
force Mo  -0.002421960099461   0.001021627817355   0.002511127641220 1
force O  -0.001839880730193  -0.001034885346635   0.000820174512189 1
force O  -0.000571110938915  -0.009258278354236   0.002025482968664 1
force O   0.001273170146331   0.000265993862319  -0.006354710868265 1
force O  -0.000819585260322   0.001383311919329   0.004054742854786 1
force O  -0.001658190133390  -0.006528204725258  -0.004213541064079 1
force O  -0.000694675501416   0.002364711766453   0.006072261811078 1
force O  -0.000139025197912  -0.000329102086124   0.001705205551904 1
force O  -0.000267379676275  -0.000325622253074  -0.000492755766341 1
force O  -0.005472917590205   0.006184483348196   0.001179262337782 1
force O  -0.007806378502338  -0.003967605471548  -0.000140341405843 1
force O   0.000067333615343  -0.000282436420143   0.000200177438861 1
force O  -0.000426513849366   0.000297545550317  -0.000348839272598 1
force O   0.006788210154774  -0.004922825331979  -0.004586731436815 1
force O   0.004504891224272   0.007543776225467   0.000047362261646 1
force O  -0.000861309398588   0.001136156968756   0.000538791160988 1
force O  -0.000229722969534   0.000927862767177  -0.000756387863724 1
force O  -0.002028430805693  -0.004194228058721  -0.002322827071261 1
force O   0.001927624903481  -0.004216051363886   0.003061967951605 1
force O   0.000755041359321   0.003897207056201   0.002034101064813 1
force O  -0.000314715542809   0.002326272264175  -0.001475092858544 1
force O   0.000526622915326  -0.003325201325309   0.000214044565663 1
force O  -0.000466702938927  -0.002833961836891  -0.000024321271867 1
force O   0.003756217032388  -0.010382311330812   0.003933347065628 1

# Energy components:
   Eewald =     -581.3693599209556169
       EH =      287.9278590963773468
     Eloc =     -914.7232155294525455
      Enl =      153.7297803289372951
      Exc =     -160.3273215680387409
 Exc_core =       11.2602543107963715
       KE =      285.4961362012182917
-------------------------------------
     Etot =     -918.0058670811175716
       TS =        0.0093029301405136
-------------------------------------
        F =     -918.0151700112580784

IonicMinimize: Iter:   4  F: -918.015170011258078  |grad|_K:  4.616e-03  alpha:  1.920e-01  linmin: -8.366e-01  t[s]:   8678.14

#--- Lowdin population analysis ---
# oxidation-state Mo +0.878 +0.914 +0.951 +0.951 +0.940 +0.943 +0.928 +0.934
# oxidation-state O -0.297 -0.294 -0.252 -0.255 -0.245 -0.257 -0.267 -0.269 -0.338 -0.313 -0.336 -0.336 -0.317 -0.335 -0.333 -0.333 -0.297 -0.305 -0.289 -0.287 -0.287 -0.287 -0.215


-------- Electronic minimization -----------
	FillingsUpdate:  mu: +0.276658076  nElectrons: 250.000000
ElecMinimize: Iter:   0  F: -917.803222866971396  |grad|_K:  1.166e-04  alpha:  1.000e+00
	FillingsUpdate:  mu: +0.281559077  nElectrons: 250.000000
	SubspaceRotationAdjust: set factor to 0.956
ElecMinimize: Iter:   1  F: -917.965846553449296  |grad|_K:  6.658e-05  alpha:  3.574e-01  linmin:  4.414e-04  t[s]:   8829.58
	FillingsUpdate:  mu: +0.263984379  nElectrons: 250.000000
	SubspaceRotationAdjust: set factor to 0.684
ElecMinimize: Iter:   2  F: -918.006448832282786  |grad|_K:  3.572e-05  alpha:  2.736e-01  linmin:  6.613e-05  t[s]:   8913.40
	FillingsUpdate:  mu: +0.278726115  nElectrons: 250.000000
	SubspaceRotationAdjust: set factor to 0.463
ElecMinimize: Iter:   3  F: -918.013808429590540  |grad|_K:  1.747e-05  alpha:  1.699e-01  linmin:  1.344e-05  t[s]:   9000.58
	FillingsUpdate:  mu: +0.277752864  nElectrons: 250.000000
	SubspaceRotationAdjust: set factor to 0.643
ElecMinimize: Iter:   4  F: -918.017955395173203  |grad|_K:  7.755e-06  alpha:  4.000e-01  linmin:  4.922e-05  t[s]:   9083.35
	FillingsUpdate:  mu: +0.275458901  nElectrons: 250.000000
	SubspaceRotationAdjust: set factor to 0.565
ElecMinimize: Iter:   5  F: -918.018673411465102  |grad|_K:  4.609e-06  alpha:  3.515e-01  linmin:  1.629e-05  t[s]:   9167.27
	FillingsUpdate:  mu: +0.276964844  nElectrons: 250.000000
	SubspaceRotationAdjust: set factor to 0.473
ElecMinimize: Iter:   6  F: -918.018901374473330  |grad|_K:  2.607e-06  alpha:  3.158e-01  linmin: -7.152e-06  t[s]:   9252.82
	FillingsUpdate:  mu: +0.276480296  nElectrons: 250.000000
	SubspaceRotationAdjust: set factor to 0.426
ElecMinimize: Iter:   7  F: -918.018981036091873  |grad|_K:  1.407e-06  alpha:  3.447e-01  linmin: -1.981e-06  t[s]:   9340.54
	FillingsUpdate:  mu: +0.276411105  nElectrons: 250.000000
	SubspaceRotationAdjust: set factor to 0.464
ElecMinimize: Iter:   8  F: -918.019007014679801  |grad|_K:  8.271e-07  alpha:  3.858e-01  linmin: -4.466e-06  t[s]:   9425.88
	FillingsUpdate:  mu: +0.276559653  nElectrons: 250.000000
	SubspaceRotationAdjust: set factor to 0.558
ElecMinimize: Iter:   9  F: -918.019016287037175  |grad|_K:  4.647e-07  alpha:  3.986e-01  linmin:  3.802e-06  t[s]:   9515.42
	FillingsUpdate:  mu: +0.276480892  nElectrons: 250.000000
	SubspaceRotationAdjust: set factor to 0.565
ElecMinimize: Iter:  10  F: -918.019018883468789  |grad|_K:  2.957e-07  alpha:  3.537e-01  linmin:  1.334e-07  t[s]:   9605.16
	FillingsUpdate:  mu: +0.276502267  nElectrons: 250.000000
	SubspaceRotationAdjust: set factor to 0.606
ElecMinimize: Iter:  11  F: -918.019020066103280  |grad|_K:  1.875e-07  alpha:  3.979e-01  linmin:  1.367e-06  t[s]:   9695.46
	FillingsUpdate:  mu: +0.276507736  nElectrons: 250.000000
	SubspaceRotationAdjust: set factor to 0.65
ElecMinimize: Iter:  12  F: -918.019020543822990  |grad|_K:  1.054e-07  alpha:  3.996e-01  linmin:  2.569e-07  t[s]:   9782.71
	FillingsUpdate:  mu: +0.276492808  nElectrons: 250.000000
	SubspaceRotationAdjust: set factor to 0.675
ElecMinimize: Iter:  13  F: -918.019020681342226  |grad|_K:  6.140e-08  alpha:  3.638e-01  linmin: -4.954e-07  t[s]:   9867.51
	FillingsUpdate:  mu: +0.276505555  nElectrons: 250.000000
	SubspaceRotationAdjust: set factor to 0.511
ElecMinimize: Iter:  14  F: -918.019020717712237  |grad|_K:  3.334e-08  alpha:  2.836e-01  linmin:  4.405e-07  t[s]:   9955.50
	FillingsUpdate:  mu: +0.276499649  nElectrons: 250.000000
	SubspaceRotationAdjust: set factor to 0.385
ElecMinimize: Iter:  15  F: -918.019020729189037  |grad|_K:  1.822e-08  alpha:  3.034e-01  linmin: -1.377e-06  t[s]:  10044.34
	FillingsUpdate:  mu: +0.276501121  nElectrons: 250.000000
	SubspaceRotationAdjust: set factor to 0.462
ElecMinimize: Iter:  16  F: -918.019020733338948  |grad|_K:  1.025e-08  alpha:  3.656e-01  linmin: -1.181e-05  t[s]:  10131.61
	FillingsUpdate:  mu: +0.276501891  nElectrons: 250.000000
	SubspaceRotationAdjust: set factor to 0.474
ElecMinimize: Iter:  17  F: -918.019020734519472  |grad|_K:  5.605e-09  alpha:  3.268e-01  linmin: -3.919e-06  t[s]:  10220.26
ElecMinimize: Converged (|Delta F|<1.000000e-08 for 2 iters).
Setting wave functions to eigenvectors of Hamiltonian

# Ionic positions in cartesian coordinates:
ion Mo  10.196981563427222   7.016329183240010   4.173230711274797 1
ion Mo  10.173226549875444  13.703533516859686   3.116027926140593 1
ion Mo   3.277362844436785   7.783272079883706  10.500980320885811 1
ion Mo   3.227675609657579   0.592041294751198  11.562783782746367 1
ion Mo  10.030847735875520   6.706677994501812  11.575133185510808 1
ion Mo  10.049781710442637  13.921217101610708  10.388914781247355 1
ion Mo   3.350934822277056   7.629161793956881   3.069433371881634 1
ion Mo   3.320056009360208   0.450904412868585   4.239943607586228 1
ion O  10.652977085212731   0.216066992263674   7.181555854167860 1
ion O   9.589346420950399   7.290354587757009   0.076391827049001 1
ion O   2.726950380577552  -0.202707992867104   7.390613366313757 1
ion O   3.780236477579874   6.998062145672384  14.658233289085718 1
ion O  10.634475180232734   6.322460207217970   7.335089809360263 1
ion O   9.408815373448052  13.667033402424535  14.621269197245006 1
ion O   2.723878667513858   7.948531540496794   7.255290571999065 1
ion O   3.966649200074678   0.758140253763041   0.076030139429211 1
ion O  13.410467896175502   0.614416401603108   3.011189852817119 1
ion O   6.759336135562911   7.627728452080741   4.229507887062087 1
ion O  -0.132294577608294  13.844056710041496  11.646335121385246 1
ion O   6.639652771458191   6.654836762437880  10.417482859438026 1
ion O  -0.065342187292975   6.585472461683649   3.144723371271336 1
ion O   6.814569000945217  13.959993675248779   4.152966920923781 1
ion O  13.408184907080312   7.721617346621984  11.491753349273287 1
ion O   6.662661538491842   0.530177867474121  10.483316871640554 1
ion O   3.787978369997908   3.780007421776361   4.273186102445724 1
ion O   2.904115215203388  10.998541288823766   3.066470139677222 1
ion O   9.592963589566446  10.603388936606899  10.376960957526487 1
ion O  10.492103832631749   3.403125129001591  11.599617369061267 1
ion O   2.652601698437680   3.769885263490980  10.733865543645026 1
ion O   3.852849434668959  10.963770440099660  11.332951519604682 1
ion O  10.766496743738790  10.464146328608091   3.927674392304683 1

# Forces in Cartesian coordinates:
force Mo   0.001300223556607   0.011942515592768  -0.005046119853553 1
force Mo  -0.000917700628613   0.001487715054004  -0.002447404658442 1
force Mo  -0.000699894517663   0.002125113418659  -0.005046834520235 1
force Mo   0.001405945066663   0.001209595328228   0.007308022863829 1
force Mo  -0.002319295608472  -0.002114117179021   0.010504364099226 1
force Mo   0.000323372871630  -0.001011839029468  -0.005659873196165 1
force Mo  -0.000378463919308  -0.000672313253784   0.000831799137219 1
force Mo  -0.000334202733454   0.002992843925858  -0.005444596044249 1
force O  -0.001133804118268  -0.001561540337051   0.001630215636880 1
force O   0.000921351446955  -0.009036608244760  -0.005133752100575 1
force O  -0.000031013716515  -0.001095436443364   0.000841401705857 1
force O   0.000209954970880   0.000496243955535  -0.001383632614241 1
force O   0.000255008385592  -0.005384061114587   0.005447166545165 1
force O  -0.000831713535118   0.001043170641632   0.002544002635146 1
force O  -0.000132204720298  -0.000517183112329   0.004303297665944 1
force O  -0.001244675622076  -0.000742607954253  -0.005528775291779 1
force O  -0.002197748532328   0.005168708579679   0.001620943349332 1
force O  -0.005628309959828  -0.002402717037931   0.000429672679042 1
force O   0.000166312002077   0.000013355651906  -0.000436046766737 1
force O  -0.000349967495203   0.000295635903991  -0.000362624898696 1
force O   0.005855255012449  -0.003965746289060  -0.004191188614173 1
force O   0.001357799469813   0.006381939682314   0.000899790761798 1
force O  -0.000965027795888   0.000611444333969  -0.000016965687463 1
force O  -0.000194200916095   0.000750334412538  -0.000914105991557 1
force O  -0.002319643643172  -0.003929247355305  -0.002019420940577 1
force O   0.001880180059780  -0.005357698229387   0.002662994934393 1
force O   0.000718125318137   0.003989204935499   0.001766858912762 1
force O   0.000056214671803   0.000741854077776  -0.002148357003410 1
force O   0.000147238948064  -0.001963900381259  -0.000199609635637 1
force O  -0.000595638586699  -0.002992093915844  -0.000337920000161 1
force O   0.005541873253097   0.003737649974450   0.005397067173809 1

# Energy components:
   Eewald =     -580.9361328760506922
       EH =      288.3670761852197302
     Eloc =     -915.6511384107162712
      Enl =      153.7476280540590778
      Exc =     -160.3511499137978547
 Exc_core =       11.2602563467548826
       KE =      285.5541842362457032
-------------------------------------
     Etot =     -918.0092763782854490
       TS =        0.0097443562340201
-------------------------------------
        F =     -918.0190207345194722

IonicMinimize: Iter:   5  F: -918.019020734519472  |grad|_K:  3.375e-03  alpha:  3.150e-01  linmin: -4.564e-01  t[s]:  10236.02

#--- Lowdin population analysis ---
# oxidation-state Mo +0.893 +0.917 +0.950 +0.949 +0.940 +0.941 +0.930 +0.931
# oxidation-state O -0.296 -0.303 -0.247 -0.252 -0.248 -0.253 -0.267 -0.273 -0.336 -0.319 -0.337 -0.335 -0.324 -0.334 -0.333 -0.333 -0.298 -0.310 -0.291 -0.284 -0.286 -0.287 -0.212


-------- Electronic minimization -----------
	FillingsUpdate:  mu: +0.278498880  nElectrons: 250.000000
ElecMinimize: Iter:   0  F: -917.749321295341815  |grad|_K:  1.198e-04  alpha:  1.000e+00
	FillingsUpdate:  mu: +0.280317140  nElectrons: 250.000000
	SubspaceRotationAdjust: set factor to 0.587
ElecMinimize: Iter:   1  F: -917.943191836918118  |grad|_K:  6.882e-05  alpha:  3.963e-01  linmin:  1.997e-04  t[s]:  10391.06
	FillingsUpdate:  mu: +0.276667588  nElectrons: 250.000000
	SubspaceRotationAdjust: set factor to 0.664
ElecMinimize: Iter:   2  F: -917.996729063865132  |grad|_K:  2.942e-05  alpha:  3.340e-01  linmin:  3.921e-05  t[s]:  10476.97
	FillingsUpdate:  mu: +0.276790286  nElectrons: 250.000000
	SubspaceRotationAdjust: set factor to 0.907
ElecMinimize: Iter:   3  F: -918.014740334348744  |grad|_K:  1.773e-05  alpha:  6.088e-01  linmin: -2.678e-04  t[s]:  10568.37
	FillingsUpdate:  mu: +0.277419699  nElectrons: 250.000000
	SubspaceRotationAdjust: set factor to 0.809
ElecMinimize: Iter:   4  F: -918.019311642186722  |grad|_K:  1.061e-05  alpha:  4.220e-01  linmin:  1.615e-06  t[s]:  10653.81
	FillingsUpdate:  mu: +0.276563513  nElectrons: 250.000000
	SubspaceRotationAdjust: set factor to 0.587
ElecMinimize: Iter:   5  F: -918.020512597255447  |grad|_K:  5.442e-06  alpha:  3.138e-01  linmin: -7.669e-06  t[s]:  10740.91
	FillingsUpdate:  mu: +0.277420152  nElectrons: 250.000000
	SubspaceRotationAdjust: set factor to 0.413
ElecMinimize: Iter:   6  F: -918.020836498705080  |grad|_K:  2.972e-06  alpha:  3.216e-01  linmin: -2.537e-06  t[s]:  10827.75
	FillingsUpdate:  mu: +0.276951282  nElectrons: 250.000000
	SubspaceRotationAdjust: set factor to 0.378
ElecMinimize: Iter:   7  F: -918.020936644316521  |grad|_K:  1.564e-06  alpha:  3.334e-01  linmin: -1.608e-06  t[s]:  10917.71
	FillingsUpdate:  mu: +0.276992966  nElectrons: 250.000000
	SubspaceRotationAdjust: set factor to 0.512
ElecMinimize: Iter:   8  F: -918.020968420745248  |grad|_K:  7.823e-07  alpha:  3.821e-01  linmin:  1.478e-06  t[s]:  11006.22
	FillingsUpdate:  mu: +0.277057671  nElectrons: 250.000000
	SubspaceRotationAdjust: set factor to 0.58
ElecMinimize: Iter:   9  F: -918.020975575851139  |grad|_K:  4.524e-07  alpha:  3.438e-01  linmin:  1.718e-06  t[s]:  11092.68
	FillingsUpdate:  mu: +0.277031794  nElectrons: 250.000000
	SubspaceRotationAdjust: set factor to 0.718
ElecMinimize: Iter:  10  F: -918.020978703763944  |grad|_K:  3.081e-07  alpha:  4.495e-01  linmin:  7.389e-07  t[s]:  11185.10
	FillingsUpdate:  mu: +0.277044407  nElectrons: 250.000000
	SubspaceRotationAdjust: set factor to 0.769
ElecMinimize: Iter:  11  F: -918.020980058209602  |grad|_K:  1.870e-07  alpha:  4.197e-01  linmin:  1.020e-07  t[s]:  11272.35
	FillingsUpdate:  mu: +0.277036727  nElectrons: 250.000000
	SubspaceRotationAdjust: set factor to 0.691
ElecMinimize: Iter:  12  F: -918.020980477589205  |grad|_K:  1.149e-07  alpha:  3.527e-01  linmin:  5.992e-08  t[s]:  11357.20
	FillingsUpdate:  mu: +0.277036307  nElectrons: 250.000000
	SubspaceRotationAdjust: set factor to 0.488
ElecMinimize: Iter:  13  F: -918.020980608406148  |grad|_K:  6.893e-08  alpha:  2.916e-01  linmin: -6.160e-07  t[s]:  11444.76
	FillingsUpdate:  mu: +0.277038411  nElectrons: 250.000000
	SubspaceRotationAdjust: set factor to 0.42
ElecMinimize: Iter:  14  F: -918.020980660380474  |grad|_K:  3.665e-08  alpha:  3.218e-01  linmin:  4.440e-06  t[s]:  11534.71
	FillingsUpdate:  mu: +0.277042384  nElectrons: 250.000000
	SubspaceRotationAdjust: set factor to 0.476
ElecMinimize: Iter:  15  F: -918.020980677892453  |grad|_K:  2.249e-08  alpha:  3.830e-01  linmin: -3.817e-06  t[s]:  11623.83
	FillingsUpdate:  mu: +0.277039975  nElectrons: 250.000000
	SubspaceRotationAdjust: set factor to 0.556
ElecMinimize: Iter:  16  F: -918.020980683944458  |grad|_K:  1.331e-08  alpha:  3.514e-01  linmin: -1.307e-05  t[s]:  11721.46
	FillingsUpdate:  mu: +0.277038084  nElectrons: 250.000000
	SubspaceRotationAdjust: set factor to 0.659
ElecMinimize: Iter:  17  F: -918.020980686551752  |grad|_K:  8.822e-09  alpha:  4.287e-01  linmin:  1.051e-07  t[s]:  11812.98
ElecMinimize: Converged (|Delta F|<1.000000e-08 for 2 iters).
Setting wave functions to eigenvectors of Hamiltonian

# Ionic positions in cartesian coordinates:
ion Mo  10.215751060137359   7.114526781024566   4.171008599083569 1
ion Mo  10.169331858978831  13.711334341393027   3.115310390775264 1
ion Mo   3.273542151764658   7.783433763162303  10.492094336127895 1
ion Mo   3.232138407701616   0.589047691237087  11.577449414077996 1
ion Mo  10.024130088775575   6.699539345861199  11.593573827509854 1
ion Mo  10.051585558283495  13.926117553709643  10.374296947325185 1
ion Mo   3.350525632817107   7.612478989180909   3.069691134674669 1
ion Mo   3.312488090015658   0.448350733735200   4.217900145160224 1
ion O  10.649511264625938   0.211511408081598   7.168690992820206 1
ion O   9.587484785772704   7.241767797703853   0.088367720841742 1
ion O   2.727612516345554  -0.208239745370558   7.390754372041184 1
ion O   3.783101497697832   6.999381587167927  14.645715034462080 1
ion O  10.630939983140335   6.289934450024427   7.337202564655389 1
ion O   9.401673538502429  13.674652903891339  14.626390911401813 1
ion O   2.719610134819027   7.946836876842456   7.259297462681124 1
ion O   3.964490437351942   0.755702829517296   0.071439933217179 1
ion O  13.387426421430188   0.646483489767018   3.018272754718284 1
ion O   6.743889629420708   7.603248296125869   4.234642163959172 1
ion O  -0.132612751859981  13.843512059521307  11.645282827160854 1
ion O   6.640686753764062   6.655521758974078  10.415631507048662 1
ion O  -0.053647253482674   6.553045361318103   3.124041988373494 1
ion O   6.833513681161748  13.999854613131573   4.155216969043825 1
ion O  13.400075814944529   7.725309584415834  11.493118026720827 1
ion O   6.661902025187816   0.535004186589182  10.478440549030712 1
ion O   3.778083890646869   3.773518267665491   4.261851539130928 1
ion O   2.912247003412833  10.989243955451457   3.082368572455764 1
ion O   9.595249338709372  10.612132821521119  10.387359427007794 1
ion O  10.493491771429188   3.394900265350612  11.589582678733006 1
ion O   2.652184800693638   3.767403379424298  10.731152072868182 1
ion O   3.851690310809854  10.958565822274046  11.333971692166191 1
ion O  10.798441557001752  10.468121831307741   3.958807444726933 1

# Forces in Cartesian coordinates:
force Mo  -0.001065865901022  -0.015360771028877   0.006020589740046 1
force Mo  -0.000788030085521   0.008960866900777  -0.003065168289474 1
force Mo  -0.000395633730438  -0.000150794814030   0.000640900002107 1
force Mo  -0.001101737044479   0.002050582668035  -0.004779257001243 1
force Mo   0.000378998366626  -0.004743949401019   0.000681281631620 1
force Mo   0.000442270306776   0.000222365961007  -0.003504953381157 1
force Mo   0.000204250826601  -0.000023001160181  -0.004753558887039 1
[...]
      Enl =      153.7806535670437142
      Exc =     -160.3801252282004270
 Exc_core =       11.2602601959832018
       KE =      285.6020047790194667
-------------------------------------
     Etot =     -918.0207602534120497
       TS =        0.0092858665017111
-------------------------------------
        F =     -918.0300461199137771

IonicMinimize: Iter:  28  F: -918.030046119913777  |grad|_K:  1.151e-03  alpha:  7.092e-01  linmin: -7.408e-02  t[s]:  45772.89

#--- Lowdin population analysis ---
# oxidation-state Mo +0.920 +0.956 +0.944 +0.944 +0.961 +0.929 +0.911 +0.917
# oxidation-state O -0.258 -0.312 -0.249 -0.257 -0.228 -0.279 -0.254 -0.276 -0.333 -0.331 -0.340 -0.333 -0.321 -0.328 -0.332 -0.333 -0.273 -0.342 -0.308 -0.252 -0.292 -0.278 -0.268


-------- Electronic minimization -----------
	FillingsUpdate:  mu: +0.277304374  nElectrons: 250.000000
ElecMinimize: Iter:   0  F: -917.780272592030428  |grad|_K:  1.157e-04  alpha:  1.000e+00
	FillingsUpdate:  mu: +0.281602186  nElectrons: 250.000000
	SubspaceRotationAdjust: set factor to 0.576
ElecMinimize: Iter:   1  F: -917.992895821407387  |grad|_K:  5.735e-05  alpha:  4.701e-01  linmin:  3.459e-04  t[s]:  45942.66
	FillingsUpdate:  mu: +0.276881341  nElectrons: 250.000000
	SubspaceRotationAdjust: set factor to 0.417
ElecMinimize: Iter:   2  F: -918.020225869591059  |grad|_K:  2.334e-05  alpha:  2.474e-01  linmin:  1.562e-04  t[s]:  46036.07
	FillingsUpdate:  mu: +0.281560007  nElectrons: 250.000000
	SubspaceRotationAdjust: set factor to 0.334
ElecMinimize: Iter:   3  F: -918.026378052934092  |grad|_K:  1.424e-05  alpha:  3.332e-01  linmin:  8.270e-05  t[s]:  46135.17
	FillingsUpdate:  mu: +0.280949763  nElectrons: 250.000000
	SubspaceRotationAdjust: set factor to 0.491
ElecMinimize: Iter:   4  F: -918.028880862952292  |grad|_K:  7.653e-06  alpha:  3.636e-01  linmin: -9.446e-06  t[s]:  46233.80
	FillingsUpdate:  mu: +0.279834158  nElectrons: 250.000000
	SubspaceRotationAdjust: set factor to 0.518
ElecMinimize: Iter:   5  F: -918.029805326556811  |grad|_K:  5.495e-06  alpha:  4.640e-01  linmin: -1.417e-05  t[s]:  46325.95
	FillingsUpdate:  mu: +0.280995718  nElectrons: 250.000000
	SubspaceRotationAdjust: set factor to 0.462
ElecMinimize: Iter:   6  F: -918.030158199234961  |grad|_K:  3.372e-06  alpha:  3.435e-01  linmin:  3.310e-06  t[s]:  46414.85
	FillingsUpdate:  mu: +0.280652852  nElectrons: 250.000000
	SubspaceRotationAdjust: set factor to 0.501
ElecMinimize: Iter:   7  F: -918.030304087765899  |grad|_K:  2.094e-06  alpha:  3.773e-01  linmin: -1.521e-05  t[s]:  46508.15
	FillingsUpdate:  mu: +0.280505419  nElectrons: 250.000000
	SubspaceRotationAdjust: set factor to 0.613
ElecMinimize: Iter:   8  F: -918.030367976923571  |grad|_K:  1.207e-06  alpha:  4.283e-01  linmin:  2.004e-06  t[s]:  46595.20
	FillingsUpdate:  mu: +0.280768201  nElectrons: 250.000000
	SubspaceRotationAdjust: set factor to 0.516
ElecMinimize: Iter:   9  F: -918.030384176424036  |grad|_K:  7.102e-07  alpha:  3.271e-01  linmin: -6.712e-07  t[s]:  46686.05
	FillingsUpdate:  mu: +0.280652520  nElectrons: 250.000000
	SubspaceRotationAdjust: set factor to 0.422
ElecMinimize: Iter:  10  F: -918.030389556367936  |grad|_K:  4.434e-07  alpha:  3.136e-01  linmin: -2.337e-06  t[s]:  46776.43
	FillingsUpdate:  mu: +0.280660967  nElectrons: 250.000000
	SubspaceRotationAdjust: set factor to 0.477
ElecMinimize: Iter:  11  F: -918.030392332136785  |grad|_K:  2.460e-07  alpha:  4.152e-01  linmin: -1.647e-06  t[s]:  46867.66
	FillingsUpdate:  mu: +0.280696131  nElectrons: 250.000000
	SubspaceRotationAdjust: set factor to 0.503
ElecMinimize: Iter:  12  F: -918.030393065833437  |grad|_K:  1.426e-07  alpha:  3.564e-01  linmin: -2.617e-07  t[s]:  46955.06
	FillingsUpdate:  mu: +0.280677885  nElectrons: 250.000000
	SubspaceRotationAdjust: set factor to 0.513
ElecMinimize: Iter:  13  F: -918.030393309412716  |grad|_K:  8.352e-08  alpha:  3.521e-01  linmin: -9.060e-07  t[s]:  47042.18
	FillingsUpdate:  mu: +0.280678757  nElectrons: 250.000000
	SubspaceRotationAdjust: set factor to 0.481
ElecMinimize: Iter:  14  F: -918.030393401064771  |grad|_K:  5.004e-08  alpha:  3.863e-01  linmin: -5.691e-06  t[s]:  47128.69
	FillingsUpdate:  mu: +0.280683002  nElectrons: 250.000000
	SubspaceRotationAdjust: set factor to 0.478
ElecMinimize: Iter:  15  F: -918.030393431666880  |grad|_K:  2.778e-08  alpha:  3.591e-01  linmin:  4.422e-06  t[s]:  47214.44
	FillingsUpdate:  mu: +0.280680620  nElectrons: 250.000000
	SubspaceRotationAdjust: set factor to 0.563
ElecMinimize: Iter:  16  F: -918.030393440528769  |grad|_K:  1.511e-08  alpha:  3.386e-01  linmin: -1.107e-05  t[s]:  47301.62
	FillingsUpdate:  mu: +0.280680689  nElectrons: 250.000000
	SubspaceRotationAdjust: set factor to 0.587
ElecMinimize: Iter:  17  F: -918.030393443381627  |grad|_K:  8.899e-09  alpha:  3.689e-01  linmin:  3.245e-05  t[s]:  47388.96
ElecMinimize: Converged (|Delta F|<1.000000e-08 for 2 iters).
Setting wave functions to eigenvectors of Hamiltonian

# Ionic positions in cartesian coordinates:
ion Mo  10.239265409763840   7.192198662640341   4.014627614876810 1
ion Mo  10.191603894221460  13.839936594778704   3.221657331058985 1
ion Mo   3.197261595581637   7.615317964987510  10.455241896276499 1
ion Mo   3.265646229933599   0.454784508287726  11.526669678375903 1
ion Mo   9.945692514045904   6.373926361807811  11.698178952761658 1
ion Mo  10.092336733226032  13.592553736924755  10.514977950002550 1
ion Mo   3.419838561602844   7.941395071624045   3.041926941703642 1
ion Mo   3.295273044128427   0.773618091177765   4.070143506177636 1
ion O  10.680898831553769  -0.082954981520559   7.370250972431435 1
ion O   9.467172355435649   6.491991336002090   0.286535414206892 1
ion O   2.822782369908102   0.230704775909921   7.282851102311727 1
ion O   3.907073624641705   7.534492101985819  14.600282700290876 1
ion O  10.682022371600608   5.717547022960035   6.857670094148927 1
ion O   9.457830313074489  13.391829790160850  14.746773323919482 1
ion O   2.624723313163356   7.685046570319966   7.213484779705620 1
ion O   3.898706083978980   0.536216992816538   0.071553582267306 1
ion O  13.137902226103945   1.188581082830869   3.139935214479300 1
ion O   6.784114457578682   7.843446836729701   4.282780886512015 1
ion O  -0.101700639499334  13.630598288037238  11.682228001484340 1
ion O   6.634375997276503   6.491980939163627  10.420262437427004 1
ion O  -0.015163455539393   7.095323098940882   2.861154063170449 1
ion O   7.073688131910714  14.948920885969734   4.142564126711162 1
ion O  13.287635605691317   7.453684572706060  11.508145453978910 1
ion O   6.677151180421073   0.274423112727581  10.594625778232473 1
ion O   3.617423581718974   4.095937598694538   3.799784361456214 1
ion O   3.060598976877801  11.366912776950196   3.369268372809020 1
ion O   9.580599855576931  10.280025945990069  10.546481681996337 1
ion O  10.481863971288098   3.135065819882372  11.473730908812238 1
ion O   2.708786637588413   3.697971334081830  10.938313215678111 1
ion O   3.708187717552583  10.862542180704205  11.004022772890115 1
ion O  10.832948509593249  10.668223925727771   4.372800883846367 1

# Forces in Cartesian coordinates:
force Mo  -0.001881355392700   0.001836173009196  -0.003379628165129 1
force Mo  -0.002518728254661  -0.002751774385466   0.001483617055578 1
force Mo   0.000045869304557   0.000219785745559  -0.003107440056769 1
force Mo  -0.000141350570829  -0.000658852333161   0.002043072315522 1
force Mo  -0.000428588912567   0.001572898979970   0.002109298895795 1
force Mo  -0.001036635958015  -0.001063543569888   0.000287518687304 1
force Mo  -0.000613798489693   0.000499460856268   0.000020165013129 1
force Mo   0.001448326880653   0.000599699558657   0.000505785971247 1
force O   0.000684289510816   0.000079652324766   0.000269782608832 1
force O  -0.001365535326206   0.000242992744074   0.000660299969925 1
force O  -0.000006250975428   0.000585685858059   0.000128490753616 1
force O  -0.000169736994469  -0.000219506201652  -0.001100256186270 1
force O   0.000331790670532  -0.001978550871267   0.001737731648806 1
force O   0.000889722587988  -0.001243583825727  -0.001096793144749 1
force O   0.000745529199314  -0.001491637860881   0.002332802225316 1
force O  -0.000074001545634  -0.000777720199935   0.001556148535841 1
force O   0.001970759177248   0.000110858661618  -0.000009366978943 1
force O  -0.001765201799271  -0.000478477928187   0.000052374392583 1
force O  -0.000521706813399   0.001344224383408  -0.001132910521335 1
force O   0.000851518690576   0.000840564585926   0.000062092082932 1
force O   0.001400564278289   0.001730090371667  -0.000300159453117 1
force O  -0.000371856556270  -0.000980786571774  -0.000266825592881 1
force O   0.000562763534297   0.000530446800347  -0.000470768284575 1
force O   0.000333558804970   0.001480757375600  -0.000642081098356 1
force O   0.000194385844222  -0.000338955198650   0.000110592865720 1
force O   0.000696791355503  -0.000258423574151  -0.001223825907494 1
force O   0.000185185228375  -0.000841613052383   0.001036376209550 1
force O   0.000950078642363   0.001344229188757  -0.002199952997502 1
force O  -0.001089890915820  -0.001614475535979  -0.000262735308078 1
force O   0.000441569842270   0.000322679716844   0.000012770151721 1
force O   0.000179407990332   0.000994619432285   0.001321141019736 1

# Energy components:
   Eewald =     -582.3245779951818122
       EH =      286.9397335401196756
     Eloc =     -912.9109763640267374
      Enl =      153.7811706037537647
      Exc =     -160.3874410142429952
 Exc_core =       11.2602615897418445
       KE =      285.6206865800016317
-------------------------------------
     Etot =     -918.0211430598349125
       TS =        0.0092503835467224
-------------------------------------
        F =     -918.0303934433816266

IonicMinimize: Iter:  29  F: -918.030393443381627  |grad|_K:  1.174e-03  alpha:  9.586e-01  linmin: -1.633e-03  t[s]:  47404.99

#--- Lowdin population analysis ---
# oxidation-state Mo +0.921 +0.956 +0.942 +0.944 +0.962 +0.929 +0.912 +0.916
# oxidation-state O -0.258 -0.311 -0.249 -0.261 -0.226 -0.276 -0.259 -0.276 -0.331 -0.330 -0.339 -0.332 -0.321 -0.330 -0.332 -0.333 -0.276 -0.341 -0.309 -0.252 -0.291 -0.278 -0.272


-------- Electronic minimization -----------
	FillingsUpdate:  mu: +0.280971334  nElectrons: 250.000000
ElecMinimize: Iter:   0  F: -917.603137349129042  |grad|_K:  1.495e-04  alpha:  1.000e+00
	FillingsUpdate:  mu: +0.281891901  nElectrons: 250.000000
	SubspaceRotationAdjust: set factor to 0.589
ElecMinimize: Iter:   1  F: -917.963773581638975  |grad|_K:  7.400e-05  alpha:  4.767e-01  linmin:  2.099e-04  t[s]:  47557.94
	FillingsUpdate:  mu: +0.275946326  nElectrons: 250.000000
	SubspaceRotationAdjust: set factor to 0.515
ElecMinimize: Iter:   2  F: -918.011971876615348  |grad|_K:  2.939e-05  alpha:  2.601e-01  linmin:  2.035e-05  t[s]:  47645.62
	FillingsUpdate:  mu: +0.281694617  nElectrons: 250.000000
	SubspaceRotationAdjust: set factor to 0.444
ElecMinimize: Iter:   3  F: -918.023406273979163  |grad|_K:  2.045e-05  alpha:  3.902e-01  linmin:  1.841e-04  t[s]:  47731.19
	FillingsUpdate:  mu: +0.280111111  nElectrons: 250.000000
	SubspaceRotationAdjust: set factor to 0.503
ElecMinimize: Iter:   4  F: -918.027994327968145  |grad|_K:  1.058e-05  alpha:  3.248e-01  linmin: -3.265e-05  t[s]:  47821.06
	FillingsUpdate:  mu: +0.279635388  nElectrons: 250.000000
	SubspaceRotationAdjust: set factor to 0.648
ElecMinimize: Iter:   5  F: -918.029922840488553  |grad|_K:  6.228e-06  alpha:  5.064e-01  linmin:  1.023e-05  t[s]:  47918.29
	FillingsUpdate:  mu: +0.280984480  nElectrons: 250.000000
	SubspaceRotationAdjust: set factor to 0.571
ElecMinimize: Iter:   6  F: -918.030372658373608  |grad|_K:  3.920e-06  alpha:  3.414e-01  linmin: -5.114e-07  t[s]:  48011.39
	FillingsUpdate:  mu: +0.280221057  nElectrons: 250.000000
	SubspaceRotationAdjust: set factor to 0.432
ElecMinimize: Iter:   7  F: -918.030531993195154  |grad|_K:  2.382e-06  alpha:  3.050e-01  linmin: -2.699e-06  t[s]:  48106.89
	FillingsUpdate:  mu: +0.280422508  nElectrons: 250.000000
	SubspaceRotationAdjust: set factor to 0.444
ElecMinimize: Iter:   8  F: -918.030606255345219  |grad|_K:  1.268e-06  alpha:  3.850e-01  linmin: -2.492e-06  t[s]:  48201.79
	FillingsUpdate:  mu: +0.280544839  nElectrons: 250.000000
	SubspaceRotationAdjust: set factor to 0.485
ElecMinimize: Iter:   9  F: -918.030624465653091  |grad|_K:  6.258e-07  alpha:  3.331e-01  linmin:  3.616e-07  t[s]:  48291.98
	FillingsUpdate:  mu: +0.280443559  nElectrons: 250.000000
	SubspaceRotationAdjust: set factor to 0.52
ElecMinimize: Iter:  10  F: -918.030629795803975  |grad|_K:  4.193e-07  alpha:  4.003e-01  linmin:  1.332e-06  t[s]:  48383.91
	FillingsUpdate:  mu: +0.280480811  nElectrons: 250.000000
	SubspaceRotationAdjust: set factor to 0.548
ElecMinimize: Iter:  11  F: -918.030632145056188  |grad|_K:  2.521e-07  alpha:  3.929e-01  linmin: -1.949e-07  t[s]:  48478.49
	FillingsUpdate:  mu: +0.280492398  nElectrons: 250.000000
	SubspaceRotationAdjust: set factor to 0.503
ElecMinimize: Iter:  12  F: -918.030632935723929  |grad|_K:  1.508e-07  alpha:  3.659e-01  linmin:  6.862e-07  t[s]:  48570.99
	FillingsUpdate:  mu: +0.280475142  nElectrons: 250.000000
	SubspaceRotationAdjust: set factor to 0.479
ElecMinimize: Iter:  13  F: -918.030633221315497  |grad|_K:  8.971e-08  alpha:  3.695e-01  linmin:  6.577e-07  t[s]:  48660.31
	FillingsUpdate:  mu: +0.280483272  nElectrons: 250.000000
	SubspaceRotationAdjust: set factor to 0.577
ElecMinimize: Iter:  14  F: -918.030633325618965  |grad|_K:  4.932e-08  alpha:  3.812e-01  linmin: -1.267e-06  t[s]:  48746.68
	FillingsUpdate:  mu: +0.280483222  nElectrons: 250.000000
	SubspaceRotationAdjust: set factor to 0.508
ElecMinimize: Iter:  15  F: -918.030633354362749  |grad|_K:  2.650e-08  alpha:  3.473e-01  linmin:  5.588e-07  t[s]:  48839.62
	FillingsUpdate:  mu: +0.280482207  nElectrons: 250.000000
	SubspaceRotationAdjust: set factor to 0.359
ElecMinimize: Iter:  16  F: -918.030633361949413  |grad|_K:  1.436e-08  alpha:  3.179e-01  linmin: -1.174e-05  t[s]:  48928.40
	FillingsUpdate:  mu: +0.280482575  nElectrons: 250.000000
	SubspaceRotationAdjust: set factor to 0.353
ElecMinimize: Iter:  17  F: -918.030633364571372  |grad|_K:  7.417e-09  alpha:  3.710e-01  linmin: -1.779e-05  t[s]:  49015.22
ElecMinimize: Converged (|Delta F|<1.000000e-08 for 2 iters).
Setting wave functions to eigenvectors of Hamiltonian

# Ionic positions in cartesian coordinates:
ion Mo  10.231785756670128   7.198178934801494   3.986516427465121 1
ion Mo  10.185380177274478  13.835501542872102   3.243903789530465 1
ion Mo   3.187241871629343   7.606019753004331  10.452142812541958 1
ion Mo   3.274419262537676   0.443043785371077  11.535237169917192 1
ion Mo   9.937843191884165   6.355508466808063  11.710592899024341 1
ion Mo  10.096652393768967  13.560755277772595  10.523883559152949 1
ion Mo   3.424882519327604   7.973476618238246   3.039825188015444 1
ion Mo   3.301608724845705   0.807816095734407   4.062465333263845 1
ion O  10.686986796665277  -0.111263248300541   7.382285377223195 1
ion O   9.457656459633391   6.430175849336300   0.305960529187253 1
ion O   2.828055400943665   0.277702118317121   7.281607849040156 1
ion O   3.906463337913501   7.583465498219555  14.589583729059321 1
ion O  10.680072132858244   5.646241983063630   6.800355282833513 1
ion O   9.474481666636688  13.354884369559409  14.763822563598023 1
ion O   2.633661280818991   7.657248235996301   7.209456646930021 1
ion O   3.890645839326952   0.515010149345140   0.082832090407369 1
ion O  13.124659543611150   1.212849444882353   3.150736233035742 1
ion O   6.781920046908174   7.859281000737501   4.279379365356736 1
ion O  -0.102481500731075  13.621156635545528  11.676963138818907 1
ion O   6.643502877209753   6.486495958679528  10.428394596885603 1
ion O  -0.021602495316919   7.158740797202107   2.840476897146241 1
ion O   7.087108198537827  15.014521827246655   4.140924442574887 1
ion O  13.283582263800223   7.439764314556571  11.501469469802728 1
ion O   6.684328408201527   0.261553006274677  10.610529127689006 1
ion O   3.606408943597871   4.135918111284405   3.760583203559466 1
ion O   3.070756436332172  11.405443452389846   3.390362539052759 1
ion O   9.583671599481422  10.248725755094831  10.565614683928686 1
ion O  10.488216250626198   3.116552581044171  11.451973614223682 1
ion O   2.712578817742437   3.688698045051256  10.955594005428845 1
ion O   3.700056979100433  10.864708755032828  10.970590434136255 1
ion O  10.815996818163994  10.674067884838500   4.414861001170288 1

# Forces in Cartesian coordinates:
force Mo   0.000612832921433  -0.002332993815422   0.003229094663099 1
force Mo   0.001138160997825   0.001801382217121  -0.001061331973059 1
force Mo   0.001001928250491   0.001008894393428  -0.001792810052928 1
force Mo  -0.001530016523898  -0.000479036314830   0.000116887352730 1
force Mo   0.000437637762159  -0.001861879011684   0.001182641763596 1
force Mo  -0.000355710948470   0.001279574250390   0.001407595447460 1
force Mo  -0.002813276529182   0.001725568345956  -0.001975821697628 1
force Mo  -0.000928708632503   0.000972795900582   0.002400928710368 1
force O  -0.000192252481953   0.000125544922940   0.000226003024407 1
force O  -0.001359662039284   0.000345739218434   0.000337095204586 1
force O   0.000870199968136   0.000905968250156  -0.001416107830726 1
force O  -0.000252063827062  -0.000020768022590   0.000708777561506 1
force O  -0.000699113980563   0.001432339223565  -0.004178736252725 1
force O   0.000452451932507  -0.000885057800197   0.000415459243536 1
force O   0.000165154456488  -0.001168602599388   0.001417248382434 1
force O   0.000442143735911  -0.000266602707654   0.001229545779934 1
force O  -0.000127527436120  -0.002041736109451   0.000132649276588 1
force O  -0.001844458286162  -0.000268229979314  -0.000026254725704 1
force O   0.000494695709306   0.001095790035446  -0.000357020286387 1
force O  -0.000875134332728   0.000576890165436  -0.000015035514346 1
force O   0.002454629052014   0.001597999008601  -0.000261894891379 1
force O   0.000226101112260  -0.001824249042066  -0.000556498593446 1
force O   0.001006335281952   0.000426738282154  -0.000308912342030 1
force O   0.000252547625594   0.001133414623102  -0.000361641388413 1
force O   0.000025550239649  -0.002676865986286   0.000230702093151 1
force O   0.001221870248290  -0.002063844517680  -0.000834318920940 1
force O  -0.000144371953435  -0.000736585320334   0.000528327518462 1
force O   0.000394087369019   0.004322972047258  -0.001463557956550 1
force O  -0.000462290606582  -0.001082530871001   0.000340370343434 1
force O   0.000162114395328  -0.001099900953934  -0.000312701410078 1
force O   0.000080800674072  -0.000280228804012   0.001528940940585 1

# Energy components:
   Eewald =     -582.5978525657639011
       EH =      286.6616078202875428
     Eloc =     -912.3319669441509632
      Enl =      153.7727972292929337
      Exc =     -160.3774176243131819
 Exc_core =       11.2602613839555765
       KE =      285.5911211157886100
-------------------------------------
     Etot =     -918.0214495849033938
       TS =        0.0091837796680349
-------------------------------------
        F =     -918.0306333645713721

IonicMinimize: Iter:  30  F: -918.030633364571372  |grad|_K:  1.311e-03  alpha:  1.000e+00  linmin:  2.878e-02  t[s]:  49031.53
IonicMinimize: None of the convergence criteria satisfied after 30 iterations.

#--- Lowdin population analysis ---
# oxidation-state Mo +0.920 +0.958 +0.942 +0.944 +0.965 +0.930 +0.911 +0.917
# oxidation-state O -0.255 -0.311 -0.249 -0.263 -0.227 -0.280 -0.256 -0.276 -0.332 -0.329 -0.338 -0.330 -0.321 -0.329 -0.331 -0.332 -0.277 -0.342 -0.310 -0.252 -0.291 -0.280 -0.274


Dumping 'M8O22.Ecomponents' ... done
End date and time: Sat Dec  9 08:19:33 2023  (Duration: 0-13:37:25.37)
Done!
