
*************** JDFTx 1.7.0 (git hash e155c65d) ***************

Start date and time: Tue Jul 16 08:35:54 2024
Executable jdftx with command-line: -i Cr_ionic.in
Running on hosts (process indices):  node3307 (0-15)
Divided in process groups (process indices):  0 (0)  1 (1)  2 (2)  3 (3)  4 (4)  5 (5)  6 (6)  7 (7)  8 (8)  9 (9)  10 (10)  11 (11)  12 (12)  13 (13)  14 (14)  15 (15)
Resource initialization completed at t[s]:      0.00
Run totals: 16 processes, 16 threads, 0 GPUs


Input parsed successfully to the following command list (including defaults):

basis kpoint-dependent
coords-type Lattice
core-overlap-check vector
coulomb-interaction Periodic
davidson-band-ratio 1.1
dump End Ecomponents
dump-name $INPUT.$VAR
elec-cutoff 20 100
elec-eigen-algo Davidson
elec-ex-corr gga-PBEsol
elec-smearing Fermi 0.01
electronic-minimize  \
	dirUpdateScheme      FletcherReeves \
	linminMethod         DirUpdateRecommended \
	nIterations          100 \
	history              15 \
	knormThreshold       0 \
	maxThreshold         no \
	energyDiffThreshold  1e-08 \
	nEnergyDiff          2 \
	alphaTstart          1 \
	alphaTmin            1e-10 \
	updateTestStepSize   yes \
	alphaTreduceFactor   0.1 \
	alphaTincreaseFactor 3 \
	nAlphaAdjustMax      3 \
	wolfeEnergy          0.0001 \
	wolfeGradient        0.9 \
	fdTest               no
electronic-scf  \
	nIterations	50 \
	energyDiffThreshold	1e-08 \
	residualThreshold	1e-07 \
	mixFraction	0.5 \
	qMetric	0.8 \
	history	10 \
	nEigSteps	2 \
	eigDiffThreshold	1e-08 \
	mixedVariable	Density \
	qKerker	0.8 \
	qKappa	-1 \
	verbose	no \
	mixFractionMag	1.5
exchange-regularization WignerSeitzTruncated
fluid None
fluid-ex-corr lda-TF lda-PZ
fluid-gummel-loop 10 1.000000e-05
fluid-minimize  \
	dirUpdateScheme      PolakRibiere \
	linminMethod         DirUpdateRecommended \
	nIterations          100 \
	history              15 \
	knormThreshold       0 \
	maxThreshold         no \
	energyDiffThreshold  0 \
	nEnergyDiff          2 \
	alphaTstart          1 \
	alphaTmin            1e-10 \
	updateTestStepSize   yes \
	alphaTreduceFactor   0.1 \
	alphaTincreaseFactor 3 \
	nAlphaAdjustMax      3 \
	wolfeEnergy          0.0001 \
	wolfeGradient        0.9 \
	fdTest               no
fluid-solvent H2O 55.338 ScalarEOS \
	epsBulk 78.4 \
	pMol 0.92466 \
	epsInf 1.77 \
	Pvap 1.06736e-10 \
	sigmaBulk 4.62e-05 \
	Rvdw 2.61727 \
	Res 1.42 \
	tauNuc 343133 \
	poleEl 15 7 1
forces-output-coords Positions
ion Cr   0.000000000000000   0.000000000000000   0.000000000000000 0
ion Cr   0.165400000000000   0.162130000000000   0.180150000000000 1
ion Cr  -0.008310000000000  -0.013310000000000   0.337920000000000 1
ion Cr   0.164090000000000   0.160850000000000   0.494630000000000 1
ion Cr   0.001000000000000  -0.001200000000000   0.668210000000000 1
ion Cr   0.153760000000000   0.169590000000000   0.840810000000000 1
ion Cr  -0.009830000000000   0.342690000000000   0.007010000000000 1
ion Cr   0.166880000000000   0.503240000000000   0.177730000000000 1
ion Cr   0.002060000000000   0.330090000000000   0.327550000000000 1
ion Cr   0.160900000000000   0.497250000000000   0.510620000000000 1
ion Cr  -0.005080000000000   0.308850000000000   0.677130000000000 1
ion Cr   0.153800000000000   0.484960000000000   0.826600000000000 1
ion Cr  -0.001400000000000   0.662240000000000   0.006910000000000 1
ion Cr   0.166860000000000   0.839660000000000   0.177160000000000 1
ion Cr  -0.003840000000000   0.663520000000000   0.321210000000000 1
ion Cr   0.157170000000000   0.824600000000000   0.501890000000000 1
ion Cr   0.008300000000000   0.657200000000000   0.667980000000000 1
ion Cr   0.160660000000000   0.835750000000000   0.835920000000000 1
ion Cr   0.327670000000000   0.012310000000000  -0.029200000000000 1
ion Cr   0.501090000000000   0.170890000000000   0.181850000000000 1
ion Cr   0.345910000000000  -0.005050000000000   0.320260000000000 1
ion Cr   0.515170000000000   0.152090000000000   0.508130000000000 1
ion Cr   0.331240000000000  -0.010590000000000   0.682530000000000 1
ion Cr   0.483570000000000   0.170100000000000   0.837500000000000 1
ion Cr   0.323970000000000   0.299130000000000   0.009470000000000 1
ion Cr   0.493950000000000   0.493350000000000   0.175010000000000 1
ion Cr   0.342530000000000   0.349070000000000   0.328790000000000 1
ion Cr   0.488120000000000   0.494230000000000   0.501880000000000 1
ion Cr   0.336510000000000   0.334540000000000   0.658810000000000 1
ion Cr   0.495600000000000   0.485000000000000   0.830760000000000 1
ion Cr   0.332170000000000   0.665230000000000   0.000660000000000 1
ion Cr   0.503040000000000   0.830060000000000   0.181400000000000 1
ion Cr   0.332160000000000   0.666440000000000   0.340890000000000 1
ion Cr   0.502630000000000   0.826790000000000   0.515760000000000 1
ion Cr   0.319190000000000   0.663330000000000   0.654620000000000 1
ion Cr   0.482410000000000   0.834930000000000   0.845010000000000 1
ion Cr   0.665230000000000   0.002790000000000   0.009400000000000 1
ion Cr   0.846490000000000   0.162580000000000   0.174330000000000 1
ion Cr   0.670560000000000   0.005960000000000   0.324360000000000 1
ion Cr   0.828260000000000   0.146680000000000   0.508710000000000 1
ion Cr   0.669920000000000   0.015150000000000   0.660620000000000 1
ion Cr   0.839630000000000   0.165220000000000   0.844350000000000 1
ion Cr   0.659320000000000   0.337500000000000   0.007180000000000 1
ion Cr   0.839040000000000   0.498490000000000   0.150300000000000 1
ion Cr   0.671600000000000   0.328640000000000   0.327040000000000 1
ion Cr   0.852530000000000   0.500680000000000   0.493680000000000 1
ion Cr   0.653880000000000   0.353630000000000   0.679890000000000 1
ion Cr   0.854580000000000   0.503150000000000   0.836800000000000 1
ion Cr   0.656750000000000   0.677720000000000   0.003640000000000 1
ion Cr   0.834290000000000   0.831450000000000   0.167220000000000 1
ion Cr   0.657180000000000   0.652720000000000   0.332730000000000 1
ion Cr   0.826550000000000   0.835040000000000   0.481040000000000 1
ion Cr   0.663790000000000   0.668230000000000   0.651170000000000 1
ion Cr   0.851340000000000   0.822840000000000   0.836950000000000 1
ion-species GBRV/$ID_pbesol.uspp
ion-width 0
ionic-minimize  \
	dirUpdateScheme      L-BFGS \
	linminMethod         DirUpdateRecommended \
	nIterations          50 \
	history              15 \
	knormThreshold       0.0001 \
	maxThreshold         no \
	energyDiffThreshold  1e-06 \
	nEnergyDiff          2 \
	alphaTstart          1 \
	alphaTmin            1e-10 \
	updateTestStepSize   yes \
	alphaTreduceFactor   0.1 \
	alphaTincreaseFactor 3 \
	nAlphaAdjustMax      3 \
	wolfeEnergy          0.0001 \
	wolfeGradient        0.9 \
	fdTest               no
kpoint   0.500000000000   0.500000000000   0.500000000000  1.00000000000000
kpoint-folding 3 3 3 
latt-move-scale 1 1 1
latt-scale 1 1 1 
lattice  \
	  15.986182610261316    0.000000000000000    0.000000000000000  \
	   0.000000000000000   15.986182610261316    0.000000000000000  \
	   0.000000000000000    0.000000000000000   15.986182610261316 
lattice-minimize  \
	dirUpdateScheme      L-BFGS \
	linminMethod         DirUpdateRecommended \
	nIterations          0 \
	history              15 \
	knormThreshold       0 \
	maxThreshold         no \
	energyDiffThreshold  1e-06 \
	nEnergyDiff          2 \
	alphaTstart          1 \
	alphaTmin            1e-10 \
	updateTestStepSize   yes \
	alphaTreduceFactor   0.1 \
	alphaTincreaseFactor 3 \
	nAlphaAdjustMax      3 \
	wolfeEnergy          0.0001 \
	wolfeGradient        0.9 \
	fdTest               no
lcao-params -1 1e-06 0.01
pcm-variant GLSSA13
perturb-minimize  \
	nIterations            0 \
	algorithm              MINRES \
	residualTol            0.0001 \
	residualDiffThreshold  0.0001 \
	CGBypass               no \
	recomputeResidual      no
spintype no-spin
subspace-rotation-factor 1 yes
symmetries automatic
symmetry-threshold 0.0001



---------- Setting up symmetries ----------

Found 48 point-group symmetries of the bravais lattice
Found 1 space-group symmetries with basis
Applied RMS atom displacement 0 bohrs to make symmetries exact.

---------- Initializing the Grid ----------
R = 
[      15.9862            0            0  ]
[            0      15.9862            0  ]
[            0            0      15.9862  ]
unit cell volume = 4085.4
G =
[   0.393039          0          0  ]
[          0   0.393039          0  ]
[          0          0   0.393039  ]
Minimum fftbox size, Smin = [  72  72  72  ]
Chosen fftbox size, S = [  72  72  72  ]

---------- Initializing tighter grid for wavefunction operations ----------
R = 
[      15.9862            0            0  ]
[            0      15.9862            0  ]
[            0            0      15.9862  ]
unit cell volume = 4085.4
G =
[   0.393039          0          0  ]
[          0   0.393039          0  ]
[          0          0   0.393039  ]
Minimum fftbox size, Smin = [  68  68  68  ]
Chosen fftbox size, S = [  70  70  70  ]

---------- Exchange Correlation functional ----------
Initalized PBEsol GGA exchange.
Initalized PBEsol GGA correlation.

---------- Setting up pseudopotentials ----------
Width of ionic core gaussian charges (only for fluid interactions / plotting) set to 0

Reading pseudopotential file '/home/rc652/JDFTx/build/pseudopotentials/GBRV/cr_pbesol.uspp':
  Title: Cr.  Created by USPP 7.3.6 on 22-9-15
  Reference state energy: -86.950313.  14 valence electrons in orbitals:
    |300>  occupation: 2  eigenvalue: -3.277767
    |310>  occupation: 6  eigenvalue: -2.223139
    |400>  occupation: 1.6  eigenvalue: -0.455775
    |320>  occupation: 3.4  eigenvalue: -0.615164
  lMax: 2  lLocal: 3  QijEcut: 6
  6 projectors sampled on a log grid with 595 points:
    l: 0  eig: -3.277767  rCut: 1.55
    l: 0  eig: -0.455775  rCut: 1.55
    l: 1  eig: -2.223139  rCut: 1.55
    l: 1  eig: 0.500000  rCut: 1.55
    l: 2  eig: -0.615164  rCut: 1.7
    l: 2  eig: 0.500000  rCut: 1.7
  Partial core density with radius 0.75
  Transforming core density to a uniform radial grid of dG=0.02 with 1231 points.
  Transforming local potential to a uniform radial grid of dG=0.02 with 1231 points.
  Transforming nonlocal projectors to a uniform radial grid of dG=0.02 with 432 points.
  Transforming density augmentations to a uniform radial grid of dG=0.02 with 1231 points.
  Transforming atomic orbitals to a uniform radial grid of dG=0.02 with 432 points.
  Core radius for overlap checks: 1.70 bohrs.

Initialized 1 species with 54 total atoms.

Folded 1 k-points by 3x3x3 to 27 k-points.

---------- Setting up k-points, bands, fillings ----------
Adding inversion symmetry to k-mesh for non-inversion-symmetric unit cell.
Reduced to 14 k-points under symmetry. 
Computing the number of bands and number of electrons
Calculating initial fillings.
nElectrons: 756.000000   nBands: 540   nStates: 14

----- Setting up reduced wavefunction bases (one per k-point) -----
average nbasis = 17455.407 , ideal nbasis = 17453.129

---------- Setting up ewald sum ----------
Optimum gaussian width for ewald sums = 3.280368 bohr.
Real space sum over 343 unit cells with max indices [  3  3  3  ]
Reciprocal space sum over 6859 terms with max indices [  9  9  9  ]

---------- Allocating electronic variables ----------
Initializing wave functions:  linear combination of atomic orbitals
Cr pseudo-atom occupations:   s ( 2 0 )  p ( 6 )  d ( 6 )
	FillingsUpdate:  mu: +0.873401692  nElectrons: 756.000000
LCAOMinimize: Iter:   0  F: -4679.8580717812064904  |grad|_K:  1.542e-03  alpha:  1.000e+00
	FillingsUpdate:  mu: +0.885865013  nElectrons: 756.000000
LCAOMinimize: Iter:   1  F: -4680.1478182906821530  |grad|_K:  1.053e-03  alpha:  3.828e-02  linmin: -2.922e-01  cgtest:  7.658e-01  t[s]:     67.30
LCAOMinimize: Encountered beta<0, resetting CG.
LCAOMinimize: 	Predicted alpha/alphaT>3.000000, increasing alphaT to 1.148308e-01.
LCAOMinimize: 	Predicted alpha/alphaT>3.000000, increasing alphaT to 3.444924e-01.
	FillingsUpdate:  mu: +0.910934474  nElectrons: 756.000000
LCAOMinimize: Iter:   2  F: -4681.0920488903220757  |grad|_K:  2.953e-03  alpha:  4.863e-01  linmin:  2.531e-02  cgtest: -1.229e-01  t[s]:    106.30
	FillingsUpdate:  mu: +0.923103632  nElectrons: 756.000000
LCAOMinimize: Iter:   3  F: -4681.3933105398564294  |grad|_K:  3.180e-03  alpha:  2.063e-02  linmin: -1.158e-02  cgtest:  9.551e-01  t[s]:    131.42
	FillingsUpdate:  mu: +0.931768962  nElectrons: 756.000000
LCAOMinimize: Iter:   4  F: -4682.4074179855515467  |grad|_K:  7.499e-04  alpha:  5.028e-02  linmin:  1.173e-01  cgtest: -4.762e-01  t[s]:    156.55
	FillingsUpdate:  mu: +0.936105605  nElectrons: 756.000000
LCAOMinimize: Iter:   5  F: -4682.4379192144579065  |grad|_K:  5.053e-04  alpha:  3.743e-02  linmin:  4.672e-04  cgtest:  5.120e-01  t[s]:    181.73
	FillingsUpdate:  mu: +0.938022556  nElectrons: 756.000000
LCAOMinimize: Iter:   6  F: -4682.4632674100521399  |grad|_K:  2.001e-04  alpha:  4.853e-02  linmin:  4.039e-03  cgtest: -3.901e-02  t[s]:    206.92
	FillingsUpdate:  mu: +0.938854049  nElectrons: 756.000000
LCAOMinimize: Iter:   7  F: -4682.4737112661159699  |grad|_K:  2.569e-04  alpha:  1.290e-01  linmin:  3.165e-03  cgtest:  5.767e-05  t[s]:    232.07
	FillingsUpdate:  mu: +0.943377651  nElectrons: 756.000000
LCAOMinimize: Iter:   8  F: -4682.4948275539427414  |grad|_K:  3.008e-04  alpha:  1.600e-01  linmin:  2.737e-03  cgtest:  4.033e-02  t[s]:    257.22
	FillingsUpdate:  mu: +0.945856807  nElectrons: 756.000000
LCAOMinimize: Iter:   9  F: -4682.5020702867868749  |grad|_K:  8.555e-05  alpha:  3.848e-02  linmin: -1.257e-02  cgtest:  2.459e-01  t[s]:    282.35
	FillingsUpdate:  mu: +0.945932604  nElectrons: 756.000000
LCAOMinimize: Iter:  10  F: -4682.5026945841827910  |grad|_K:  1.555e-05  alpha:  4.144e-02  linmin:  1.145e-04  cgtest: -2.559e-02  t[s]:    307.56
	FillingsUpdate:  mu: +0.945934747  nElectrons: 756.000000
LCAOMinimize: Iter:  11  F: -4682.5027113992109662  |grad|_K:  6.439e-06  alpha:  3.395e-02  linmin:  4.016e-05  cgtest:  3.140e-04  t[s]:    332.73
	FillingsUpdate:  mu: +0.945966714  nElectrons: 756.000000
LCAOMinimize: Iter:  12  F: -4682.5027192494362680  |grad|_K:  7.190e-06  alpha:  9.248e-02  linmin:  1.622e-04  cgtest: -5.151e-04  t[s]:    357.92
	FillingsUpdate:  mu: +0.946100812  nElectrons: 756.000000
LCAOMinimize: Iter:  13  F: -4682.5027448691080281  |grad|_K:  6.280e-06  alpha:  2.423e-01  linmin:  2.282e-04  cgtest:  2.741e-03  t[s]:    383.14
	FillingsUpdate:  mu: +0.946114943  nElectrons: 756.000000
LCAOMinimize: Iter:  14  F: -4682.5027490897718963  |grad|_K:  1.608e-06  alpha:  5.226e-02  linmin: -5.331e-04  cgtest:  1.063e-02  t[s]:    408.34
	FillingsUpdate:  mu: +0.946115391  nElectrons: 756.000000
LCAOMinimize: Iter:  15  F: -4682.5027492915114635  |grad|_K:  8.409e-07  alpha:  3.801e-02  linmin: -1.687e-04  cgtest: -1.424e-03  t[s]:    433.51
LCAOMinimize: 	Predicted alpha/alphaT>3.000000, increasing alphaT to 1.140242e-01.
	FillingsUpdate:  mu: +0.946115526  nElectrons: 756.000000
LCAOMinimize: Iter:  16  F: -4682.5027495107879076  |grad|_K:  1.258e-06  alpha:  1.511e-01  linmin: -9.640e-05  cgtest:  7.354e-04  t[s]:    465.70
LCAOMinimize: Converged (|Delta F|<1.000000e-06 for 2 iters).


---- Citations for features of the code used in this run ----

   Software package:
      R. Sundararaman, K. Letchworth-Weaver, K.A. Schwarz, D. Gunceler, Y. Ozhabes and T.A. Arias, 'JDFTx: software for joint density-functional theory', SoftwareX 6, 278 (2017)

   gga-PBEsol exchange-correlation functional:
      J.P. Perdew et al., Phys. Rev. Lett. 100, 136406 (2008)

   Pseudopotentials:
      KF Garrity, JW Bennett, KM Rabe and D Vanderbilt, Comput. Mater. Sci. 81, 446 (2014)

This list may not be complete. Please suggest additional citations or
report any other bugs at https://github.com/shankar1729/jdftx/issues

Initialization completed successfully at t[s]:    473.47


-------- Electronic minimization -----------
Will mix electronic density at each iteration.
	FillingsUpdate:  mu: +0.946115526  nElectrons: 756.000000
	FillingsUpdate:  mu: +0.880908728  nElectrons: 756.000000
SCF: Cycle:  0   F: -4678.250972989215370   dF: +4.252e+00   |Residual|: 4.534e+00   |deigs|: 5.260e-02  t[s]:    562.13
	FillingsUpdate:  mu: +0.724677732  nElectrons: 756.000000
SCF: Cycle:  1   F: -4694.568715387727934   dF: -1.632e+01   |Residual|: 6.271e-01   |deigs|: 1.927e-01  t[s]:    634.20
	FillingsUpdate:  mu: +0.731603679  nElectrons: 756.000000
SCF: Cycle:  2   F: -4679.127075741729641   dF: +1.544e+01   |Residual|: 2.004e+00   |deigs|: 1.691e-02  t[s]:    706.25
	FillingsUpdate:  mu: +0.733356334  nElectrons: 756.000000
SCF: Cycle:  3   F: -4695.225196357725508   dF: -1.610e+01   |Residual|: 2.529e-01   |deigs|: 1.550e-02  t[s]:    778.31
	FillingsUpdate:  mu: +0.733981732  nElectrons: 756.000000
SCF: Cycle:  4   F: -4694.654346642726523   dF: +5.708e-01   |Residual|: 4.531e-01   |deigs|: 1.349e-03  t[s]:    850.42
	FillingsUpdate:  mu: +0.735157272  nElectrons: 756.000000
SCF: Cycle:  5   F: -4695.257844829949136   dF: -6.035e-01   |Residual|: 1.689e-01   |deigs|: 1.882e-03  t[s]:    922.28
	FillingsUpdate:  mu: +0.734758096  nElectrons: 756.000000
SCF: Cycle:  6   F: -4695.322510979315666   dF: -6.467e-02   |Residual|: 9.864e-02   |deigs|: 5.811e-04  t[s]:    987.71
	FillingsUpdate:  mu: +0.733465474  nElectrons: 756.000000
SCF: Cycle:  7   F: -4695.325359023662713   dF: -2.848e-03   |Residual|: 8.282e-02   |deigs|: 1.618e-03  t[s]:   1052.89
	FillingsUpdate:  mu: +0.733274165  nElectrons: 756.000000
SCF: Cycle:  8   F: -4695.349447908894035   dF: -2.409e-02   |Residual|: 1.388e-02   |deigs|: 2.412e-04  t[s]:   1098.27
	FillingsUpdate:  mu: +0.733396028  nElectrons: 756.000000
SCF: Cycle:  9   F: -4695.349259355937647   dF: +1.886e-04   |Residual|: 1.427e-02   |deigs|: 1.503e-04  t[s]:   1143.59
	FillingsUpdate:  mu: +0.733710268  nElectrons: 756.000000
SCF: Cycle: 10   F: -4695.349796355727449   dF: -5.370e-04   |Residual|: 7.146e-03   |deigs|: 3.700e-04  t[s]:   1189.00
	FillingsUpdate:  mu: +0.733535730  nElectrons: 756.000000
SCF: Cycle: 11   F: -4695.349648348665141   dF: +1.480e-04   |Residual|: 8.039e-03   |deigs|: 2.056e-04  t[s]:   1234.32
	FillingsUpdate:  mu: +0.733548195  nElectrons: 756.000000
SCF: Cycle: 12   F: -4695.349899350453597   dF: -2.510e-04   |Residual|: 1.446e-03   |deigs|: 1.559e-05  t[s]:   1279.66
	FillingsUpdate:  mu: +0.733545114  nElectrons: 756.000000
SCF: Cycle: 13   F: -4695.349896370991701   dF: +2.979e-06   |Residual|: 1.702e-03   |deigs|: 4.949e-06  t[s]:   1324.99
	FillingsUpdate:  mu: +0.733542317  nElectrons: 756.000000
SCF: Cycle: 14   F: -4695.349904028686979   dF: -7.658e-06   |Residual|: 8.900e-04   |deigs|: 6.198e-06  t[s]:   1370.30
	FillingsUpdate:  mu: +0.733541627  nElectrons: 756.000000
SCF: Cycle: 15   F: -4695.349905521005894   dF: -1.492e-06   |Residual|: 6.179e-04   |deigs|: 1.902e-06  t[s]:   1415.66
	FillingsUpdate:  mu: +0.733542544  nElectrons: 756.000000
SCF: Cycle: 16   F: -4695.349906418902719   dF: -8.979e-07   |Residual|: 3.235e-04   |deigs|: 2.056e-06  t[s]:   1460.96
	FillingsUpdate:  mu: +0.733543051  nElectrons: 756.000000
SCF: Cycle: 17   F: -4695.349906265784739   dF: +1.531e-07   |Residual|: 3.741e-04   |deigs|: 9.764e-07  t[s]:   1506.35
	FillingsUpdate:  mu: +0.733543487  nElectrons: 756.000000
SCF: Cycle: 18   F: -4695.349906540179290   dF: -2.744e-07   |Residual|: 2.622e-04   |deigs|: 9.573e-07  t[s]:   1551.69
	FillingsUpdate:  mu: +0.733543513  nElectrons: 756.000000
SCF: Cycle: 19   F: -4695.349906798328448   dF: -2.581e-07   |Residual|: 3.289e-05   |deigs|: 4.042e-07  t[s]:   1597.09
	FillingsUpdate:  mu: +0.733543160  nElectrons: 756.000000
SCF: Cycle: 20   F: -4695.349906773197290   dF: +2.513e-08   |Residual|: 8.082e-05   |deigs|: 4.161e-07  t[s]:   1642.44
	FillingsUpdate:  mu: +0.733543184  nElectrons: 756.000000
SCF: Cycle: 21   F: -4695.349906800533972   dF: -2.734e-08   |Residual|: 1.667e-05   |deigs|: 1.500e-07  t[s]:   1687.80
	FillingsUpdate:  mu: +0.733543185  nElectrons: 756.000000
SCF: Cycle: 22   F: -4695.349906797207041   dF: +3.327e-09   |Residual|: 3.803e-05   |deigs|: 6.231e-08  t[s]:   1733.17
	FillingsUpdate:  mu: +0.733543186  nElectrons: 756.000000
SCF: Cycle: 23   F: -4695.349906800962344   dF: -3.755e-09   |Residual|: 1.483e-05   |deigs|: 5.798e-08  t[s]:   1778.63
	FillingsUpdate:  mu: +0.733543210  nElectrons: 756.000000
SCF: Cycle: 24   F: -4695.349906801498946   dF: -5.366e-10   |Residual|: 2.549e-06   |deigs|: 3.945e-08  t[s]:   1813.42
SCF: Converged (|Delta E|<1.000000e-08 for 2 iters).

Setting wave functions to eigenvectors of Hamiltonian

# Ionic positions in lattice coordinates:
ion Cr   0.000000000000000   0.000000000000000   0.000000000000000 0
ion Cr   0.165400000000000   0.162130000000000   0.180150000000000 1
ion Cr  -0.008310000000000  -0.013310000000000   0.337920000000000 1
ion Cr   0.164090000000000   0.160850000000000   0.494630000000000 1
ion Cr   0.001000000000000  -0.001200000000000   0.668210000000000 1
ion Cr   0.153760000000000   0.169590000000000   0.840810000000000 1
ion Cr  -0.009830000000000   0.342690000000000   0.007010000000000 1
ion Cr   0.166880000000000   0.503240000000000   0.177730000000000 1
ion Cr   0.002060000000000   0.330090000000000   0.327550000000000 1
ion Cr   0.160900000000000   0.497250000000000   0.510620000000000 1
ion Cr  -0.005080000000000   0.308850000000000   0.677130000000000 1
ion Cr   0.153800000000000   0.484960000000000   0.826600000000000 1
ion Cr  -0.001400000000000   0.662240000000000   0.006910000000000 1
ion Cr   0.166860000000000   0.839660000000000   0.177160000000000 1
ion Cr  -0.003840000000000   0.663520000000000   0.321210000000000 1
ion Cr   0.157170000000000   0.824600000000000   0.501890000000000 1
ion Cr   0.008300000000000   0.657200000000000   0.667980000000000 1
ion Cr   0.160660000000000   0.835750000000000   0.835920000000000 1
ion Cr   0.327670000000000   0.012310000000000  -0.029200000000000 1
ion Cr   0.501090000000000   0.170890000000000   0.181850000000000 1
ion Cr   0.345910000000000  -0.005050000000000   0.320260000000000 1
ion Cr   0.515170000000000   0.152090000000000   0.508130000000000 1
ion Cr   0.331240000000000  -0.010590000000000   0.682530000000000 1
ion Cr   0.483570000000000   0.170100000000000   0.837500000000000 1
ion Cr   0.323970000000000   0.299130000000000   0.009470000000000 1
ion Cr   0.493950000000000   0.493350000000000   0.175010000000000 1
ion Cr   0.342530000000000   0.349070000000000   0.328790000000000 1
ion Cr   0.488120000000000   0.494230000000000   0.501880000000000 1
ion Cr   0.336510000000000   0.334540000000000   0.658810000000000 1
ion Cr   0.495600000000000   0.485000000000000   0.830760000000000 1
ion Cr   0.332170000000000   0.665230000000000   0.000660000000000 1
ion Cr   0.503040000000000   0.830060000000000   0.181400000000000 1
ion Cr   0.332160000000000   0.666440000000000   0.340890000000000 1
ion Cr   0.502630000000000   0.826790000000000   0.515760000000000 1
ion Cr   0.319190000000000   0.663330000000000   0.654620000000000 1
ion Cr   0.482410000000000   0.834930000000000   0.845010000000000 1
ion Cr   0.665230000000000   0.002790000000000   0.009400000000000 1
ion Cr   0.846490000000000   0.162580000000000   0.174330000000000 1
ion Cr   0.670560000000000   0.005960000000000   0.324360000000000 1
ion Cr   0.828260000000000   0.146680000000000   0.508710000000000 1
ion Cr   0.669920000000000   0.015150000000000   0.660620000000000 1
ion Cr   0.839630000000000   0.165220000000000   0.844350000000000 1
ion Cr   0.659320000000000   0.337500000000000   0.007180000000000 1
ion Cr   0.839040000000000   0.498490000000000   0.150300000000000 1
ion Cr   0.671600000000000   0.328640000000000   0.327040000000000 1
ion Cr   0.852530000000000   0.500680000000000   0.493680000000000 1
ion Cr   0.653880000000000   0.353630000000000   0.679890000000000 1
ion Cr   0.854580000000000   0.503150000000000   0.836800000000000 1
ion Cr   0.656750000000000   0.677720000000000   0.003640000000000 1
ion Cr   0.834290000000000   0.831450000000000   0.167220000000000 1
ion Cr   0.657180000000000   0.652720000000000   0.332730000000000 1
ion Cr   0.826550000000000   0.835040000000000   0.481040000000000 1
ion Cr   0.663790000000000   0.668230000000000   0.651170000000000 1
ion Cr   0.851340000000000   0.822840000000000   0.836950000000000 1

# Forces in Lattice coordinates:
force Cr   0.022919677948711  -0.058292644385903   0.210802397319283 0
force Cr   0.045455162530777   0.012391780026013  -0.226748353531138 1
force Cr   0.378947752566554   0.327921519873125  -0.117682444694978 1
force Cr   0.192120130210237  -0.007622211257451   0.234106961248648 1
force Cr  -0.027962335083802  -0.316246017677529  -0.069810036187623 1
force Cr   0.179713729312098  -0.216064555328384  -0.262706809189287 1
force Cr   0.373679122921059  -0.443875805868366  -0.099301445006188 1
force Cr   0.054911901899601  -0.121697139390183  -0.306432507897332 1
force Cr   0.041167167383892  -0.020546834502170   0.410505840306091 1
force Cr   0.140113373611211  -0.155696791179779  -0.363842555926568 1
force Cr   0.031222501342670   0.591011248633286  -0.390150978193997 1
force Cr   0.603342578925633   0.284779096692998   0.361712490815518 1
force Cr   0.223920694365712   0.298872932404984  -0.245499585564683 1
force Cr   0.102620911791676  -0.208332332193374  -0.343452067410446 1
force Cr   0.113252795610890  -0.004709372599322   0.430616808422936 1
force Cr   0.198006771130051   0.195946364644093  -0.035890988335527 1
force Cr  -0.443055033331561   0.211462436531275  -0.126981394234128 1
force Cr   0.112983104290188  -0.300205181815604   0.004539765144259 1
force Cr   0.057864859405953  -0.600344606019990   1.206557154753209 1
force Cr   0.075209299144659  -0.268237889010466  -0.437069718147649 1
force Cr  -0.362202972304425   0.125152358414158   0.540121935717746 1
force Cr  -0.508968457970865   0.418130686440866  -0.115920238367906 1
force Cr  -0.058822350806913   0.217285818425941  -0.861031838595423 1
force Cr   0.653599743459520  -0.162939296225631  -0.113827757413868 1
force Cr  -0.003391306759626   1.147395809850263  -0.042361090533951 1
force Cr   0.192872839342991   0.278182060877659  -0.354325912781571 1
force Cr  -0.358004998830011  -0.636998353809831   0.341008242037542 1
force Cr   0.422861123652207   0.118658946351624  -0.042681333001823 1
force Cr  -0.379224847573660  -0.344627510309722   0.166632087075645 1
force Cr  -0.049225266209342   0.588387318104592   0.270426355716833 1
force Cr  -0.165237908046109  -0.057974793610385   0.009631193190117 1
force Cr  -0.138346282416649   0.054375207099849  -0.381021087647574 1
force Cr  -0.105740195135225   0.100417190183141  -0.182284537106634 1
force Cr  -0.135638164411469   0.086824578142989  -0.343918318855294 1
force Cr   0.364052969315415   0.038426269833527   0.510395927678882 1
force Cr   0.608711550477216  -0.264703330161558  -0.210622085918697 1
force Cr  -0.019530061354883  -0.027918895418562  -0.287203971662889 1
force Cr  -0.430287427785771   0.129719849607302  -0.166598677226731 1
force Cr  -0.122750122773606  -0.354175282974330   0.320733807640061 1
force Cr   0.253389566679160   0.716435664961090  -0.157622338585160 1
force Cr  -0.108171367959253  -0.550745308429402   0.492069482234156 1
force Cr  -0.546742981907563   0.011090476338008  -0.066324961266788 1
force Cr   0.088732054050513  -0.121632255621457  -0.205625444917263 1
force Cr  -0.447294396559801   0.081575977600976   0.594157056707017 1
force Cr   0.043662033015495   0.135281623217372   0.402505055164867 1
force Cr  -0.634758601654614  -0.197397284388197   0.096666363454251 1
force Cr   0.497011134188399  -0.475118394426607  -0.245801637427968 1
force Cr  -0.855734470410501  -0.070255863143922  -0.206296512543317 1
force Cr   0.165826735230577  -0.283327976324887  -0.207298269209128 1
force Cr  -0.154530865142436  -0.040604236416496  -0.200844698629383 1
force Cr   0.244320657856421   0.243229704271644  -0.053387832152298 1
force Cr   0.076987036195118  -0.340400489748276   0.581213329760455 1
force Cr   0.132684267753809   0.040119776798166   0.521702672247990 1
force Cr  -0.690124026275321   0.213198875626957  -0.169409533912370 1

# Energy components:
   Eewald =    -3592.5229534222676193
       EH =      991.0144517298764413
     Eloc =    -3100.4026144576973820
      Enl =      507.5296270515408423
      Exc =     -601.1256840385843816
 Exc_core =       40.1474080869844840
       KE =     1060.4850180143562284
-------------------------------------
     Etot =    -4694.8747470357902785
       TS =        0.4751597657088236
-------------------------------------
        F =    -4695.3499068014989462

IonicMinimize: Iter:   0  F: -4695.349906801498946  |grad|_K:  2.129e-02  t[s]:   1830.80

#--- Lowdin population analysis ---
# oxidation-state Cr +0.254 +0.265 +0.240 +0.288 +0.266 +0.240 +0.247 +0.260 +0.257 +0.269 +0.249 +0.279 +0.253 +0.276 +0.255 +0.270 +0.240 +0.258 +0.258 +0.238 +0.252 +0.275 +0.268 +0.241 +0.264 +0.253 +0.257 +0.239 +0.257 +0.262 +0.280 +0.257 +0.270 +0.270 +0.271 +0.259 +0.291 +0.256 +0.246 +0.262 +0.261 +0.259 +0.280 +0.250 +0.282 +0.270 +0.281 +0.267 +0.284 +0.266 +0.276 +0.276 +0.286 +0.282


-------- Electronic minimization -----------
Will mix electronic density at each iteration.
	FillingsUpdate:  mu: +0.733543210  nElectrons: 756.000000
	FillingsUpdate:  mu: +0.733367362  nElectrons: 756.000000
SCF: Cycle:  0   F: -4637.162814047636857   dF: +5.568e+01   |Residual|: 3.069e+00   |deigs|: 4.598e-03  t[s]:   1929.92
	FillingsUpdate:  mu: +0.699265766  nElectrons: 756.000000
SCF: Cycle:  1   F: -4319.569256861541362   dF: +3.176e+02   |Residual|: 8.974e+00   |deigs|: 1.419e-01  t[s]:   2001.93
	FillingsUpdate:  mu: +0.744829328  nElectrons: 756.000000
SCF: Cycle:  2   F: -4614.059083326415021   dF: -2.945e+02   |Residual|: 4.462e+00   |deigs|: 1.134e-01  t[s]:   2073.84
	FillingsUpdate:  mu: +0.753506179  nElectrons: 756.000000
SCF: Cycle:  3   F: -4683.665449406375046   dF: -6.961e+01   |Residual|: 1.797e+00   |deigs|: 3.910e-02  t[s]:   2145.78
	FillingsUpdate:  mu: +0.740903473  nElectrons: 756.000000
SCF: Cycle:  4   F: -4689.042288065849789   dF: -5.377e+00   |Residual|: 1.320e+00   |deigs|: 1.888e-02  t[s]:   2217.77
	FillingsUpdate:  mu: +0.732890791  nElectrons: 756.000000
SCF: Cycle:  5   F: -4693.129571453501740   dF: -4.087e+00   |Residual|: 8.397e-01   |deigs|: 1.124e-02  t[s]:   2289.83
	FillingsUpdate:  mu: +0.732634083  nElectrons: 756.000000
SCF: Cycle:  6   F: -4692.466516986059105   dF: +6.631e-01   |Residual|: 9.058e-01   |deigs|: 1.282e-03  t[s]:   2361.87
	FillingsUpdate:  mu: +0.733771592  nElectrons: 756.000000
SCF: Cycle:  7   F: -4695.326207314125895   dF: -2.860e+00   |Residual|: 1.752e-01   |deigs|: 4.988e-03  t[s]:   2433.76
	FillingsUpdate:  mu: +0.734458111  nElectrons: 756.000000
SCF: Cycle:  8   F: -4695.047701455214337   dF: +2.785e-01   |Residual|: 3.409e-01   |deigs|: 1.095e-03  t[s]:   2505.62
	FillingsUpdate:  mu: +0.734735830  nElectrons: 756.000000
SCF: Cycle:  9   F: -4695.333333221666180   dF: -2.856e-01   |Residual|: 1.487e-01   |deigs|: 8.070e-04  t[s]:   2576.18
	FillingsUpdate:  mu: +0.734356451  nElectrons: 756.000000
SCF: Cycle: 10   F: -4695.367171777601470   dF: -3.384e-02   |Residual|: 1.103e-01   |deigs|: 4.808e-04  t[s]:   2637.43
	FillingsUpdate:  mu: +0.733112388  nElectrons: 756.000000
SCF: Cycle: 11   F: -4695.386168999882102   dF: -1.900e-02   |Residual|: 8.795e-02   |deigs|: 1.411e-03  t[s]:   2709.21
	FillingsUpdate:  mu: +0.733389171  nElectrons: 756.000000
SCF: Cycle: 12   F: -4695.403332010415397   dF: -1.716e-02   |Residual|: 5.692e-02   |deigs|: 3.269e-04  t[s]:   2754.40
	FillingsUpdate:  mu: +0.733627973  nElectrons: 756.000000
SCF: Cycle: 13   F: -4695.415659407417479   dF: -1.233e-02   |Residual|: 8.007e-03   |deigs|: 2.731e-04  t[s]:   2799.64
	FillingsUpdate:  mu: +0.733630825  nElectrons: 756.000000
SCF: Cycle: 14   F: -4695.415695324278204   dF: -3.592e-05   |Residual|: 7.174e-03   |deigs|: 1.841e-05  t[s]:   2844.83
	FillingsUpdate:  mu: +0.733640583  nElectrons: 756.000000
SCF: Cycle: 15   F: -4695.415836375651452   dF: -1.411e-04   |Residual|: 3.490e-03   |deigs|: 1.407e-05  t[s]:   2890.12
	FillingsUpdate:  mu: +0.733636959  nElectrons: 756.000000
SCF: Cycle: 16   F: -4695.415867735806387   dF: -3.136e-05   |Residual|: 2.135e-03   |deigs|: 8.720e-06  t[s]:   2935.35
	FillingsUpdate:  mu: +0.733630602  nElectrons: 756.000000
SCF: Cycle: 17   F: -4695.415873041034502   dF: -5.305e-06   |Residual|: 1.643e-03   |deigs|: 8.793e-06  t[s]:   2980.62
	FillingsUpdate:  mu: +0.733629986  nElectrons: 756.000000
SCF: Cycle: 18   F: -4695.415878857536882   dF: -5.817e-06   |Residual|: 1.091e-03   |deigs|: 3.370e-06  t[s]:   3025.89
	FillingsUpdate:  mu: +0.733629209  nElectrons: 756.000000
SCF: Cycle: 19   F: -4695.415878681865252   dF: +1.757e-07   |Residual|: 1.189e-03   |deigs|: 2.837e-06  t[s]:   3071.14
	FillingsUpdate:  mu: +0.733629163  nElectrons: 756.000000
SCF: Cycle: 20   F: -4695.415881399072532   dF: -2.717e-06   |Residual|: 6.438e-04   |deigs|: 1.499e-06  t[s]:   3116.33
	FillingsUpdate:  mu: +0.733629271  nElectrons: 756.000000
SCF: Cycle: 21   F: -4695.415882663017328   dF: -1.264e-06   |Residual|: 2.789e-04   |deigs|: 1.101e-06  t[s]:   3161.52
	FillingsUpdate:  mu: +0.733630173  nElectrons: 756.000000
SCF: Cycle: 22   F: -4695.415882494429752   dF: +1.686e-07   |Residual|: 3.429e-04   |deigs|: 1.491e-06  t[s]:   3206.68
	FillingsUpdate:  mu: +0.733630057  nElectrons: 756.000000
SCF: Cycle: 23   F: -4695.415882594796130   dF: -1.004e-07   |Residual|: 3.062e-04   |deigs|: 6.188e-07  t[s]:   3251.89
	FillingsUpdate:  mu: +0.733629935  nElectrons: 756.000000
SCF: Cycle: 24   F: -4695.415882894538299   dF: -2.997e-07   |Residual|: 9.131e-05   |deigs|: 6.163e-07  t[s]:   3297.08
	FillingsUpdate:  mu: +0.733629627  nElectrons: 756.000000
SCF: Cycle: 25   F: -4695.415882894170863   dF: +3.674e-10   |Residual|: 9.137e-05   |deigs|: 4.091e-07  t[s]:   3342.22
	FillingsUpdate:  mu: +0.733629574  nElectrons: 756.000000
SCF: Cycle: 26   F: -4695.415882924136895   dF: -2.997e-08   |Residual|: 1.737e-05   |deigs|: 2.192e-07  t[s]:   3387.42
	FillingsUpdate:  mu: +0.733629680  nElectrons: 756.000000
SCF: Cycle: 27   F: -4695.415882920868171   dF: +3.269e-09   |Residual|: 3.162e-05   |deigs|: 2.273e-07  t[s]:   3432.73
	FillingsUpdate:  mu: +0.733629691  nElectrons: 756.000000
SCF: Cycle: 28   F: -4695.415882924679863   dF: -3.812e-09   |Residual|: 7.104e-06   |deigs|: 1.806e-07  t[s]:   3477.67
	FillingsUpdate:  mu: +0.733629683  nElectrons: 756.000000
SCF: Cycle: 29   F: -4695.415882924673497   dF: +6.366e-12   |Residual|: 1.101e-05   |deigs|: 1.055e-07  t[s]:   3512.35
	FillingsUpdate:  mu: +0.733629674  nElectrons: 756.000000
SCF: Cycle: 30   F: -4695.415882924550715   dF: +1.228e-10   |Residual|: 5.718e-06   |deigs|: 5.468e-08  t[s]:   3543.42
	FillingsUpdate:  mu: +0.733629672  nElectrons: 756.000000
SCF: Cycle: 31   F: -4695.415882924860853   dF: -3.101e-10   |Residual|: 5.768e-06   |deigs|: 4.364e-08  t[s]:   3574.60
	FillingsUpdate:  mu: +0.733629670  nElectrons: 756.000000
SCF: Cycle: 32   F: -4695.415882925212827   dF: -3.520e-10   |Residual|: 2.642e-06   |deigs|: 4.086e-08  t[s]:   3605.50
SCF: Converged (|Delta E|<1.000000e-08 for 2 iters).

Setting wave functions to eigenvectors of Hamiltonian

# Ionic positions in lattice coordinates:
ion Cr   0.000000000000000   0.000000000000000   0.000000000000000 0
ion Cr   0.165577866301988   0.162178489103670   0.179262732440518 1
ion Cr  -0.006827175351641  -0.012026841281940   0.337459507944061 1
ion Cr   0.164841767130408   0.160820174245259   0.495546061832115 1
ion Cr   0.000890583228408  -0.002437472413496   0.667936832942904 1
ion Cr   0.154463220815185   0.168744538201882   0.839782026804964 1
ion Cr  -0.008367791528538   0.340953111520536   0.006621432897344 1
ion Cr   0.167094870575359   0.502763798421549   0.176530927904464 1
ion Cr   0.002221087353300   0.330009600123133   0.329156311619949 1
ion Cr   0.161448264404653   0.496640757596349   0.509196282069505 1
ion Cr  -0.004957826179834   0.311162630279492   0.675603337067896 1
ion Cr   0.156160882843020   0.486074342177922   0.828015382973953 1
ion Cr  -0.000523797086447   0.663409491434890   0.005949358766026 1
ion Cr   0.167261556194518   0.838844794433707   0.175816070163666 1
ion Cr  -0.003396841185388   0.663501572199014   0.322895005949244 1
ion Cr   0.157944801588834   0.825366739206877   0.501749558364451 1
ion Cr   0.006566323208005   0.658027453681852   0.667483121103165 1
ion Cr   0.161102103510985   0.834575295465810   0.835937764126078 1
ion Cr   0.327896425514388   0.009960848241515  -0.024478735190790 1
ion Cr   0.501384294402862   0.169840383659081   0.180139743779370 1
ion Cr   0.344492697769272  -0.004560278130429   0.322373500117040 1
ion Cr   0.513178403613414   0.153726147684979   0.507676403467150 1
ion Cr   0.331009827816473  -0.009739759392638   0.679160777660921 1
ion Cr   0.486127539405363   0.169462417634111   0.837054591356678 1
ion Cr   0.323956729797923   0.303619766139913   0.009304240818821 1
ion Cr   0.494704712485401   0.494438527940348   0.173623520746683 1
ion Cr   0.341129124462659   0.346577421924010   0.330124367134155 1
ion Cr   0.489774657911909   0.494694313112314   0.501712987708276 1
ion Cr   0.335026091077348   0.333191470649110   0.659462032276877 1
ion Cr   0.495407381261499   0.487302362824844   0.831818179823226 1
ion Cr   0.331523423153365   0.665003144312463   0.000697686912137 1
ion Cr   0.502498650232949   0.830272770485644   0.179909062380020 1
ion Cr   0.331746238032534   0.666832933019695   0.340176719599719 1
ion Cr   0.502099247113658   0.827129745053723   0.514414245719187 1
ion Cr   0.320614541279247   0.663480362206050   0.656617182083436 1
ion Cr   0.484791891658349   0.833894214407375   0.844185834614736 1
ion Cr   0.665153578762072   0.002680753208058   0.008276169272930 1
ion Cr   0.844806282919008   0.163087594487832   0.173678098456047 1
ion Cr   0.670079678091755   0.004574110161950   0.325615033160402 1
ion Cr   0.829251514773644   0.149483416713182   0.508093222918719 1
ion Cr   0.669496724839848   0.012994930566876   0.662545470601211 1
ion Cr   0.837490591692657   0.165263397095153   0.844090470060314 1
ion Cr   0.659667209017482   0.337024052312095   0.006375386498566 1
ion Cr   0.837289734556282   0.498809207250819   0.152624939843856 1
ion Cr   0.671770849776293   0.329169357738681   0.328615004503510 1
ion Cr   0.850046186086561   0.499907583336153   0.494058256013992 1
ion Cr   0.655824807312596   0.351770859098984   0.678928176835417 1
ion Cr   0.851231506291881   0.502875088419562   0.835992760607240 1
ion Cr   0.657398880930660   0.676611336064091   0.002828840727875 1
ion Cr   0.833685319871372   0.831291115398684   0.166434093585190 1
ion Cr   0.658136028083341   0.653671759175940   0.332521093117978 1
ion Cr   0.826851250697757   0.833708011003909   0.483314290968838 1
ion Cr   0.664309194272409   0.668386988908154   0.653211425437371 1
ion Cr   0.848639540874290   0.823674248377622   0.836287099558314 1

# Forces in Lattice coordinates:
force Cr   0.003142251166760  -0.053705576919314   0.184837194487498 0
force Cr   0.047186823261218   0.032805785422561  -0.220985745438794 1
force Cr   0.309633579311532   0.270507309311718  -0.104362804800878 1
force Cr   0.161085460428673  -0.003690275431247   0.221206879779854 1
force Cr  -0.051804974841140  -0.230774884687470  -0.050398442680512 1
force Cr   0.195681917320065  -0.208505648455631  -0.218584195562140 1
force Cr   0.291430485344765  -0.354570550593209  -0.091853650426589 1
force Cr   0.024039454227017  -0.117648267929580  -0.260362481104656 1
force Cr   0.017814935061322  -0.016260342948758   0.342007666715944 1
force Cr   0.136108962422949  -0.111122358119026  -0.306660400299970 1
force Cr   0.033753329250459   0.526271123383697  -0.321130743188289 1
force Cr   0.465770773407211   0.263018344754816   0.319868570405055 1
force Cr   0.142062003936984   0.213919462329315  -0.214508989323883 1
force Cr   0.067542792438548  -0.196418101146800  -0.297763830702496 1
force Cr   0.090317509443413  -0.000275599288442   0.350308668871528 1
force Cr   0.186256816001508   0.166311216110264  -0.026701172448212 1
force Cr  -0.370150703503621   0.158224247387509  -0.094547287101297 1
force Cr   0.125318025958772  -0.227932316412599  -0.011307267156443 1
force Cr   0.076376834384585  -0.495102383819528   0.958964551537607 1
force Cr   0.042091219843834  -0.218036967880454  -0.363656974680330 1
force Cr  -0.307101731059920   0.119549108235635   0.455701690747508 1
force Cr  -0.411945987884230   0.345299537030976  -0.106465317420393 1
force Cr  -0.026374373709504   0.202221292747272  -0.642841540438512 1
force Cr   0.485461914316331  -0.161020317775370  -0.073126756444289 1
force Cr   0.033240251638739   0.983017387747974  -0.085485505826954 1
force Cr   0.152698216665451   0.217616640539038  -0.287554324514939 1
force Cr  -0.287553429351412  -0.525022971630511   0.284374403820970 1
force Cr   0.349748371225437   0.095423186707552  -0.028739325174292 1
force Cr  -0.287852286752493  -0.261671569599746   0.182818688954858 1
force Cr  -0.020242073547432   0.468152576360550   0.206541071181814 1
force Cr  -0.114941799986839  -0.054677217390028   0.007049589656870 1
force Cr  -0.128208919929860   0.062476111382956  -0.325597455326455 1
force Cr  -0.070107896848467   0.054906442699250  -0.162158995094776 1
force Cr  -0.122179156012465   0.087140878719501  -0.301217748028613 1
force Cr   0.303249882242473   0.012296275963704   0.433592415298444 1
force Cr   0.501950824462398  -0.177688824297466  -0.195933682273886 1
force Cr  -0.016803903862534  -0.035947237404297  -0.257170325552494 1
force Cr  -0.358760598631316   0.110719156455590  -0.137166240678558 1
force Cr  -0.100926575899279  -0.311611659398261   0.299279653797877 1
force Cr   0.201076993241992   0.596276288122646  -0.130310080101992 1
force Cr  -0.095832997213639  -0.449792361809131   0.398009728724481 1
force Cr  -0.453361335298202   0.013156925684886  -0.088648956549905 1
force Cr   0.088725500869552  -0.097690484402473  -0.172704537580561 1
force Cr  -0.345217298630092   0.055086047148595   0.472704624615211 1
force Cr   0.008929268857023   0.104276225261862   0.351071871314485 1
force Cr  -0.574883573792351  -0.165429913913522   0.107139622799174 1
force Cr   0.396978814921478  -0.454366327605499  -0.222373311873810 1
force Cr  -0.744858839571848  -0.081226735184046  -0.158027233736119 1
force Cr   0.161846886389892  -0.270658844931148  -0.182219706458163 1
force Cr  -0.109622784674600  -0.020731779157622  -0.136059779201590 1
force Cr   0.216072372466317   0.234385089593186  -0.038332172495193 1
force Cr   0.087323766700542  -0.252640581500327   0.512896088195012 1
force Cr   0.105014108968930   0.025470524822077   0.455712752269412 1
force Cr  -0.606297946613762   0.204704133056739  -0.156953242956883 1

# Energy components:
   Eewald =    -3598.8879023122176477
       EH =      984.5844360491483940
     Eloc =    -3087.1870133159027318
      Enl =      507.3925968365273320
      Exc =     -600.9721760330589859
 Exc_core =       40.1471661954351760
       KE =     1059.9755356050700357
-------------------------------------
     Etot =    -4694.9473569749980015
       TS =        0.4685259502147827
-------------------------------------
        F =    -4695.4158829252128271

IonicMinimize: Iter:   1  F: -4695.415882925212827  |grad|_K:  1.774e-02  alpha:  1.000e+00  linmin: -9.956e-01  t[s]:   3622.91

#--- Lowdin population analysis ---
# oxidation-state Cr +0.257 +0.266 +0.245 +0.285 +0.268 +0.246 +0.252 +0.261 +0.259 +0.270 +0.253 +0.280 +0.256 +0.275 +0.258 +0.269 +0.246 +0.260 +0.265 +0.244 +0.255 +0.276 +0.271 +0.249 +0.267 +0.257 +0.261 +0.245 +0.260 +0.266 +0.278 +0.260 +0.271 +0.271 +0.271 +0.262 +0.288 +0.259 +0.251 +0.265 +0.264 +0.262 +0.279 +0.255 +0.281 +0.270 +0.281 +0.270 +0.281 +0.267 +0.275 +0.277 +0.284 +0.281


-------- Electronic minimization -----------
Will mix electronic density at each iteration.
	FillingsUpdate:  mu: +0.733629670  nElectrons: 756.000000
	FillingsUpdate:  mu: +0.730720066  nElectrons: 756.000000
SCF: Cycle:  0   F: -4571.689130005763218   dF: +1.199e+02   |Residual|: 4.094e+00   |deigs|: 6.738e-03  t[s]:   3721.84
	FillingsUpdate:  mu: +0.698136761  nElectrons: 756.000000
SCF: Cycle:  1   F: -4094.829131523896194   dF: +4.769e+02   |Residual|: 1.074e+01   |deigs|: 1.980e-01  t[s]:   3793.58
	FillingsUpdate:  mu: +0.748652080  nElectrons: 756.000000
SCF: Cycle:  2   F: -4560.908433731661717   dF: -4.661e+02   |Residual|: 5.394e+00   |deigs|: 1.596e-01  t[s]:   3865.33
	FillingsUpdate:  mu: +0.760868494  nElectrons: 756.000000
SCF: Cycle:  3   F: -4661.495167515106004   dF: -1.006e+02   |Residual|: 2.698e+00   |deigs|: 4.970e-02  t[s]:   3937.07
	FillingsUpdate:  mu: +0.746987104  nElectrons: 756.000000
SCF: Cycle:  4   F: -4683.260421712515381   dF: -2.177e+01   |Residual|: 1.737e+00   |deigs|: 2.908e-02  t[s]:   4008.85
	FillingsUpdate:  mu: +0.736493142  nElectrons: 756.000000
SCF: Cycle:  5   F: -4692.613040577381071   dF: -9.353e+00   |Residual|: 9.221e-01   |deigs|: 1.682e-02  t[s]:   4080.68
	FillingsUpdate:  mu: +0.731249186  nElectrons: 756.000000
SCF: Cycle:  6   F: -4688.331317678894266   dF: +4.282e+00   |Residual|: 1.425e+00   |deigs|: 7.339e-03  t[s]:   4152.47
	FillingsUpdate:  mu: +0.732971584  nElectrons: 756.000000
SCF: Cycle:  7   F: -4694.986111668613376   dF: -6.655e+00   |Residual|: 4.087e-01   |deigs|: 7.831e-03  t[s]:   4224.36
	FillingsUpdate:  mu: +0.734266965  nElectrons: 756.000000
SCF: Cycle:  8   F: -4694.737267207055993   dF: +2.488e-01   |Residual|: 4.845e-01   |deigs|: 1.717e-03  t[s]:   4296.20
	FillingsUpdate:  mu: +0.735448631  nElectrons: 756.000000
SCF: Cycle:  9   F: -4695.330830454390707   dF: -5.936e-01   |Residual|: 2.193e-01   |deigs|: 1.788e-03  t[s]:   4367.14
	FillingsUpdate:  mu: +0.735065627  nElectrons: 756.000000
SCF: Cycle: 10   F: -4695.321948739321670   dF: +8.882e-03   |Residual|: 2.024e-01   |deigs|: 5.365e-04  t[s]:   4432.41
	FillingsUpdate:  mu: +0.733494563  nElectrons: 756.000000
SCF: Cycle: 11   F: -4695.467746428581449   dF: -1.458e-01   |Residual|: 6.320e-02   |deigs|: 1.928e-03  t[s]:   4504.14
	FillingsUpdate:  mu: +0.733431420  nElectrons: 756.000000
SCF: Cycle: 12   F: -4695.445755109065431   dF: +2.199e-02   |Residual|: 9.769e-02   |deigs|: 1.642e-04  t[s]:   4564.55
	FillingsUpdate:  mu: +0.733701282  nElectrons: 756.000000
SCF: Cycle: 13   F: -4695.479547228651427   dF: -3.379e-02   |Residual|: 1.593e-02   |deigs|: 3.606e-04  t[s]:   4609.76
	FillingsUpdate:  mu: +0.733738631  nElectrons: 756.000000
SCF: Cycle: 14   F: -4695.478614341768662   dF: +9.329e-04   |Residual|: 2.059e-02   |deigs|: 5.751e-05  t[s]:   4654.91
	FillingsUpdate:  mu: +0.733751169  nElectrons: 756.000000
SCF: Cycle: 15   F: -4695.480360608206865   dF: -1.746e-03   |Residual|: 6.728e-03   |deigs|: 3.164e-05  t[s]:   4700.19
	FillingsUpdate:  mu: +0.733762805  nElectrons: 756.000000
SCF: Cycle: 16   F: -4695.480359943517215   dF: +6.647e-07   |Residual|: 6.154e-03   |deigs|: 1.950e-05  t[s]:   4745.37
	FillingsUpdate:  mu: +0.733765173  nElectrons: 756.000000
SCF: Cycle: 17   F: -4695.480491474149858   dF: -1.315e-04   |Residual|: 2.582e-03   |deigs|: 1.008e-05  t[s]:   4790.57
	FillingsUpdate:  mu: +0.733759708  nElectrons: 756.000000
SCF: Cycle: 18   F: -4695.480480438436643   dF: +1.104e-05   |Residual|: 3.181e-03   |deigs|: 7.830e-06  t[s]:   4835.75
	FillingsUpdate:  mu: +0.733758652  nElectrons: 756.000000
SCF: Cycle: 19   F: -4695.480505346543396   dF: -2.491e-05   |Residual|: 2.002e-03   |deigs|: 5.088e-06  t[s]:   4880.96
	FillingsUpdate:  mu: +0.733755280  nElectrons: 756.000000
SCF: Cycle: 20   F: -4695.480511994462177   dF: -6.648e-06   |Residual|: 1.232e-03   |deigs|: 4.879e-06  t[s]:   4926.17
	FillingsUpdate:  mu: +0.733752561  nElectrons: 756.000000
SCF: Cycle: 21   F: -4695.480515629280490   dF: -3.635e-06   |Residual|: 6.199e-04   |deigs|: 3.661e-06  t[s]:   4971.37
	FillingsUpdate:  mu: +0.733755286  nElectrons: 756.000000
SCF: Cycle: 22   F: -4695.480514189912356   dF: +1.439e-06   |Residual|: 8.546e-04   |deigs|: 3.898e-06  t[s]:   5016.57
	FillingsUpdate:  mu: +0.733755457  nElectrons: 756.000000
SCF: Cycle: 23   F: -4695.480516013929446   dF: -1.824e-06   |Residual|: 6.085e-04   |deigs|: 1.258e-06  t[s]:   5061.73
	FillingsUpdate:  mu: +0.733755921  nElectrons: 756.000000
SCF: Cycle: 24   F: -4695.480516983157941   dF: -9.692e-07   |Residual|: 2.528e-04   |deigs|: 8.947e-07  t[s]:   5106.91
	FillingsUpdate:  mu: +0.733755741  nElectrons: 756.000000
SCF: Cycle: 25   F: -4695.480516872733460   dF: +1.104e-07   |Residual|: 3.191e-04   |deigs|: 6.042e-07  t[s]:   5152.07
	FillingsUpdate:  mu: +0.733755617  nElectrons: 756.000000
SCF: Cycle: 26   F: -4695.480517068112022   dF: -1.954e-07   |Residual|: 2.071e-04   |deigs|: 5.885e-07  t[s]:   5197.25
	FillingsUpdate:  mu: +0.733755483  nElectrons: 756.000000
SCF: Cycle: 27   F: -4695.480517179744311   dF: -1.116e-07   |Residual|: 1.493e-04   |deigs|: 4.525e-07  t[s]:   5242.47
	FillingsUpdate:  mu: +0.733755307  nElectrons: 756.000000
SCF: Cycle: 28   F: -4695.480517210863582   dF: -3.112e-08   |Residual|: 1.166e-04   |deigs|: 3.269e-07  t[s]:   5287.67
	FillingsUpdate:  mu: +0.733755334  nElectrons: 756.000000
SCF: Cycle: 29   F: -4695.480517241959205   dF: -3.110e-08   |Residual|: 7.343e-05   |deigs|: 2.324e-07  t[s]:   5332.86
	FillingsUpdate:  mu: +0.733755304  nElectrons: 756.000000
SCF: Cycle: 30   F: -4695.480517248351134   dF: -6.392e-09   |Residual|: 6.787e-05   |deigs|: 1.645e-07  t[s]:   5378.07
	FillingsUpdate:  mu: +0.733755332  nElectrons: 756.000000
SCF: Cycle: 31   F: -4695.480517249205150   dF: -8.540e-10   |Residual|: 6.025e-05   |deigs|: 1.468e-07  t[s]:   5423.23
SCF: Converged (|Delta E|<1.000000e-08 for 2 iters).

Setting wave functions to eigenvectors of Hamiltonian

# Ionic positions in lattice coordinates:
ion Cr   0.000000000000000   0.000000000000000   0.000000000000000 0
ion Cr   0.166022116457582   0.162797309887573   0.177406052818991 1
ion Cr  -0.005213828183545  -0.010566676893447   0.336753678487820 1
ion Cr   0.165762195876684   0.160851060150329   0.497289525971585 1
ion Cr   0.000048818173820  -0.003094383242171   0.667805404301575 1
ion Cr   0.156447292176977   0.167026949213912   0.838565491566727 1
ion Cr  -0.007123746014942   0.339265870236201   0.005931221361419 1
ion Cr   0.166808819006140   0.501791168886554   0.174977223277521 1
ion Cr   0.002001461709230   0.329935306661986   0.331068447942105 1
ion Cr   0.162584482077636   0.496379602149770   0.507413410227128 1
ion Cr  -0.004619199017572   0.314761081519862   0.673883812547826 1
ion Cr   0.158050392511355   0.488043719809584   0.830162274372667 1
ion Cr  -0.000591273326508   0.663926046868996   0.004556886103206 1
ion Cr   0.167291455357954   0.837304123848520   0.173926229188800 1
ion Cr  -0.002970080244630   0.663570681701330   0.324689819137929 1
ion Cr   0.159398474203183   0.826355854469920   0.501662267385077 1
ion Cr   0.004476988383883   0.658564375059223   0.667172310554666 1
ion Cr   0.162406760143253   0.833730503201255   0.835582305739374 1
ion Cr   0.328868964737707   0.007290905542172  -0.020013226168290 1
ion Cr   0.501221271469675   0.168726752695502   0.178115903816515 1
ion Cr   0.342672355733710  -0.003595958924784   0.325031799777558 1
ion Cr   0.511109484428090   0.155597412178482   0.506889665409246 1
ion Cr   0.331300701298062  -0.008198721219366   0.677009865836347 1
ion Cr   0.487697578504871   0.168072768381974   0.837066155097585 1
ion Cr   0.324841061456073   0.309640182513297   0.007854206533045 1
ion Cr   0.495403666800796   0.495381214518112   0.172163943535088 1
ion Cr   0.339728933358394   0.343752145444618   0.331719466591673 1
ion Cr   0.491680628756276   0.495161270963584   0.501684393814705 1
ion Cr   0.333960833215948   0.332221387888062   0.661336141128435 1
ion Cr   0.495696451474807   0.489492627707527   0.832609583872189 1
ion Cr   0.331320892306630   0.664573958716934   0.000718227028640 1
ion Cr   0.501531089253657   0.830954682149785   0.177930742471144 1
ion Cr   0.331702649993506   0.666583011805039   0.339070795665611 1
ion Cr   0.501238480445370   0.827903655125232   0.512445724940829 1
ion Cr   0.322308898176530   0.663167227335887   0.659203320661465 1
ion Cr   0.487497753431922   0.833730562048659   0.842694200414576 1
ion Cr   0.665049312980936   0.002234065191303   0.006491873192200 1
ion Cr   0.842795211466424   0.163757836856546   0.172942845897266 1
ion Cr   0.669541379499305   0.002511678675811   0.327909275795803 1
ion Cr   0.830181442698044   0.152805277930168   0.507384249249734 1
ion Cr   0.668850316965091   0.010655529204815   0.664539240989568 1
ion Cr   0.834997536366052   0.165412818101757   0.842948150470616 1
ion Cr   0.660449890131588   0.336548482895858   0.005382882963393 1
ion Cr   0.835891092608523   0.498867780344776   0.154835717485788 1
ion Cr   0.671289199550904   0.329589055402879   0.330882461948374 1
ion Cr   0.845940347537827   0.498963874909081   0.495172493642133 1
ion Cr   0.657713112264402   0.348097025083378   0.677344299886971 1
ion Cr   0.846448967701005   0.501981439817727   0.835377401715360 1
ion Cr   0.658762569538451   0.674427852063351   0.001625849078734 1
ion Cr   0.833442778071172   0.831428859194177   0.166279031625062 1
ion Cr   0.659586542263769   0.655596925824936   0.332425834957708 1
ion Cr   0.827788458611969   0.832895119010642   0.486737021601781 1
ion Cr   0.664789217602912   0.668375331871577   0.656167204560991 1
ion Cr   0.844643008222717   0.825343198089153   0.835103356796179 1

# Forces in Lattice coordinates:
force Cr  -0.009226164731896  -0.050929734342696   0.149672353722576 0
force Cr   0.039480186165912   0.037912129096140  -0.183685124226832 1
force Cr   0.249890603736581   0.218721408184058  -0.079284421138961 1
force Cr   0.116359548017192   0.010088372147166   0.175515988081878 1
force Cr  -0.032296991078287  -0.162060674946813  -0.035038641084111 1
force Cr   0.139796076225357  -0.129347403909839  -0.168068660206992 1
force Cr   0.226402021241192  -0.290911439493914  -0.086612634599160 1
force Cr   0.014714802749510  -0.098094887262457  -0.210458821292587 1
force Cr   0.005472499221728  -0.010675620937098   0.253929176156902 1
force Cr   0.102430576008876  -0.073005891312645  -0.238917839119307 1
force Cr   0.041956041217989   0.441286662704309  -0.245705250928426 1
force Cr   0.349739659343369   0.208648782530296   0.248007479132504 1
force Cr   0.095638887702762   0.162202316794636  -0.181343531034499 1
force Cr   0.045639104008448  -0.164984925503065  -0.243025397406501 1
force Cr   0.072890075155643  -0.000780521887752   0.286164233228551 1
force Cr   0.162581840454689   0.130361389323481  -0.020957508585144 1
force Cr  -0.287155977202028   0.124893839503120  -0.067643889997522 1
force Cr   0.081572056727901  -0.181469876240004  -0.015108817601214 1
force Cr   0.063764857690478  -0.402951603291204   0.826923886248878 1
force Cr   0.027100811831598  -0.160435657568422  -0.279065481821455 1
force Cr  -0.258861768926225   0.094444446300599   0.363918766078474 1
force Cr  -0.330456281528768   0.275597919547227  -0.092172612885855 1
force Cr  -0.019511854704160   0.164222275576751  -0.517026309016177 1
force Cr   0.384058073136507  -0.103265877097548  -0.053315932114609 1
force Cr   0.048103698765159   0.741910612198204  -0.095166180540298 1
force Cr   0.124772469959214   0.166838328388407  -0.219232111890929 1
force Cr  -0.231833892362893  -0.416479147401753   0.211685640760512 1
force Cr   0.286255162202503   0.079109589111468  -0.019301270436334 1
force Cr  -0.213908832454307  -0.185900343715589   0.169673950402352 1
force Cr   0.002812625703119   0.361440968748246   0.150725615045778 1
force Cr  -0.078451663983924  -0.039411625900404   0.006438049306676 1
force Cr  -0.093927137832456   0.048361448257173  -0.259484699214883 1
force Cr  -0.045523640996947   0.040622415983922  -0.133364544332890 1
force Cr  -0.094035435636673   0.071519761943310  -0.236173748085810 1
force Cr   0.242172406365418   0.013682315793294   0.350027106621764 1
force Cr   0.392831415723072  -0.146661282316655  -0.170846997257373 1
force Cr  -0.007361245714664  -0.039071742954161  -0.198785799486429 1
force Cr  -0.293729771675833   0.081882991702112  -0.107241533936760 1
force Cr  -0.081864530470598  -0.238984058233853   0.242744948749914 1
force Cr   0.156187953226514   0.442959565532401  -0.111572528373765 1
force Cr  -0.083767072118619  -0.358489518157546   0.290089878772632 1
force Cr  -0.318571582174004   0.014049972971837  -0.088887134847335 1
force Cr   0.080418628105786  -0.090705316809737  -0.128675774502247 1
force Cr  -0.258969580135008   0.040573730440802   0.375490605550361 1
force Cr  -0.017658463492675   0.076862859502599   0.261327022593543 1
force Cr  -0.435350567012561  -0.118154461947385   0.106599482323457 1
force Cr   0.313001413239020  -0.376421943270367  -0.189445881546972 1
force Cr  -0.562218947805844  -0.073561796136781  -0.128296088092105 1
force Cr   0.141315995254210  -0.227733057925272  -0.133881540655010 1
force Cr  -0.086048227938983  -0.014715813081133  -0.099064559473205 1
force Cr   0.180974352281184   0.195805194203352  -0.020584502581453 1
force Cr   0.088081918616098  -0.185062886698752   0.397266048726605 1
force Cr   0.067659482886450   0.009340626137559   0.357676156872563 1
force Cr  -0.453589578833293   0.176851520427439  -0.116899292288342 1

# Energy components:
   Eewald =    -3604.7329403682656448
       EH =      978.6437978862256841
     Eloc =    -3074.9938408336706743
      Enl =      507.2534160709491289
      Exc =     -600.8264602091697952
 Exc_core =       40.1472480337700262
       KE =     1059.4890037765387660
-------------------------------------
     Etot =    -4695.0197756436227792
       TS =        0.4607416055823906
-------------------------------------
        F =    -4695.4805172492051497

IonicMinimize: Iter:   2  F: -4695.480517249205150  |grad|_K:  1.397e-02  alpha:  2.082e-01  linmin: -9.668e-01  t[s]:   5440.54

#--- Lowdin population analysis ---
# oxidation-state Cr +0.260 +0.269 +0.251 +0.283 +0.269 +0.252 +0.257 +0.264 +0.263 +0.271 +0.258 +0.279 +0.260 +0.275 +0.262 +0.270 +0.253 +0.262 +0.268 +0.252 +0.259 +0.277 +0.271 +0.254 +0.269 +0.262 +0.264 +0.251 +0.263 +0.269 +0.277 +0.264 +0.271 +0.272 +0.272 +0.265 +0.285 +0.263 +0.256 +0.267 +0.266 +0.265 +0.278 +0.259 +0.280 +0.271 +0.281 +0.272 +0.279 +0.269 +0.275 +0.276 +0.283 +0.280


-------- Electronic minimization -----------
Will mix electronic density at each iteration.
	FillingsUpdate:  mu: +0.733755332  nElectrons: 756.000000
	FillingsUpdate:  mu: +0.730095100  nElectrons: 756.000000
SCF: Cycle:  0   F: -4621.582107011387052   dF: +7.106e+01   |Residual|: 3.256e+00   |deigs|: 4.688e-03  t[s]:   5539.53
	FillingsUpdate:  mu: +0.704520406  nElectrons: 756.000000
SCF: Cycle:  1   F: -4187.208346842863648   dF: +4.344e+02   |Residual|: 9.674e+00   |deigs|: 1.553e-01  t[s]:   5611.36
	FillingsUpdate:  mu: +0.746209000  nElectrons: 756.000000
SCF: Cycle:  2   F: -4600.454553736602975   dF: -4.132e+02   |Residual|: 4.585e+00   |deigs|: 1.251e-01  t[s]:   5683.09
	FillingsUpdate:  mu: +0.755218256  nElectrons: 756.000000
SCF: Cycle:  3   F: -4680.965623008720286   dF: -8.051e+01   |Residual|: 1.890e+00   |deigs|: 4.103e-02  t[s]:   5754.84
	FillingsUpdate:  mu: +0.742773867  nElectrons: 756.000000
SCF: Cycle:  4   F: -4689.139580899464818   dF: -8.174e+00   |Residual|: 1.355e+00   |deigs|: 2.069e-02  t[s]:   5826.52
	FillingsUpdate:  mu: +0.733953931  nElectrons: 756.000000
SCF: Cycle:  5   F: -4693.352450283432518   dF: -4.213e+00   |Residual|: 8.380e-01   |deigs|: 1.280e-02  t[s]:   5898.25
	FillingsUpdate:  mu: +0.732392639  nElectrons: 756.000000
SCF: Cycle:  6   F: -4691.576379842800634   dF: +1.776e+00   |Residual|: 1.090e+00   |deigs|: 2.676e-03  t[s]:   5970.03
	FillingsUpdate:  mu: +0.733477008  nElectrons: 756.000000
SCF: Cycle:  7   F: -4695.303472736224649   dF: -3.727e+00   |Residual|: 2.611e-01   |deigs|: 5.568e-03  t[s]:   6041.82
	FillingsUpdate:  mu: +0.734402321  nElectrons: 756.000000
SCF: Cycle:  8   F: -4695.096566578788043   dF: +2.069e-01   |Residual|: 3.742e-01   |deigs|: 1.300e-03  t[s]:   6113.94
	FillingsUpdate:  mu: +0.735193222  nElectrons: 756.000000
SCF: Cycle:  9   F: -4695.408715535825650   dF: -3.121e-01   |Residual|: 1.837e-01   |deigs|: 1.220e-03  t[s]:   6184.30
	FillingsUpdate:  mu: +0.734840525  nElectrons: 756.000000
SCF: Cycle: 10   F: -4695.445688647100724   dF: -3.697e-02   |Residual|: 1.381e-01   |deigs|: 4.751e-04  t[s]:   6248.67
	FillingsUpdate:  mu: +0.733539646  nElectrons: 756.000000
SCF: Cycle: 11   F: -4695.509505074300250   dF: -6.382e-02   |Residual|: 6.238e-02   |deigs|: 1.564e-03  t[s]:   6320.65
	FillingsUpdate:  mu: +0.733648912  nElectrons: 756.000000
SCF: Cycle: 12   F: -4695.507966723782374   dF: +1.538e-03   |Residual|: 6.468e-02   |deigs|: 1.422e-04  t[s]:   6365.81
	FillingsUpdate:  mu: +0.733824682  nElectrons: 756.000000
SCF: Cycle: 13   F: -4695.523842712093938   dF: -1.588e-02   |Residual|: 6.847e-03   |deigs|: 2.265e-04  t[s]:   6411.00
	FillingsUpdate:  mu: +0.733839091  nElectrons: 756.000000
SCF: Cycle: 14   F: -4695.523848376082242   dF: -5.664e-06   |Residual|: 6.661e-03   |deigs|: 2.373e-05  t[s]:   6456.23
	FillingsUpdate:  mu: +0.733866972  nElectrons: 756.000000
SCF: Cycle: 15   F: -4695.523838276993956   dF: +1.010e-05   |Residual|: 6.935e-03   |deigs|: 3.466e-05  t[s]:   6501.45
	FillingsUpdate:  mu: +0.733866795  nElectrons: 756.000000
SCF: Cycle: 16   F: -4695.524020291172747   dF: -1.820e-04   |Residual|: 1.750e-03   |deigs|: 9.816e-06  t[s]:   6546.60
	FillingsUpdate:  mu: +0.733857151  nElectrons: 756.000000
SCF: Cycle: 17   F: -4695.524021830665333   dF: -1.539e-06   |Residual|: 1.769e-03   |deigs|: 1.394e-05  t[s]:   6591.82
	FillingsUpdate:  mu: +0.733853980  nElectrons: 756.000000
SCF: Cycle: 18   F: -4695.524028915627241   dF: -7.085e-06   |Residual|: 1.124e-03   |deigs|: 3.873e-06  t[s]:   6636.96
	FillingsUpdate:  mu: +0.733851625  nElectrons: 756.000000
SCF: Cycle: 19   F: -4695.524027085443777   dF: +1.830e-06   |Residual|: 1.331e-03   |deigs|: 3.920e-06  t[s]:   6682.20
	FillingsUpdate:  mu: +0.733851149  nElectrons: 756.000000
SCF: Cycle: 20   F: -4695.524030487456912   dF: -3.402e-06   |Residual|: 7.796e-04   |deigs|: 1.987e-06  t[s]:   6727.38
	FillingsUpdate:  mu: +0.733852551  nElectrons: 756.000000
SCF: Cycle: 21   F: -4695.524032448697653   dF: -1.961e-06   |Residual|: 2.279e-04   |deigs|: 1.964e-06  t[s]:   6772.50
	FillingsUpdate:  mu: +0.733852428  nElectrons: 756.000000
SCF: Cycle: 22   F: -4695.524031252107306   dF: +1.197e-06   |Residual|: 5.911e-04   |deigs|: 1.085e-06  t[s]:   6817.72
	FillingsUpdate:  mu: +0.733853178  nElectrons: 756.000000
SCF: Cycle: 23   F: -4695.524032466448261   dF: -1.214e-06   |Residual|: 2.191e-04   |deigs|: 1.094e-06  t[s]:   6862.96
	FillingsUpdate:  mu: +0.733853353  nElectrons: 756.000000
SCF: Cycle: 24   F: -4695.524032625894506   dF: -1.594e-07   |Residual|: 7.710e-05   |deigs|: 4.870e-07  t[s]:   6908.13
	FillingsUpdate:  mu: +0.733853071  nElectrons: 756.000000
SCF: Cycle: 25   F: -4695.524032631530645   dF: -5.636e-09   |Residual|: 7.323e-05   |deigs|: 4.260e-07  t[s]:   6953.30
	FillingsUpdate:  mu: +0.733853044  nElectrons: 756.000000
SCF: Cycle: 26   F: -4695.524032648468165   dF: -1.694e-08   |Residual|: 3.710e-05   |deigs|: 2.223e-07  t[s]:   6998.53
	FillingsUpdate:  mu: +0.733853008  nElectrons: 756.000000
SCF: Cycle: 27   F: -4695.524032647731474   dF: +7.367e-10   |Residual|: 3.856e-05   |deigs|: 2.365e-07  t[s]:   7043.80
	FillingsUpdate:  mu: +0.733852996  nElectrons: 756.000000
SCF: Cycle: 28   F: -4695.524032652053393   dF: -4.322e-09   |Residual|: 1.939e-05   |deigs|: 2.209e-07  t[s]:   7088.99
	FillingsUpdate:  mu: +0.733853002  nElectrons: 756.000000
SCF: Cycle: 29   F: -4695.524032652745518   dF: -6.921e-10   |Residual|: 1.275e-05   |deigs|: 1.607e-07  t[s]:   7128.34
SCF: Converged (|Delta E|<1.000000e-08 for 2 iters).

Setting wave functions to eigenvectors of Hamiltonian

# Ionic positions in lattice coordinates:
ion Cr   0.000000000000000   0.000000000000000   0.000000000000000 0
ion Cr   0.166451764388782   0.163612860076669   0.175607355353717 1
ion Cr  -0.003689742881070  -0.009183476245541   0.336231903756334 1
ion Cr   0.166277895031959   0.161202807818628   0.498785664918235 1
ion Cr  -0.000434228303524  -0.003175407811071   0.667806444900215 1
ion Cr   0.157742610025699   0.166464580017984   0.837636086349293 1
ion Cr  -0.006135121016866   0.337531925044301   0.004991872528363 1
ion Cr   0.166472898683709   0.500838849649219   0.173526157919393 1
ion Cr   0.001609522849656   0.329925407177638   0.332302183868231 1
ion Cr   0.163416856608326   0.496512292159551   0.505968519326147 1
ion Cr  -0.003949548724994   0.318468438051821   0.672604253730193 1
ion Cr   0.159245063019287   0.489736861438363   0.831873999832828 1
ion Cr  -0.001030982777000   0.664227172369284   0.003069360484002 1
ion Cr   0.167137299740263   0.835751680645708   0.172115621356016 1
ion Cr  -0.002561381690945   0.663612951471600   0.326475970763316 1
ion Cr   0.161019010395310   0.827177483422040   0.501588114162906 1
ion Cr   0.002815064422732   0.659037608601853   0.667073611953939 1
ion Cr   0.163063842268309   0.832951393929692   0.835133581855863 1
ion Cr   0.329768154374300   0.004695113171989  -0.014393317344405 1
ion Cr   0.500942942947761   0.168062877374029   0.176583566073302 1
ion Cr   0.340703434231557  -0.002779690645494   0.327409859927489 1
ion Cr   0.509195673510760   0.157278523090015   0.506018617639690 1
ion Cr   0.331565694260978  -0.006779235611408   0.674870437824446 1
ion Cr   0.489107973428043   0.167501789063882   0.837170702731124 1
ion Cr   0.326121709825578   0.313918459142018   0.005953158034942 1
ion Cr   0.496114930024356   0.496074773422591   0.171103417827704 1
ion Cr   0.338399704094086   0.341276888764479   0.332763315726176 1
ion Cr   0.493570961094774   0.495659054144910   0.501739982874256 1
ion Cr   0.333362556537443   0.331891441559165   0.663546525968877 1
ion Cr   0.496401440955680   0.491180943437359   0.832991521054560 1
ion Cr   0.331439489132453   0.664305573385510   0.000758535542091 1
ion Cr   0.500895398048850   0.831501708821916   0.176180506262514 1
ion Cr   0.331898936629173   0.666322154400041   0.337996455633088 1
ion Cr   0.500568862575594   0.828624111556435   0.510811159990803 1
ion Cr   0.323830384785706   0.663013979441785   0.661607221990539 1
ion Cr   0.489733542704995   0.833397094355864   0.841024754595188 1
ion Cr   0.665109028814142   0.001591797339192   0.005083400265277 1
ion Cr   0.840807916721603   0.164191002042728   0.172337957621251 1
ion Cr   0.669024083700684   0.000933875706031   0.330013657792472 1
ion Cr   0.830921536325107   0.154952696433291   0.506557062260845 1
ion Cr   0.668096627429551   0.008558722184751   0.665649335990954 1
ion Cr   0.833850150483909   0.165630082174321   0.841518925982349 1
ion Cr   0.661370393308185   0.335796310006520   0.004726575517099 1
ion Cr   0.835013371026998   0.498854383244182   0.156805022174251 1
ion Cr   0.670275379916607   0.329817638192899   0.332414779258999 1
ion Cr   0.842923057454011   0.498469345915973   0.496661225618129 1
ion Cr   0.659334020897435   0.344547691592533   0.675650888129474 1
ion Cr   0.843025418791984   0.500995442486293   0.834750519229692 1
ion Cr   0.660253955332440   0.672229404676679   0.000853418616445 1
ion Cr   0.833232883704037   0.831578491106702   0.166332591150385 1
ion Cr   0.661081499610272   0.657493369927477   0.332583160136465 1
ion Cr   0.829055765192047   0.832537269500898   0.489455415600542 1
ion Cr   0.664820931528725   0.668100331493987   0.658631105861883 1
ion Cr   0.841873368294791   0.827136391046804   0.834277575333346 1

# Forces in Lattice coordinates:
force Cr  -0.016695282881210  -0.048167001575282   0.125664570285498 0
force Cr   0.020943100224943   0.024199951346294  -0.151890033291930 1
force Cr   0.193706030163954   0.179310057268950  -0.065555223285324 1
force Cr   0.084084765930733   0.024425686230781   0.123831736787957 1
force Cr  -0.016791864930105  -0.114430230903446  -0.029159927090468 1
force Cr   0.129369462397507  -0.108099203011729  -0.121767038705549 1
force Cr   0.181640875576745  -0.233932530669964  -0.066883065949164 1
force Cr   0.015009334359440  -0.074149969780059  -0.174669979466807 1
force Cr  -0.002242213111638  -0.004777916886964   0.182855307322602 1
force Cr   0.083046658969359  -0.051945021344748  -0.186066583719710 1
force Cr   0.039266628818433   0.326197735278358  -0.200582851099330 1
force Cr   0.283794108445900   0.173010791742590   0.178157323367320 1
force Cr   0.079347425872724   0.125488130286185  -0.130240112129834 1
force Cr   0.030129384892024  -0.123968834315218  -0.194114768901635 1
force Cr   0.061337316629784   0.002493815867563   0.229846346878647 1
force Cr   0.136599642923268   0.106147062392230  -0.020718022181781 1
force Cr  -0.214235092505783   0.115781626270014  -0.055129292509053 1
force Cr   0.068537096079583  -0.126551715990031  -0.006358420219240 1
force Cr   0.050977124774686  -0.324681733486713   0.615859772091834 1
force Cr   0.021600952018082  -0.127085399916650  -0.223013178244959 1
force Cr  -0.215638704563907   0.067153309963371   0.297419146413420 1
force Cr  -0.275953569369682   0.227641841398407  -0.074504311328690 1
force Cr  -0.017942783171216   0.137196802036439  -0.380790651594057 1
force Cr   0.306045376025070  -0.092425707253278  -0.043053217235165 1
force Cr   0.050329356546010   0.618372626636562  -0.076355945467648 1
force Cr   0.102535478825734   0.130562895999572  -0.170094871098885 1
force Cr  -0.189325108035678  -0.338420360279348   0.158654754643905 1
force Cr   0.230426473491305   0.064454610319488  -0.017836976209802 1
force Cr  -0.159888959156465  -0.137238200580533   0.124662769335893 1
force Cr   0.010078680023451   0.293054387642377   0.118305174546138 1
force Cr  -0.056753050911213  -0.030793614846197   0.005089643465480 1
force Cr  -0.065922970175711   0.031538169256496  -0.209496095679524 1
force Cr  -0.030741092762386   0.029550690356273  -0.104461082757883 1
force Cr  -0.066661641583149   0.058143334545710  -0.193755782956112 1
force Cr   0.198471508388887   0.018088909745454   0.277697514940042 1
force Cr   0.305911079565958  -0.108102205630500  -0.136049425324082 1
force Cr   0.000560847981297  -0.035353799558725  -0.150641978241237 1
force Cr  -0.241770736382628   0.057574649455171  -0.088976204635959 1
force Cr  -0.066750187268794  -0.171479369766202   0.179796264606460 1
force Cr   0.121468715073762   0.343756843004983  -0.098464783708709 1
force Cr  -0.062627334822854  -0.296962973960178   0.217597775948401 1
force Cr  -0.238052863830558   0.006304346748617  -0.081998651812791 1
force Cr   0.072804379326853  -0.080647298764847  -0.100910002602393 1
force Cr  -0.195385839357296   0.028373208506020   0.307177635766793 1
force Cr  -0.019190416249133   0.063595854557578   0.188116054916081 1
force Cr  -0.339634155476780  -0.088782304272603   0.080353856673554 1
force Cr   0.257066211156945  -0.281946372736033  -0.162020534134820 1
force Cr  -0.436686860162316  -0.050431470928374  -0.094853633174266 1
force Cr   0.119545207226052  -0.186099815512171  -0.096833243481832 1
force Cr  -0.064291812682128  -0.010909265200242  -0.077336453243159 1
force Cr   0.150060515664935   0.158659498310440  -0.011587088378838 1
force Cr   0.073930811819878  -0.145057561105830   0.310048768942520 1
force Cr   0.052846871301138   0.000745894141866   0.293765709445668 1
force Cr  -0.370429798132794   0.145157067642095  -0.082138988427785 1

# Energy components:
   Eewald =    -3608.4019100818991319
       EH =      974.9004177242239848
     Eloc =    -3067.3075417690620270
      Enl =      507.1577479915101776
      Exc =     -600.7296092459782813
 Exc_core =       40.1472385269529823
       KE =     1059.1650506613816560
-------------------------------------
     Etot =    -4695.0686061928709023
       TS =        0.4554264598741690
-------------------------------------
        F =    -4695.5240326527455181

IonicMinimize: Iter:   3  F: -4695.524032652745518  |grad|_K:  1.101e-02  alpha:  2.136e-01  linmin: -9.466e-01  t[s]:   7145.69

#--- Lowdin population analysis ---
# oxidation-state Cr +0.263 +0.270 +0.256 +0.281 +0.269 +0.258 +0.260 +0.266 +0.265 +0.271 +0.261 +0.277 +0.263 +0.274 +0.264 +0.271 +0.258 +0.265 +0.271 +0.258 +0.262 +0.276 +0.271 +0.259 +0.270 +0.265 +0.266 +0.256 +0.266 +0.270 +0.276 +0.267 +0.272 +0.273 +0.272 +0.267 +0.283 +0.266 +0.260 +0.269 +0.268 +0.267 +0.277 +0.262 +0.278 +0.271 +0.279 +0.272 +0.278 +0.270 +0.275 +0.276 +0.281 +0.278


-------- Electronic minimization -----------
Will mix electronic density at each iteration.
	FillingsUpdate:  mu: +0.733853002  nElectrons: 756.000000
	FillingsUpdate:  mu: +0.729119944  nElectrons: 756.000000
SCF: Cycle:  0   F: -4621.794155777769447   dF: +7.048e+01   |Residual|: 3.338e+00   |deigs|: 5.193e-03  t[s]:   7244.54
	FillingsUpdate:  mu: +0.699275405  nElectrons: 756.000000
SCF: Cycle:  1   F: -4209.249931350224870   dF: +4.125e+02   |Residual|: 9.583e+00   |deigs|: 1.563e-01  t[s]:   7316.31
	FillingsUpdate:  mu: +0.745668883  nElectrons: 756.000000
SCF: Cycle:  2   F: -4604.422373971066918   dF: -3.952e+02   |Residual|: 4.642e+00   |deigs|: 1.230e-01  t[s]:   7388.17
	FillingsUpdate:  mu: +0.755846780  nElectrons: 756.000000
SCF: Cycle:  3   F: -4679.720490846239954   dF: -7.530e+01   |Residual|: 1.964e+00   |deigs|: 4.362e-02  t[s]:   7460.00
	FillingsUpdate:  mu: +0.742697415  nElectrons: 756.000000
SCF: Cycle:  4   F: -4688.482612664558474   dF: -8.762e+00   |Residual|: 1.454e+00   |deigs|: 2.036e-02  t[s]:   7531.64
	FillingsUpdate:  mu: +0.733855097  nElectrons: 756.000000
SCF: Cycle:  5   F: -4693.195828190059729   dF: -4.713e+00   |Residual|: 8.786e-01   |deigs|: 1.389e-02  t[s]:   7603.37
	FillingsUpdate:  mu: +0.732108489  nElectrons: 756.000000
SCF: Cycle:  6   F: -4690.432042508483391   dF: +2.764e+00   |Residual|: 1.211e+00   |deigs|: 3.705e-03  t[s]:   7675.15
	FillingsUpdate:  mu: +0.733820817  nElectrons: 756.000000
SCF: Cycle:  7   F: -4695.294196334860317   dF: -4.862e+00   |Residual|: 2.961e-01   |deigs|: 6.714e-03  t[s]:   7746.88
	FillingsUpdate:  mu: +0.734457627  nElectrons: 756.000000
SCF: Cycle:  8   F: -4695.140379393285002   dF: +1.538e-01   |Residual|: 3.713e-01   |deigs|: 9.029e-04  t[s]:   7818.70
	FillingsUpdate:  mu: +0.735224250  nElectrons: 756.000000
SCF: Cycle:  9   F: -4695.430573577605173   dF: -2.902e-01   |Residual|: 1.901e-01   |deigs|: 1.195e-03  t[s]:   7889.05
	FillingsUpdate:  mu: +0.734917575  nElectrons: 756.000000
SCF: Cycle: 10   F: -4695.483988195491293   dF: -5.341e-02   |Residual|: 1.356e-01   |deigs|: 4.446e-04  t[s]:   7953.19
	FillingsUpdate:  mu: +0.733518170  nElectrons: 756.000000
SCF: Cycle: 11   F: -4695.536989874944084   dF: -5.300e-02   |Residual|: 7.543e-02   |deigs|: 1.693e-03  t[s]:   8025.01
	FillingsUpdate:  mu: +0.733690113  nElectrons: 756.000000
SCF: Cycle: 12   F: -4695.540670917546777   dF: -3.681e-03   |Residual|: 6.692e-02   |deigs|: 2.157e-04  t[s]:   8070.20
	FillingsUpdate:  mu: +0.733910792  nElectrons: 756.000000
SCF: Cycle: 13   F: -4695.558833285126639   dF: -1.816e-02   |Residual|: 7.364e-03   |deigs|: 2.834e-04  t[s]:   8115.30
	FillingsUpdate:  mu: +0.733926054  nElectrons: 756.000000
SCF: Cycle: 14   F: -4695.558630020617784   dF: +2.033e-04   |Residual|: 1.001e-02   |deigs|: 2.521e-05  t[s]:   8160.34
	FillingsUpdate:  mu: +0.733940957  nElectrons: 756.000000
SCF: Cycle: 15   F: -4695.558785879469724   dF: -1.559e-04   |Residual|: 8.135e-03   |deigs|: 2.382e-05  t[s]:   8205.42
	FillingsUpdate:  mu: +0.733951909  nElectrons: 756.000000
SCF: Cycle: 16   F: -4695.559017343025516   dF: -2.315e-04   |Residual|: 2.443e-03   |deigs|: 1.952e-05  t[s]:   8250.49
	FillingsUpdate:  mu: +0.733944777  nElectrons: 756.000000
SCF: Cycle: 17   F: -4695.559008593832914   dF: +8.749e-06   |Residual|: 3.089e-03   |deigs|: 1.131e-05  t[s]:   8295.63
	FillingsUpdate:  mu: +0.733939189  nElectrons: 756.000000
SCF: Cycle: 18   F: -4695.559026075447946   dF: -1.748e-05   |Residual|: 2.077e-03   |deigs|: 7.584e-06  t[s]:   8340.88
	FillingsUpdate:  mu: +0.733934478  nElectrons: 756.000000
SCF: Cycle: 19   F: -4695.559031198212324   dF: -5.123e-06   |Residual|: 1.687e-03   |deigs|: 6.455e-06  t[s]:   8386.03
	FillingsUpdate:  mu: +0.733933162  nElectrons: 756.000000
SCF: Cycle: 20   F: -4695.559038000057626   dF: -6.802e-06   |Residual|: 7.133e-04   |deigs|: 2.832e-06  t[s]:   8431.17
	FillingsUpdate:  mu: +0.733934712  nElectrons: 756.000000
SCF: Cycle: 21   F: -4695.559037518739387   dF: +4.813e-07   |Residual|: 8.274e-04   |deigs|: 2.255e-06  t[s]:   8476.29
	FillingsUpdate:  mu: +0.733934577  nElectrons: 756.000000
SCF: Cycle: 22   F: -4695.559038814523774   dF: -1.296e-06   |Residual|: 4.891e-04   |deigs|: 1.243e-06  t[s]:   8521.38
	FillingsUpdate:  mu: +0.733935474  nElectrons: 756.000000
SCF: Cycle: 23   F: -4695.559038041077656   dF: +7.734e-07   |Residual|: 6.965e-04   |deigs|: 1.462e-06  t[s]:   8566.51
	FillingsUpdate:  mu: +0.733935963  nElectrons: 756.000000
SCF: Cycle: 24   F: -4695.559039735244369   dF: -1.694e-06   |Residual|: 1.260e-04   |deigs|: 1.102e-06  t[s]:   8611.55
	FillingsUpdate:  mu: +0.733935388  nElectrons: 756.000000
SCF: Cycle: 25   F: -4695.559039609793217   dF: +1.255e-07   |Residual|: 2.262e-04   |deigs|: 7.739e-07  t[s]:   8656.74
	FillingsUpdate:  mu: +0.733935256  nElectrons: 756.000000
SCF: Cycle: 26   F: -4695.559039770326308   dF: -1.605e-07   |Residual|: 1.005e-04   |deigs|: 3.901e-07  t[s]:   8701.88
	FillingsUpdate:  mu: +0.733935293  nElectrons: 756.000000
SCF: Cycle: 27   F: -4695.559039807800218   dF: -3.747e-08   |Residual|: 2.357e-05   |deigs|: 2.292e-07  t[s]:   8747.04
	FillingsUpdate:  mu: +0.733935360  nElectrons: 756.000000
SCF: Cycle: 28   F: -4695.559039799682978   dF: +8.117e-09   |Residual|: 4.748e-05   |deigs|: 2.012e-07  t[s]:   8792.20
	FillingsUpdate:  mu: +0.733935346  nElectrons: 756.000000
SCF: Cycle: 29   F: -4695.559039808912530   dF: -9.230e-09   |Residual|: 5.282e-06   |deigs|: 1.731e-07  t[s]:   8837.36
	FillingsUpdate:  mu: +0.733935327  nElectrons: 756.000000
SCF: Cycle: 30   F: -4695.559039808730631   dF: +1.819e-10   |Residual|: 1.351e-05   |deigs|: 1.170e-07  t[s]:   8873.18
	FillingsUpdate:  mu: +0.733935318  nElectrons: 756.000000
SCF: Cycle: 31   F: -4695.559039809344540   dF: -6.139e-10   |Residual|: 5.607e-06   |deigs|: 6.268e-08  t[s]:   8907.54
	FillingsUpdate:  mu: +0.733935316  nElectrons: 756.000000
SCF: Cycle: 32   F: -4695.559039809151727   dF: +1.928e-10   |Residual|: 3.456e-06   |deigs|: 4.293e-08  t[s]:   8938.21
	FillingsUpdate:  mu: +0.733935320  nElectrons: 756.000000
SCF: Cycle: 33   F: -4695.559039809275419   dF: -1.237e-10   |Residual|: 4.480e-06   |deigs|: 3.959e-08  t[s]:   8968.97
	FillingsUpdate:  mu: +0.733935324  nElectrons: 756.000000
SCF: Cycle: 34   F: -4695.559039809156275   dF: +1.191e-10   |Residual|: 1.665e-06   |deigs|: 3.821e-08  t[s]:   8999.73
	FillingsUpdate:  mu: +0.733935325  nElectrons: 756.000000
SCF: Cycle: 35   F: -4695.559039809250862   dF: -9.459e-11   |Residual|: 8.072e-07   |deigs|: 3.725e-08  t[s]:   9030.40
	FillingsUpdate:  mu: +0.733935326  nElectrons: 756.000000
[...]
ion Cr   0.166692585009982   0.500067857874436   0.166669331450114 1
ion Cr   0.000007892987850   0.333470386900861   0.333244896428682 1
ion Cr   0.166703013577851   0.500098555737140   0.500099262882378 1
ion Cr  -0.000005856119346   0.333385965713408   0.666670531440850 1
ion Cr   0.166682544976356   0.500127771237082   0.833279423180796 1
ion Cr  -0.000019493124576   0.666729615013848   0.000058616624381 1
ion Cr   0.166720924299902   0.833380327499024   0.166622066230495 1
ion Cr  -0.000010708419241   0.666709051050970   0.333266652271678 1
ion Cr   0.166760652862935   0.833370544473065   0.500086133425243 1
ion Cr  -0.000018516676001   0.666668640280412   0.666656737516600 1
ion Cr   0.166710412544512   0.833337152597232   0.833218481622366 1
ion Cr   0.333378064910061   0.000009537176661   0.000043928267854 1
ion Cr   0.499953603144668   0.166699342478983   0.166616200979188 1
ion Cr   0.333327777783987   0.000087779863369   0.333161889497829 1
ion Cr   0.499962203541270   0.166680600720181   0.500087675862555 1
ion Cr   0.333394062284184   0.000148289160840   0.666675262495928 1
ion Cr   0.500038733466039   0.166754142379289   0.833209953527404 1
ion Cr   0.333425890892655   0.333508129669121   0.000102809714537 1
ion Cr   0.500040088586525   0.500073519071686   0.166632698819562 1
ion Cr   0.333385439703538   0.333477689634513   0.333181540613582 1
ion Cr   0.499935861204833   0.500111653326667   0.500015117254993 1
ion Cr   0.333431084612012   0.333351389673067   0.666611722191224 1
ion Cr   0.500048333790551   0.500079193303796   0.833283912815467 1
ion Cr   0.333429012675515   0.666575867656435   0.000093874333847 1
ion Cr   0.499974674296896   0.833347110388307   0.166557497847906 1
ion Cr   0.333373171935039   0.666631658688459   0.333219944539834 1
ion Cr   0.500009366531621   0.833354815442569   0.500034931820295 1
ion Cr   0.333400985692712   0.666791050444227   0.666649501741544 1
ion Cr   0.499990395767246   0.833338500993618   0.833194107956264 1
ion Cr   0.666716015017113   0.000072709649329   0.000143825024882 1
ion Cr   0.833416372934767   0.166659916464053   0.166642289854557 1
ion Cr   0.666681817587668   0.000096424770328   0.333132072686659 1
ion Cr   0.833425357931767   0.166765739052475   0.500164086320980 1
ion Cr   0.666667330269142   0.000078301415190   0.666562009980219 1
ion Cr   0.833494983546881   0.166734936256778   0.833167735914351 1
ion Cr   0.666689330832403   0.333465069523656   0.000125431246825 1
ion Cr   0.833429669791343   0.500067969652956   0.166685663488904 1
ion Cr   0.666699595220296   0.333491110936228   0.333195121519917 1
ion Cr   0.833440248672695   0.500071246640554   0.500102185063335 1
ion Cr   0.666735413105687   0.333355779520570   0.666595509287792 1
ion Cr   0.833387078116710   0.500139446180914   0.833236957756410 1
ion Cr   0.666647998478309   0.666733084585898   0.000044940917812 1
ion Cr   0.833382839820312   0.833383226160942   0.166689430633650 1
ion Cr   0.666720456508731   0.666709223284316   0.333299220039549 1
ion Cr   0.833421555115160   0.833339823127438   0.500066848586929 1
ion Cr   0.666743013028391   0.666708701526169   0.666616125000873 1
ion Cr   0.833401310431671   0.833365401996330   0.833215323542060 1

# Forces in Lattice coordinates:
force Cr   0.002026799647385   0.001669211826912  -0.002701345942267 0
force Cr  -0.001405021949502  -0.001300885455721  -0.000531863840426 1
force Cr  -0.001468610357642  -0.002122061900672   0.007119070761564 1
force Cr  -0.002298899508819  -0.000011680950318  -0.008613386812569 1
force Cr   0.000992686953087  -0.003365764660116  -0.003109540883880 1
force Cr  -0.000227657972193   0.000663783634436   0.010376531237970 1
force Cr   0.002505911695025  -0.003080489371267  -0.010237522046223 1
force Cr  -0.000352474408608  -0.000886058911675   0.000044019754715 1
force Cr   0.001610644561617  -0.004641938272746   0.006753342963505 1
force Cr  -0.000730381089254  -0.003114236830704  -0.005989815162605 1
force Cr   0.003062298440228   0.000121060727481   0.000590371172701 1
force Cr   0.000587453890950  -0.004865902238142   0.003986510028647 1
force Cr   0.002172277466244  -0.000576399501997  -0.004464101106953 1
force Cr  -0.001820994986081  -0.000883099091773   0.001033636143939 1
force Cr   0.002612549227375   0.001222667872561   0.004577863678171 1
force Cr  -0.003034463878614   0.000730594351707  -0.006530424932883 1
force Cr   0.003170434014894   0.002250758042279   0.000162022803746 1
force Cr  -0.000628592871536   0.001506099557642   0.006464009303490 1
force Cr  -0.001797129756466   0.001079719304465  -0.005838221069187 1
force Cr   0.003679455787936   0.001004659569676   0.001431043987246 1
force Cr   0.000960779296993  -0.002564594060615   0.008656527831142 1
force Cr   0.003716225401133   0.001649290189677  -0.008423414555044 1
force Cr  -0.001964565949914  -0.005382465792818  -0.001408852319414 1
force Cr   0.001335467696934  -0.001805753640510   0.007441214150867 1
force Cr  -0.004126462659886  -0.007126453406065  -0.008169911558260 1
force Cr   0.000690065633582  -0.001622556759076   0.001439713465656 1
force Cr  -0.002047960698137  -0.005121880806739   0.008078989830034 1
force Cr   0.005005237438885  -0.004005077756616  -0.002749011510805 1
force Cr  -0.003644450865680   0.002779799103604   0.002204378088381 1
force Cr   0.000002092808733  -0.002392695667932   0.002024130631065 1
force Cr  -0.004485032681397   0.006206478396893  -0.006958110792032 1
force Cr   0.002505553296549   0.000617599227282   0.004129000017841 1
force Cr  -0.001556504062676   0.004623827816060   0.006104179210499 1
force Cr   0.001305210105893   0.001557608037365  -0.005871782723658 1
force Cr  -0.002232349279232  -0.003571644714197   0.000516406811068 1
force Cr   0.002533025184929   0.002261815305891   0.006531359587912 1
force Cr  -0.001136873648759  -0.001107303204445  -0.010990878293202 1
force Cr  -0.003200817797426   0.002452261925652   0.000935378403682 1
force Cr   0.000178516472242  -0.002078627276219   0.010298355988380 1
force Cr  -0.003632802121849  -0.002742031554328  -0.011400848135297 1
force Cr   0.001160111496585  -0.002434494019654   0.003787265469300 1
force Cr  -0.006996432436798  -0.000564379999370   0.009990137146546 1
force Cr   0.000931024885724  -0.004530549071739  -0.008873659166909 1
force Cr  -0.004049743331965  -0.000939082335637  -0.000755657199030 1
force Cr  -0.000425466022795  -0.005705769246287   0.007775814226940 1
force Cr  -0.004818131351210  -0.001883402411249  -0.006643739498094 1
force Cr  -0.002068998905118   0.001422664999026   0.002714393459391 1
force Cr  -0.002259284952138  -0.005037868083794   0.006263147241297 1
force Cr   0.002365172733180  -0.000177479857759  -0.004248455083382 1
force Cr  -0.001760684937420  -0.000775488960326  -0.001334368086800 1
force Cr  -0.001613125871956   0.001177262839993   0.002478736690352 1
force Cr  -0.002906903830495   0.002745767822015  -0.005708062356313 1
force Cr  -0.002762297624166  -0.000097066196937   0.001562015593921 1
force Cr  -0.003353192664696   0.001297364185367   0.006540624643486 1

# Energy components:
   Eewald =    -3614.1489950172231147
       EH =      969.0253015201388962
     Eloc =    -3055.2348075293061811
      Enl =      507.0003152485012947
      Exc =     -600.5711564911221103
 Exc_core =       40.1413291896772364
       KE =     1058.6360199292666948
-------------------------------------
     Etot =    -4695.1519931500679377
       TS =        0.4475808032535038
-------------------------------------
        F =    -4695.5995739533218511

IonicMinimize: Iter:  10  F: -4695.599573953321851  |grad|_K:  2.608e-04  alpha:  1.000e+00  linmin:  7.378e-01  t[s]:  16841.95

#--- Lowdin population analysis ---
# oxidation-state Cr +0.272 +0.271 +0.272 +0.272 +0.271 +0.272 +0.271 +0.271 +0.272 +0.272 +0.271 +0.272 +0.271 +0.271 +0.271 +0.272 +0.271 +0.272 +0.271 +0.271 +0.271 +0.271 +0.271 +0.272 +0.271 +0.271 +0.272 +0.271 +0.271 +0.271 +0.271 +0.271 +0.271 +0.272 +0.271 +0.272 +0.272 +0.271 +0.272 +0.271 +0.271 +0.272 +0.272 +0.271 +0.272 +0.271 +0.271 +0.271 +0.271 +0.271 +0.272 +0.272 +0.271 +0.271


-------- Electronic minimization -----------
Will mix electronic density at each iteration.
	FillingsUpdate:  mu: +0.734013419  nElectrons: 756.000000
	FillingsUpdate:  mu: +0.734014698  nElectrons: 756.000000
SCF: Cycle:  0   F: -4695.597282383499987   dF: +2.213e-03   |Residual|: 2.090e-02   |deigs|: 3.374e-07  t[s]:  16928.87
	FillingsUpdate:  mu: +0.734006582  nElectrons: 756.000000
SCF: Cycle:  1   F: -4695.546537140592591   dF: +5.075e-02   |Residual|: 1.139e-01   |deigs|: 3.004e-04  t[s]:  16988.87
	FillingsUpdate:  mu: +0.734014938  nElectrons: 756.000000
SCF: Cycle:  2   F: -4695.599207981639665   dF: -5.267e-02   |Residual|: 8.430e-03   |deigs|: 3.249e-04  t[s]:  17038.78
	FillingsUpdate:  mu: +0.734014699  nElectrons: 756.000000
SCF: Cycle:  3   F: -4695.599572447012179   dF: -3.645e-04   |Residual|: 3.113e-03   |deigs|: 2.191e-05  t[s]:  17083.48
	FillingsUpdate:  mu: +0.734012627  nElectrons: 756.000000
SCF: Cycle:  4   F: -4695.599583050940964   dF: -1.060e-05   |Residual|: 1.864e-03   |deigs|: 4.189e-06  t[s]:  17128.22
	FillingsUpdate:  mu: +0.734012886  nElectrons: 756.000000
SCF: Cycle:  5   F: -4695.599594951819199   dF: -1.190e-05   |Residual|: 9.154e-04   |deigs|: 3.056e-06  t[s]:  17172.94
	FillingsUpdate:  mu: +0.734013832  nElectrons: 756.000000
SCF: Cycle:  6   F: -4695.599596027189364   dF: -1.075e-06   |Residual|: 6.118e-04   |deigs|: 1.931e-06  t[s]:  17217.79
	FillingsUpdate:  mu: +0.734013767  nElectrons: 756.000000
SCF: Cycle:  7   F: -4695.599595719379067   dF: +3.078e-07   |Residual|: 6.788e-04   |deigs|: 5.771e-07  t[s]:  17262.60
	FillingsUpdate:  mu: +0.734013352  nElectrons: 756.000000
SCF: Cycle:  8   F: -4695.599596685943652   dF: -9.666e-07   |Residual|: 3.468e-04   |deigs|: 8.574e-07  t[s]:  17307.39
	FillingsUpdate:  mu: +0.734013359  nElectrons: 756.000000
SCF: Cycle:  9   F: -4695.599597038883076   dF: -3.529e-07   |Residual|: 5.694e-05   |deigs|: 7.483e-07  t[s]:  17352.19
	FillingsUpdate:  mu: +0.734013483  nElectrons: 756.000000
SCF: Cycle: 10   F: -4695.599597017422639   dF: +2.146e-08   |Residual|: 8.058e-05   |deigs|: 1.983e-07  t[s]:  17397.01
	FillingsUpdate:  mu: +0.734013541  nElectrons: 756.000000
SCF: Cycle: 11   F: -4695.599597046253621   dF: -2.883e-08   |Residual|: 2.085e-05   |deigs|: 1.472e-07  t[s]:  17441.86
	FillingsUpdate:  mu: +0.734013480  nElectrons: 756.000000
SCF: Cycle: 12   F: -4695.599597041614288   dF: +4.639e-09   |Residual|: 3.659e-05   |deigs|: 8.566e-08  t[s]:  17486.59
	FillingsUpdate:  mu: +0.734013470  nElectrons: 756.000000
SCF: Cycle: 13   F: -4695.599597046831150   dF: -5.217e-09   |Residual|: 6.092e-06   |deigs|: 4.863e-08  t[s]:  17531.43
	FillingsUpdate:  mu: +0.734013481  nElectrons: 756.000000
SCF: Cycle: 14   F: -4695.599597046932104   dF: -1.010e-10   |Residual|: 7.928e-06   |deigs|: 3.013e-08  t[s]:  17565.73
SCF: Converged (|Delta E|<1.000000e-08 for 2 iters).

Setting wave functions to eigenvectors of Hamiltonian

# Ionic positions in lattice coordinates:
ion Cr   0.000000000000000   0.000000000000000   0.000000000000000 0
ion Cr   0.166675070948851   0.166649947515847   0.166696981617577 1
ion Cr   0.000012464838937  -0.000015734605121   0.333359087448331 1
ion Cr   0.166679140701531   0.166637188692027   0.500040579908709 1
ion Cr   0.000011494654213  -0.000022957440209   0.666694574785967 1
ion Cr   0.166679846088414   0.166646654356797   0.833364430932128 1
ion Cr   0.000001012187009   0.333326341147236   0.000071243145911 1
ion Cr   0.166656597342219   0.499985436483707   0.166732449133820 1
ion Cr   0.000006124350413   0.333323359227548   0.333392869213794 1
ion Cr   0.166667997548205   0.499970241659736   0.500061433158241 1
ion Cr   0.000010307415364   0.333300255830918   0.666730816631732 1
ion Cr   0.166673845713258   0.499974901684874   0.833393597941686 1
ion Cr   0.000003489121306   0.666658246567691   0.000053829953191 1
ion Cr   0.166667477883723   0.833321306418107   0.166695530412254 1
ion Cr  -0.000012644445114   0.666650913259646   0.333385720800974 1
ion Cr   0.166666452573924   0.833301903279733   0.500035985714578 1
ion Cr   0.000006366236715   0.666643656033495   0.666717732080156 1
ion Cr   0.166682772997667   0.833304548951057   0.833365439965550 1
ion Cr   0.333340051702823  -0.000029873387519   0.000012457351709 1
ion Cr   0.500000536649850   0.166632982230585   0.166688150605482 1
ion Cr   0.333330570338905  -0.000034046528330   0.333336823877705 1
ion Cr   0.500015079175662   0.166619538329218   0.500018446221353 1
ion Cr   0.333347958157281  -0.000039316455120   0.666688438332409 1
ion Cr   0.500011739740555   0.166630692445062   0.833359355969156 1
ion Cr   0.333340289922491   0.333295347888320   0.000048083179559 1
ion Cr   0.500001130683011   0.499964888776858   0.166714278259659 1
ion Cr   0.333340027226109   0.333311630497306   0.333368437098459 1
ion Cr   0.499990662265219   0.499957663075596   0.500039764843179 1
ion Cr   0.333348525100518   0.333293598579641   0.666698695212796 1
ion Cr   0.500017946269323   0.499963541052497   0.833374171426271 1
ion Cr   0.333343106637310   0.666628112639171   0.000049597427759 1
ion Cr   0.499991755709108   0.833291781625425   0.166688066572550 1
ion Cr   0.333317729493099   0.666630002905318   0.333374597248114 1
ion Cr   0.500001430955155   0.833281942264958   0.500026985012004 1
ion Cr   0.333341760701229   0.666627469070082   0.666709537563101 1
ion Cr   0.500017043441670   0.833288547101799   0.833355423232049 1
ion Cr   0.666676687728485  -0.000031958836511   0.000034152867402 1
ion Cr   0.833348338805598   0.166634390879676   0.166716307002951 1
ion Cr   0.666668037534039  -0.000027496596214   0.333349341228510 1
ion Cr   0.833348496940431   0.166640997514588   0.500057275457168 1
ion Cr   0.666676022195120  -0.000034218563135   0.666688922195282 1
ion Cr   0.833353469611035   0.166651851059557   0.833372698223741 1
ion Cr   0.666669404357372   0.333308781656976   0.000050578574570 1
ion Cr   0.833338620202009   0.499977558502967   0.166722724805135 1
ion Cr   0.666670207093346   0.333307178365441   0.333371674270648 1
ion Cr   0.833336145519899   0.499978465424714   0.500052191740043 1
ion Cr   0.666679031774445   0.333304421108078   0.666703706102343 1
ion Cr   0.833344859073279   0.499988179693551   0.833387970439254 1
ion Cr   0.666667469399195   0.666643920452913   0.000032137781263 1
ion Cr   0.833335283683140   0.833309171089982   0.166699016283055 1
ion Cr   0.666655228921615   0.666630391613274   0.333377878000244 1
ion Cr   0.833334501828545   0.833305405682494   0.500034435123043 1
ion Cr   0.666673701203967   0.666636096024749   0.666698285042766 1
ion Cr   0.833344499414139   0.833310353405548   0.833362889536100 1

# Forces in Lattice coordinates:
force Cr   0.000254900372501  -0.000425785683701   0.001029077474106 0
force Cr  -0.000314588391403   0.000011301021317  -0.000231450561109 1
force Cr  -0.000507035093964   0.000170673439826  -0.000225789117522 1
force Cr  -0.000097853080189   0.000299485565859  -0.000693016369574 1
force Cr  -0.000181485396808   0.000198824783029  -0.000372626131731 1
force Cr  -0.000115865821353   0.000068273429569  -0.000277482255002 1
force Cr   0.000108217168992  -0.000335425765128  -0.001504089923116 1
force Cr   0.000475846328527  -0.000035781422815  -0.001224873683244 1
force Cr  -0.000117842820815  -0.000505399241728  -0.000726803366723 1
force Cr  -0.000051198814397   0.000330888293300  -0.000834986240171 1
force Cr  -0.000155680121978   0.000741651681041  -0.001050911658782 1
force Cr   0.000006880955817   0.000175184965240  -0.000983543599856 1
force Cr  -0.000033560735661   0.000116032034178  -0.000968247778777 1
force Cr  -0.000152340120098   0.000211484379016  -0.000317297081851 1
force Cr   0.000387604457748   0.000370686018418  -0.000666110899522 1
force Cr   0.000144967003816   0.000745705194077  -0.000448303501102 1
force Cr  -0.000158850274701   0.000261508323527  -0.000716121832936 1
force Cr  -0.000353226142913   0.000675048323266  -0.000375574262020 1
force Cr  -0.000057990847593   0.000394995139643   0.000013560140300 1
force Cr   0.000276844087119   0.000276958452740  -0.000035418840137 1
force Cr   0.000322561368678   0.000652539548623   0.000752823495198 1
force Cr  -0.000369461290877   0.000743473624202   0.000142744716869 1
force Cr  -0.000169281509247   0.000725802651730  -0.000306621424587 1
force Cr  -0.000019071974542   0.000404713764458  -0.000402906999257 1
force Cr  -0.000159376676199   0.000635488015864  -0.001059437058046 1
force Cr   0.000012535960364   0.000542108141545  -0.000790981917617 1
force Cr  -0.000231300194009  -0.000316831829088  -0.000118977570597 1
force Cr   0.000597764347898   0.000587302925114  -0.000208386714246 1
force Cr  -0.000219689909600   0.000503706262904  -0.000089400395823 1
force Cr  -0.000464084049867   0.000393152441034  -0.000636086920692 1
force Cr  -0.000304095961656   0.000826679365657  -0.001022549452001 1
force Cr   0.000490282392860   0.001079329965676  -0.000009566912617 1
force Cr   0.000529934235845   0.000898572727820  -0.000368011725323 1
force Cr   0.000042924991549   0.001373383742962  -0.000282474513232 1
force Cr  -0.000081453111119   0.000679721825154  -0.000512213872312 1
force Cr  -0.000382813747098   0.001152456954448  -0.000173788520841 1
force Cr  -0.000240400982165   0.000670758117159  -0.000721580405004 1
force Cr  -0.000461694378298   0.000541953961454  -0.000826310643555 1
force Cr   0.000116501248879   0.000241340753721   0.000329882908344 1
force Cr  -0.000468628748656   0.000191423098393  -0.001279858138180 1
force Cr  -0.000189702528874   0.000609307280413  -0.000073323783601 1
force Cr  -0.000824287604311  -0.000007787022002  -0.000343398298723 1
force Cr   0.000208959060300   0.000012058478124  -0.001111528872399 1
force Cr  -0.000302949793304   0.000256179499184  -0.000897463690942 1
force Cr   0.000080693934317  -0.000080636921912  -0.000165360352156 1
force Cr  -0.000137848490364   0.000099415723254  -0.000477837844633 1
force Cr  -0.000307089850427   0.000249772590403  -0.000269369790433 1
force Cr  -0.000334662788119  -0.000214267399836  -0.000942017570508 1
force Cr   0.000203931130997   0.000280342406907  -0.000305758319991 1
force Cr  -0.000075396364419   0.000663975823678  -0.000308513238682 1
force Cr   0.000398706087189   0.000944112600497  -0.000645103159494 1
force Cr  -0.000049125123084   0.000707310900470  -0.000432291358344 1
force Cr  -0.000092428245518   0.000402648524435  -0.000210203649711 1
force Cr  -0.000308046899292   0.000553561336207  -0.000328767133515 1

# Energy components:
   Eewald =    -3614.1505115364761878
       EH =      969.0237766838297375
     Eloc =    -3055.2316698150489174
      Enl =      507.0002828510071140
      Exc =     -600.5711217783027678
 Exc_core =       40.1413231761770462
       KE =     1058.6359013192127350
-------------------------------------
     Etot =    -4695.1520190996016026
       TS =        0.4475779473308908
-------------------------------------
        F =    -4695.5995970469321037

IonicMinimize: Iter:  11  F: -4695.599597046932104  |grad|_K:  3.249e-05  alpha:  1.000e+00  linmin:  2.309e-01  t[s]:  17582.91
IonicMinimize: Converged (|grad|_K<1.000000e-04).

#--- Lowdin population analysis ---
# oxidation-state Cr +0.271 +0.271 +0.271 +0.271 +0.271 +0.271 +0.271 +0.271 +0.271 +0.271 +0.271 +0.271 +0.271 +0.271 +0.271 +0.271 +0.271 +0.271 +0.271 +0.271 +0.271 +0.271 +0.271 +0.271 +0.271 +0.271 +0.271 +0.271 +0.271 +0.271 +0.271 +0.271 +0.271 +0.271 +0.271 +0.271 +0.271 +0.271 +0.271 +0.271 +0.271 +0.271 +0.271 +0.271 +0.271 +0.271 +0.271 +0.271 +0.271 +0.271 +0.271 +0.271 +0.271 +0.271


Dumping 'Cr_ionic.Ecomponents' ... done
End date and time: Tue Jul 16 13:29:03 2024  (Duration: 0-4:53:08.60)
Done!
