
*************** JDFTx 1.7.0 (git hash e155c65d) ***************

Start date and time: Tue Jul 16 08:40:42 2024
Executable jdftx with command-line: -i Cr_int_oct.in
Running on hosts (process indices):  node3405 (0-15)
Divided in process groups (process indices):  0 (0)  1 (1)  2 (2)  3 (3)  4 (4)  5 (5)  6 (6)  7 (7)  8 (8)  9 (9)  10 (10)  11 (11)  12 (12)  13 (13)  14 (14)  15 (15)
Resource initialization completed at t[s]:      0.00
Run totals: 16 processes, 16 threads, 0 GPUs


Input parsed successfully to the following command list (including defaults):

basis kpoint-dependent
coords-type Lattice
core-overlap-check vector
coulomb-interaction Periodic
davidson-band-ratio 1.1
dump End Ecomponents
dump-name $INPUT.$VAR
elec-cutoff 20 100
elec-eigen-algo Davidson
elec-ex-corr gga-PBEsol
elec-smearing Fermi 0.01
electronic-minimize  \
	dirUpdateScheme      FletcherReeves \
	linminMethod         DirUpdateRecommended \
	nIterations          100 \
	history              15 \
	knormThreshold       0 \
	maxThreshold         no \
	energyDiffThreshold  1e-08 \
	nEnergyDiff          2 \
	alphaTstart          1 \
	alphaTmin            1e-10 \
	updateTestStepSize   yes \
	alphaTreduceFactor   0.1 \
	alphaTincreaseFactor 3 \
	nAlphaAdjustMax      3 \
	wolfeEnergy          0.0001 \
	wolfeGradient        0.9 \
	fdTest               no
electronic-scf  \
	nIterations	50 \
	energyDiffThreshold	1e-08 \
	residualThreshold	1e-07 \
	mixFraction	0.5 \
	qMetric	0.8 \
	history	10 \
	nEigSteps	2 \
	eigDiffThreshold	1e-08 \
	mixedVariable	Density \
	qKerker	0.8 \
	qKappa	-1 \
	verbose	no \
	mixFractionMag	1.5
exchange-regularization WignerSeitzTruncated
fluid None
fluid-ex-corr lda-TF lda-PZ
fluid-gummel-loop 10 1.000000e-05
fluid-minimize  \
	dirUpdateScheme      PolakRibiere \
	linminMethod         DirUpdateRecommended \
	nIterations          100 \
	history              15 \
	knormThreshold       0 \
	maxThreshold         no \
	energyDiffThreshold  0 \
	nEnergyDiff          2 \
	alphaTstart          1 \
	alphaTmin            1e-10 \
	updateTestStepSize   yes \
	alphaTreduceFactor   0.1 \
	alphaTincreaseFactor 3 \
	nAlphaAdjustMax      3 \
	wolfeEnergy          0.0001 \
	wolfeGradient        0.9 \
	fdTest               no
fluid-solvent H2O 55.338 ScalarEOS \
	epsBulk 78.4 \
	pMol 0.92466 \
	epsInf 1.77 \
	Pvap 1.06736e-10 \
	sigmaBulk 4.62e-05 \
	Rvdw 2.61727 \
	Res 1.42 \
	tauNuc 343133 \
	poleEl 15 7 1
forces-output-coords Positions
ion Cr   0.000000000000000   0.000000000000000   0.000000000000000 0
ion Cr   0.165400000000000   0.162130000000000   0.180150000000000 1
ion Cr  -0.008310000000000  -0.013310000000000   0.337920000000000 1
ion Cr   0.164090000000000   0.160850000000000   0.494630000000000 1
ion Cr   0.001000000000000  -0.001200000000000   0.668210000000000 1
ion Cr   0.153760000000000   0.169590000000000   0.840810000000000 1
ion Cr  -0.009830000000000   0.342690000000000   0.007010000000000 1
ion Cr   0.166880000000000   0.503240000000000   0.177730000000000 1
ion Cr   0.002060000000000   0.330090000000000   0.327550000000000 1
ion Cr   0.160900000000000   0.497250000000000   0.510620000000000 1
ion Cr  -0.005080000000000   0.308850000000000   0.677130000000000 1
ion Cr   0.153800000000000   0.484960000000000   0.826600000000000 1
ion Cr  -0.001400000000000   0.662240000000000   0.006910000000000 1
ion Cr   0.166860000000000   0.839660000000000   0.177160000000000 1
ion Cr  -0.003840000000000   0.663520000000000   0.321210000000000 1
ion Cr   0.157170000000000   0.824600000000000   0.501890000000000 1
ion Cr   0.008300000000000   0.657200000000000   0.667980000000000 1
ion Cr   0.160660000000000   0.835750000000000   0.835920000000000 1
ion Cr   0.327670000000000   0.012310000000000  -0.029200000000000 1
ion Cr   0.501090000000000   0.170890000000000   0.181850000000000 1
ion Cr   0.345910000000000  -0.005050000000000   0.320260000000000 1
ion Cr   0.515170000000000   0.152090000000000   0.508130000000000 1
ion Cr   0.331240000000000  -0.010590000000000   0.682530000000000 1
ion Cr   0.483570000000000   0.170100000000000   0.837500000000000 1
ion Cr   0.323970000000000   0.299130000000000   0.009470000000000 1
ion Cr   0.493950000000000   0.493350000000000   0.175010000000000 1
ion Cr   0.342530000000000   0.349070000000000   0.328790000000000 1
ion Cr   0.488120000000000   0.494230000000000   0.501880000000000 1
ion Cr   0.336510000000000   0.334540000000000   0.658810000000000 1
ion Cr   0.495600000000000   0.485000000000000   0.830760000000000 1
ion Cr   0.332170000000000   0.665230000000000   0.000660000000000 1
ion Cr   0.503040000000000   0.830060000000000   0.181400000000000 1
ion Cr   0.332160000000000   0.666440000000000   0.340890000000000 1
ion Cr   0.502630000000000   0.826790000000000   0.515760000000000 1
ion Cr   0.319190000000000   0.663330000000000   0.654620000000000 1
ion Cr   0.482410000000000   0.834930000000000   0.845010000000000 1
ion Cr   0.665230000000000   0.002790000000000   0.009400000000000 1
ion Cr   0.846490000000000   0.162580000000000   0.174330000000000 1
ion Cr   0.670560000000000   0.005960000000000   0.324360000000000 1
ion Cr   0.828260000000000   0.146680000000000   0.508710000000000 1
ion Cr   0.669920000000000   0.015150000000000   0.660620000000000 1
ion Cr   0.839630000000000   0.165220000000000   0.844350000000000 1
ion Cr   0.659320000000000   0.337500000000000   0.007180000000000 1
ion Cr   0.839040000000000   0.498490000000000   0.150300000000000 1
ion Cr   0.671600000000000   0.328640000000000   0.327040000000000 1
ion Cr   0.852530000000000   0.500680000000000   0.493680000000000 1
ion Cr   0.653880000000000   0.353630000000000   0.679890000000000 1
ion Cr   0.854580000000000   0.503150000000000   0.836800000000000 1
ion Cr   0.656750000000000   0.677720000000000   0.003640000000000 1
ion Cr   0.834290000000000   0.831450000000000   0.167220000000000 1
ion Cr   0.657180000000000   0.652720000000000   0.332730000000000 1
ion Cr   0.826550000000000   0.835040000000000   0.481040000000000 1
ion Cr   0.663790000000000   0.668230000000000   0.651170000000000 1
ion Cr   0.851340000000000   0.822840000000000   0.836950000000000 1
ion O   0.310000000000000   0.170000000000000   0.160000000000000 1
ion-species GBRV/$ID_pbesol.uspp
ion-width 0
ionic-minimize  \
	dirUpdateScheme      L-BFGS \
	linminMethod         DirUpdateRecommended \
	nIterations          30 \
	history              15 \
	knormThreshold       0.0001 \
	maxThreshold         no \
	energyDiffThreshold  1e-06 \
	nEnergyDiff          2 \
	alphaTstart          1 \
	alphaTmin            1e-10 \
	updateTestStepSize   yes \
	alphaTreduceFactor   0.1 \
	alphaTincreaseFactor 3 \
	nAlphaAdjustMax      3 \
	wolfeEnergy          0.0001 \
	wolfeGradient        0.9 \
	fdTest               no
kpoint   0.500000000000   0.500000000000   0.500000000000  1.00000000000000
kpoint-folding 3 3 3 
latt-move-scale 1 1 1
latt-scale 1 1 1 
lattice  \
	  15.986182610261316    0.000000000000000    0.000000000000000  \
	   0.000000000000000   15.986182610261316    0.000000000000000  \
	   0.000000000000000    0.000000000000000   15.986182610261316 
lattice-minimize  \
	dirUpdateScheme      L-BFGS \
	linminMethod         DirUpdateRecommended \
	nIterations          0 \
	history              15 \
	knormThreshold       0 \
	maxThreshold         no \
	energyDiffThreshold  1e-06 \
	nEnergyDiff          2 \
	alphaTstart          1 \
	alphaTmin            1e-10 \
	updateTestStepSize   yes \
	alphaTreduceFactor   0.1 \
	alphaTincreaseFactor 3 \
	nAlphaAdjustMax      3 \
	wolfeEnergy          0.0001 \
	wolfeGradient        0.9 \
	fdTest               no
lcao-params -1 1e-06 0.01
pcm-variant GLSSA13
perturb-minimize  \
	nIterations            0 \
	algorithm              MINRES \
	residualTol            0.0001 \
	residualDiffThreshold  0.0001 \
	CGBypass               no \
	recomputeResidual      no
spintype no-spin
subspace-rotation-factor 1 yes
symmetries automatic
symmetry-threshold 0.0001



---------- Setting up symmetries ----------

Found 48 point-group symmetries of the bravais lattice
Found 1 space-group symmetries with basis
Applied RMS atom displacement 0 bohrs to make symmetries exact.

---------- Initializing the Grid ----------
R = 
[      15.9862            0            0  ]
[            0      15.9862            0  ]
[            0            0      15.9862  ]
unit cell volume = 4085.4
G =
[   0.393039          0          0  ]
[          0   0.393039          0  ]
[          0          0   0.393039  ]
Minimum fftbox size, Smin = [  72  72  72  ]
Chosen fftbox size, S = [  72  72  72  ]

---------- Initializing tighter grid for wavefunction operations ----------
R = 
[      15.9862            0            0  ]
[            0      15.9862            0  ]
[            0            0      15.9862  ]
unit cell volume = 4085.4
G =
[   0.393039          0          0  ]
[          0   0.393039          0  ]
[          0          0   0.393039  ]
Minimum fftbox size, Smin = [  68  68  68  ]
Chosen fftbox size, S = [  70  70  70  ]

---------- Exchange Correlation functional ----------
Initalized PBEsol GGA exchange.
Initalized PBEsol GGA correlation.

---------- Setting up pseudopotentials ----------
Width of ionic core gaussian charges (only for fluid interactions / plotting) set to 0

Reading pseudopotential file '/home/rc652/JDFTx/build/pseudopotentials/GBRV/cr_pbesol.uspp':
  Title: Cr.  Created by USPP 7.3.6 on 22-9-15
  Reference state energy: -86.950313.  14 valence electrons in orbitals:
    |300>  occupation: 2  eigenvalue: -3.277767
    |310>  occupation: 6  eigenvalue: -2.223139
    |400>  occupation: 1.6  eigenvalue: -0.455775
    |320>  occupation: 3.4  eigenvalue: -0.615164
  lMax: 2  lLocal: 3  QijEcut: 6
  6 projectors sampled on a log grid with 595 points:
    l: 0  eig: -3.277767  rCut: 1.55
    l: 0  eig: -0.455775  rCut: 1.55
    l: 1  eig: -2.223139  rCut: 1.55
    l: 1  eig: 0.500000  rCut: 1.55
    l: 2  eig: -0.615164  rCut: 1.7
    l: 2  eig: 0.500000  rCut: 1.7
  Partial core density with radius 0.75
  Transforming core density to a uniform radial grid of dG=0.02 with 1231 points.
  Transforming local potential to a uniform radial grid of dG=0.02 with 1231 points.
  Transforming nonlocal projectors to a uniform radial grid of dG=0.02 with 432 points.
  Transforming density augmentations to a uniform radial grid of dG=0.02 with 1231 points.
  Transforming atomic orbitals to a uniform radial grid of dG=0.02 with 432 points.
  Core radius for overlap checks: 1.70 bohrs.

Reading pseudopotential file '/home/rc652/JDFTx/build/pseudopotentials/GBRV/o_pbesol.uspp':
  Title: O.  Created by USPP 7.3.6 on 3-2-2014
  Reference state energy: -15.849885.  6 valence electrons in orbitals:
    |200>  occupation: 2  eigenvalue: -0.873214
    |210>  occupation: 4  eigenvalue: -0.330058
  lMax: 2  lLocal: 2  QijEcut: 6
  5 projectors sampled on a log grid with 511 points:
    l: 0  eig: -0.873214  rCut: 1.25
    l: 0  eig: 0.000000  rCut: 1.25
    l: 1  eig: -0.330058  rCut: 1.25
    l: 1  eig: 0.000000  rCut: 1.25
    l: 2  eig: 1.000000  rCut: 1.25
  Partial core density with radius 0.7
  Transforming core density to a uniform radial grid of dG=0.02 with 1231 points.
  Transforming local potential to a uniform radial grid of dG=0.02 with 1231 points.
  Transforming nonlocal projectors to a uniform radial grid of dG=0.02 with 432 points.
  Transforming density augmentations to a uniform radial grid of dG=0.02 with 1231 points.
  Transforming atomic orbitals to a uniform radial grid of dG=0.02 with 432 points.
  Core radius for overlap checks: 1.25 bohrs.

Initialized 2 species with 55 total atoms.

Folded 1 k-points by 3x3x3 to 27 k-points.

---------- Setting up k-points, bands, fillings ----------
Adding inversion symmetry to k-mesh for non-inversion-symmetric unit cell.
Reduced to 14 k-points under symmetry. 
Computing the number of bands and number of electrons
Calculating initial fillings.
nElectrons: 762.000000   nBands: 544   nStates: 14

----- Setting up reduced wavefunction bases (one per k-point) -----
average nbasis = 17455.407 , ideal nbasis = 17453.129

---------- Setting up ewald sum ----------
Optimum gaussian width for ewald sums = 3.270351 bohr.
Real space sum over 343 unit cells with max indices [  3  3  3  ]
Reciprocal space sum over 6859 terms with max indices [  9  9  9  ]

---------- Allocating electronic variables ----------
Initializing wave functions:  linear combination of atomic orbitals
Cr pseudo-atom occupations:   s ( 2 0 )  p ( 6 )  d ( 6 )
O pseudo-atom occupations:   s ( 2 )  p ( 4 )
	FillingsUpdate:  mu: +0.872370181  nElectrons: 762.000000
LCAOMinimize: Iter:   0  F: -4694.6660369056262425  |grad|_K:  1.741e-03  alpha:  1.000e+00
	FillingsUpdate:  mu: +0.887183826  nElectrons: 762.000000
LCAOMinimize: Iter:   1  F: -4695.1240664452334386  |grad|_K:  1.177e-03  alpha:  4.837e-02  linmin: -2.489e-01  cgtest:  6.750e-01  t[s]:    103.56
LCAOMinimize: 	Predicted alpha/alphaT>3.000000, increasing alphaT to 1.451224e-01.
LCAOMinimize: 	Predicted alpha/alphaT>3.000000, increasing alphaT to 4.353671e-01.
	FillingsUpdate:  mu: +0.909321166  nElectrons: 762.000000
LCAOMinimize: Iter:   2  F: -4696.1989770772352131  |grad|_K:  4.566e-03  alpha:  6.348e-01  linmin:  4.711e-02  cgtest: -1.567e-01  t[s]:    160.51
LCAOMinimize: 	Bad step direction: g.d > 0.
LCAOMinimize: 	Undoing step.
LCAOMinimize: 	Step failed: resetting search direction.
	FillingsUpdate:  mu: +0.909321166  nElectrons: 762.000000
LCAOMinimize: Iter:   3  F: -4696.1989770772352131  |grad|_K:  4.566e-03  alpha:  0.000e+00
	FillingsUpdate:  mu: +0.921575773  nElectrons: 762.000000
LCAOMinimize: Iter:   4  F: -4697.4386093226412413  |grad|_K:  2.100e-03  alpha:  4.187e-02  linmin:  2.777e-01  cgtest: -6.814e-01  t[s]:    224.95
	FillingsUpdate:  mu: +0.921529348  nElectrons: 762.000000
LCAOMinimize: Iter:   5  F: -4697.4852835880501516  |grad|_K:  2.105e-03  alpha:  2.090e-02  linmin: -3.220e-04  cgtest:  9.526e-01  t[s]:    262.09
	FillingsUpdate:  mu: +0.937476731  nElectrons: 762.000000
LCAOMinimize: Iter:   6  F: -4697.7634011272766656  |grad|_K:  5.370e-04  alpha:  3.020e-02  linmin:  6.233e-03  cgtest: -3.132e-02  t[s]:    299.26
LCAOMinimize: 	Predicted alpha/alphaT>3.000000, increasing alphaT to 9.061495e-02.
	FillingsUpdate:  mu: +0.935821507  nElectrons: 762.000000
LCAOMinimize: Iter:   7  F: -4697.8711377177178292  |grad|_K:  7.207e-04  alpha:  1.800e-01  linmin: -4.166e-04  cgtest:  3.688e-02  t[s]:    346.29
	FillingsUpdate:  mu: +0.940674420  nElectrons: 762.000000
LCAOMinimize: Iter:   8  F: -4697.9550432701289537  |grad|_K:  4.613e-04  alpha:  7.730e-02  linmin: -5.927e-04  cgtest: -1.074e-01  t[s]:    383.47
	FillingsUpdate:  mu: +0.944854401  nElectrons: 762.000000
LCAOMinimize: Iter:   9  F: -4697.9751895477766084  |grad|_K:  2.121e-04  alpha:  4.504e-02  linmin: -1.019e-03  cgtest: -2.394e-02  t[s]:    420.67
	FillingsUpdate:  mu: +0.946246426  nElectrons: 762.000000
LCAOMinimize: Iter:  10  F: -4697.9856820310178591  |grad|_K:  2.526e-04  alpha:  1.130e-01  linmin:  2.942e-03  cgtest: -6.348e-03  t[s]:    457.90
	FillingsUpdate:  mu: +0.949064966  nElectrons: 762.000000
LCAOMinimize: Iter:  11  F: -4697.9996948800417158  |grad|_K:  2.755e-04  alpha:  1.074e-01  linmin:  1.421e-03  cgtest:  5.104e-02  t[s]:    495.06
	FillingsUpdate:  mu: +0.951709789  nElectrons: 762.000000
LCAOMinimize: Iter:  12  F: -4698.0065506735745657  |grad|_K:  8.798e-05  alpha:  4.309e-02  linmin: -4.670e-03  cgtest:  1.015e-01  t[s]:    532.28
	FillingsUpdate:  mu: +0.951978455  nElectrons: 762.000000
LCAOMinimize: Iter:  13  F: -4698.0073471462510497  |grad|_K:  3.544e-05  alpha:  4.905e-02  linmin:  6.970e-04  cgtest: -2.649e-02  t[s]:    569.51
	FillingsUpdate:  mu: +0.952034379  nElectrons: 762.000000
LCAOMinimize: Iter:  14  F: -4698.0075161112245041  |grad|_K:  3.537e-05  alpha:  6.477e-02  linmin:  1.401e-04  cgtest:  2.165e-03  t[s]:    606.75
	FillingsUpdate:  mu: +0.952118590  nElectrons: 762.000000
LCAOMinimize: Iter:  15  F: -4698.0077709154720651  |grad|_K:  2.411e-05  alpha:  9.812e-02  linmin:  7.563e-04  cgtest:  3.360e-03  t[s]:    643.91
	FillingsUpdate:  mu: +0.952114838  nElectrons: 762.000000
LCAOMinimize: Iter:  16  F: -4698.0078307181111086  |grad|_K:  7.057e-06  alpha:  4.964e-02  linmin: -9.998e-06  cgtest:  2.038e-02  t[s]:    681.08
	FillingsUpdate:  mu: +0.952106173  nElectrons: 762.000000
LCAOMinimize: Iter:  17  F: -4698.0078351923075388  |grad|_K:  4.659e-06  alpha:  4.322e-02  linmin:  3.496e-05  cgtest: -4.261e-04  t[s]:    718.35
	FillingsUpdate:  mu: +0.952081078  nElectrons: 762.000000
LCAOMinimize: Iter:  18  F: -4698.0078407104601865  |grad|_K:  6.261e-06  alpha:  1.223e-01  linmin:  6.414e-05  cgtest: -2.171e-04  t[s]:    755.55
	FillingsUpdate:  mu: +0.951992568  nElectrons: 762.000000
LCAOMinimize: Iter:  19  F: -4698.0078517227166230  |grad|_K:  3.654e-06  alpha:  1.352e-01  linmin: -7.469e-05  cgtest:  2.096e-03  t[s]:    792.73
	FillingsUpdate:  mu: +0.951980146  nElectrons: 762.000000
LCAOMinimize: Iter:  20  F: -4698.0078527337545893  |grad|_K:  1.496e-06  alpha:  3.642e-02  linmin:  6.558e-05  cgtest: -1.414e-03  t[s]:    829.90
	FillingsUpdate:  mu: +0.951976518  nElectrons: 762.000000
LCAOMinimize: Iter:  21  F: -4698.0078530085256716  |grad|_K:  1.083e-06  alpha:  5.934e-02  linmin:  2.383e-03  cgtest: -7.134e-03  t[s]:    867.11
	FillingsUpdate:  mu: +0.951967829  nElectrons: 762.000000
LCAOMinimize: Iter:  22  F: -4698.0078533878140661  |grad|_K:  1.104e-06  alpha:  1.583e-01  linmin:  2.482e-03  cgtest: -2.346e-04  t[s]:    904.29
LCAOMinimize: Converged (|Delta F|<1.000000e-06 for 2 iters).


---- Citations for features of the code used in this run ----

   Software package:
      R. Sundararaman, K. Letchworth-Weaver, K.A. Schwarz, D. Gunceler, Y. Ozhabes and T.A. Arias, 'JDFTx: software for joint density-functional theory', SoftwareX 6, 278 (2017)

   gga-PBEsol exchange-correlation functional:
      J.P. Perdew et al., Phys. Rev. Lett. 100, 136406 (2008)

   Pseudopotentials:
      KF Garrity, JW Bennett, KM Rabe and D Vanderbilt, Comput. Mater. Sci. 81, 446 (2014)

This list may not be complete. Please suggest additional citations or
report any other bugs at https://github.com/shankar1729/jdftx/issues

Initialization completed successfully at t[s]:    918.10


-------- Electronic minimization -----------
Will mix electronic density at each iteration.
	FillingsUpdate:  mu: +0.951967829  nElectrons: 762.000000
	FillingsUpdate:  mu: +0.887862081  nElectrons: 762.000000
SCF: Cycle:  0   F: -4693.962045446441152   dF: +4.046e+00   |Residual|: 4.520e+00   |deigs|: 5.247e-02  t[s]:   1057.05
	FillingsUpdate:  mu: +0.731331743  nElectrons: 762.000000
SCF: Cycle:  1   F: -4709.444411768291502   dF: -1.548e+01   |Residual|: 8.017e-01   |deigs|: 1.908e-01  t[s]:   1172.24
	FillingsUpdate:  mu: +0.737173370  nElectrons: 762.000000
SCF: Cycle:  2   F: -4688.247948561765952   dF: +2.120e+01   |Residual|: 2.467e+00   |deigs|: 2.385e-02  t[s]:   1287.51
	FillingsUpdate:  mu: +0.740872262  nElectrons: 762.000000
SCF: Cycle:  3   F: -4709.593405409833395   dF: -2.135e+01   |Residual|: 6.292e-01   |deigs|: 2.044e-02  t[s]:   1402.87
	FillingsUpdate:  mu: +0.741340288  nElectrons: 762.000000
SCF: Cycle:  4   F: -4710.835853692491582   dF: -1.242e+00   |Residual|: 2.128e-01   |deigs|: 2.930e-03  t[s]:   1518.16
	FillingsUpdate:  mu: +0.740889260  nElectrons: 762.000000
SCF: Cycle:  5   F: -4710.621701093395131   dF: +2.142e-01   |Residual|: 3.170e-01   |deigs|: 1.765e-03  t[s]:   1633.40
	FillingsUpdate:  mu: +0.740873641  nElectrons: 762.000000
SCF: Cycle:  6   F: -4710.902840899241710   dF: -2.811e-01   |Residual|: 1.269e-01   |deigs|: 1.065e-03  t[s]:   1748.73
	FillingsUpdate:  mu: +0.740595372  nElectrons: 762.000000
SCF: Cycle:  7   F: -4710.803940924121889   dF: +9.890e-02   |Residual|: 2.076e-01   |deigs|: 1.133e-03  t[s]:   1864.09
	FillingsUpdate:  mu: +0.740501571  nElectrons: 762.000000
SCF: Cycle:  8   F: -4710.943001074135282   dF: -1.391e-01   |Residual|: 4.207e-02   |deigs|: 7.533e-04  t[s]:   1976.55
	FillingsUpdate:  mu: +0.740513064  nElectrons: 762.000000
SCF: Cycle:  9   F: -4710.947382068547995   dF: -4.381e-03   |Residual|: 2.353e-02   |deigs|: 2.656e-04  t[s]:   2079.73
	FillingsUpdate:  mu: +0.740475737  nElectrons: 762.000000
SCF: Cycle: 10   F: -4710.947529074514023   dF: -1.470e-04   |Residual|: 1.989e-02   |deigs|: 8.656e-05  t[s]:   2150.39
	FillingsUpdate:  mu: +0.740464992  nElectrons: 762.000000
SCF: Cycle: 11   F: -4710.948917451085435   dF: -1.388e-03   |Residual|: 4.491e-03   |deigs|: 6.915e-05  t[s]:   2221.03
	FillingsUpdate:  mu: +0.740446347  nElectrons: 762.000000
SCF: Cycle: 12   F: -4710.948762439149505   dF: +1.550e-04   |Residual|: 7.306e-03   |deigs|: 2.503e-05  t[s]:   2291.66
	FillingsUpdate:  mu: +0.740451218  nElectrons: 762.000000
SCF: Cycle: 13   F: -4710.948934264186391   dF: -1.718e-04   |Residual|: 3.409e-03   |deigs|: 2.285e-05  t[s]:   2362.27
	FillingsUpdate:  mu: +0.740460505  nElectrons: 762.000000
SCF: Cycle: 14   F: -4710.948958569014394   dF: -2.430e-05   |Residual|: 2.011e-03   |deigs|: 1.071e-05  t[s]:   2432.87
	FillingsUpdate:  mu: +0.740460297  nElectrons: 762.000000
SCF: Cycle: 15   F: -4710.948943131830674   dF: +1.544e-05   |Residual|: 2.818e-03   |deigs|: 8.867e-06  t[s]:   2503.50
	FillingsUpdate:  mu: +0.740459535  nElectrons: 762.000000
SCF: Cycle: 16   F: -4710.948970729670691   dF: -2.760e-05   |Residual|: 6.472e-04   |deigs|: 5.339e-06  t[s]:   2574.07
	FillingsUpdate:  mu: +0.740457675  nElectrons: 762.000000
SCF: Cycle: 17   F: -4710.948970193581772   dF: +5.361e-07   |Residual|: 6.963e-04   |deigs|: 3.327e-06  t[s]:   2644.65
	FillingsUpdate:  mu: +0.740457097  nElectrons: 762.000000
SCF: Cycle: 18   F: -4710.948972052357931   dF: -1.859e-06   |Residual|: 1.554e-04   |deigs|: 1.464e-06  t[s]:   2715.31
	FillingsUpdate:  mu: +0.740457426  nElectrons: 762.000000
SCF: Cycle: 19   F: -4710.948971800459731   dF: +2.519e-07   |Residual|: 2.850e-04   |deigs|: 1.140e-06  t[s]:   2785.86
	FillingsUpdate:  mu: +0.740457766  nElectrons: 762.000000
SCF: Cycle: 20   F: -4710.948972108332782   dF: -3.079e-07   |Residual|: 8.279e-05   |deigs|: 1.018e-06  t[s]:   2856.43
	FillingsUpdate:  mu: +0.740457750  nElectrons: 762.000000
SCF: Cycle: 21   F: -4710.948972123301246   dF: -1.497e-08   |Residual|: 4.893e-05   |deigs|: 2.859e-07  t[s]:   2927.02
	FillingsUpdate:  mu: +0.740457664  nElectrons: 762.000000
SCF: Cycle: 22   F: -4710.948972103903543   dF: +1.940e-08   |Residual|: 8.787e-05   |deigs|: 2.160e-07  t[s]:   2997.72
	FillingsUpdate:  mu: +0.740457678  nElectrons: 762.000000
SCF: Cycle: 23   F: -4710.948972127845082   dF: -2.394e-08   |Residual|: 2.520e-05   |deigs|: 1.615e-07  t[s]:   3068.68
	FillingsUpdate:  mu: +0.740457705  nElectrons: 762.000000
SCF: Cycle: 24   F: -4710.948972129118374   dF: -1.273e-09   |Residual|: 1.752e-05   |deigs|: 9.500e-08  t[s]:   3139.33
	FillingsUpdate:  mu: +0.740457729  nElectrons: 762.000000
SCF: Cycle: 25   F: -4710.948972129726826   dF: -6.085e-10   |Residual|: 1.242e-05   |deigs|: 6.259e-08  t[s]:   3196.36
SCF: Converged (|Delta E|<1.000000e-08 for 2 iters).

Setting wave functions to eigenvectors of Hamiltonian

# Ionic positions in lattice coordinates:
ion Cr   0.000000000000000   0.000000000000000   0.000000000000000 0
ion Cr   0.165400000000000   0.162130000000000   0.180150000000000 1
ion Cr  -0.008310000000000  -0.013310000000000   0.337920000000000 1
ion Cr   0.164090000000000   0.160850000000000   0.494630000000000 1
ion Cr   0.001000000000000  -0.001200000000000   0.668210000000000 1
ion Cr   0.153760000000000   0.169590000000000   0.840810000000000 1
ion Cr  -0.009830000000000   0.342690000000000   0.007010000000000 1
ion Cr   0.166880000000000   0.503240000000000   0.177730000000000 1
ion Cr   0.002060000000000   0.330090000000000   0.327550000000000 1
ion Cr   0.160900000000000   0.497250000000000   0.510620000000000 1
ion Cr  -0.005080000000000   0.308850000000000   0.677130000000000 1
ion Cr   0.153800000000000   0.484960000000000   0.826600000000000 1
ion Cr  -0.001400000000000   0.662240000000000   0.006910000000000 1
ion Cr   0.166860000000000   0.839660000000000   0.177160000000000 1
ion Cr  -0.003840000000000   0.663520000000000   0.321210000000000 1
ion Cr   0.157170000000000   0.824600000000000   0.501890000000000 1
ion Cr   0.008300000000000   0.657200000000000   0.667980000000000 1
ion Cr   0.160660000000000   0.835750000000000   0.835920000000000 1
ion Cr   0.327670000000000   0.012310000000000  -0.029200000000000 1
ion Cr   0.501090000000000   0.170890000000000   0.181850000000000 1
ion Cr   0.345910000000000  -0.005050000000000   0.320260000000000 1
ion Cr   0.515170000000000   0.152090000000000   0.508130000000000 1
ion Cr   0.331240000000000  -0.010590000000000   0.682530000000000 1
ion Cr   0.483570000000000   0.170100000000000   0.837500000000000 1
ion Cr   0.323970000000000   0.299130000000000   0.009470000000000 1
ion Cr   0.493950000000000   0.493350000000000   0.175010000000000 1
ion Cr   0.342530000000000   0.349070000000000   0.328790000000000 1
ion Cr   0.488120000000000   0.494230000000000   0.501880000000000 1
ion Cr   0.336510000000000   0.334540000000000   0.658810000000000 1
ion Cr   0.495600000000000   0.485000000000000   0.830760000000000 1
ion Cr   0.332170000000000   0.665230000000000   0.000660000000000 1
ion Cr   0.503040000000000   0.830060000000000   0.181400000000000 1
ion Cr   0.332160000000000   0.666440000000000   0.340890000000000 1
ion Cr   0.502630000000000   0.826790000000000   0.515760000000000 1
ion Cr   0.319190000000000   0.663330000000000   0.654620000000000 1
ion Cr   0.482410000000000   0.834930000000000   0.845010000000000 1
ion Cr   0.665230000000000   0.002790000000000   0.009400000000000 1
ion Cr   0.846490000000000   0.162580000000000   0.174330000000000 1
ion Cr   0.670560000000000   0.005960000000000   0.324360000000000 1
ion Cr   0.828260000000000   0.146680000000000   0.508710000000000 1
ion Cr   0.669920000000000   0.015150000000000   0.660620000000000 1
ion Cr   0.839630000000000   0.165220000000000   0.844350000000000 1
ion Cr   0.659320000000000   0.337500000000000   0.007180000000000 1
ion Cr   0.839040000000000   0.498490000000000   0.150300000000000 1
ion Cr   0.671600000000000   0.328640000000000   0.327040000000000 1
ion Cr   0.852530000000000   0.500680000000000   0.493680000000000 1
ion Cr   0.653880000000000   0.353630000000000   0.679890000000000 1
ion Cr   0.854580000000000   0.503150000000000   0.836800000000000 1
ion Cr   0.656750000000000   0.677720000000000   0.003640000000000 1
ion Cr   0.834290000000000   0.831450000000000   0.167220000000000 1
ion Cr   0.657180000000000   0.652720000000000   0.332730000000000 1
ion Cr   0.826550000000000   0.835040000000000   0.481040000000000 1
ion Cr   0.663790000000000   0.668230000000000   0.651170000000000 1
ion Cr   0.851340000000000   0.822840000000000   0.836950000000000 1
ion O   0.310000000000000   0.170000000000000   0.160000000000000 1

# Forces in Lattice coordinates:
force Cr  -0.017972845200037  -0.127400110170760   0.120307685272938 0
force Cr -17.440899726955259  -1.097107000343282   2.292873725922453 1
force Cr   0.292593085936667   0.225983458284892  -0.020334013044444 1
force Cr   0.153715081263144   0.000918926032436   0.205216846419867 1
force Cr  -0.029517183549446  -0.321450295507449  -0.067564884583596 1
force Cr   0.098466289825670  -0.185431352249610  -0.362206024645568 1
force Cr   0.368303233045522  -0.414274313374072  -0.122814352889922 1
force Cr  -0.005619641800263  -0.055417124657671  -0.288866389236990 1
force Cr  -0.086263279960334   0.110995513972532   0.523446733189391 1
force Cr   0.137017262471399  -0.146446253342896  -0.353158521485806 1
force Cr   0.032224494440339   0.583512176037701  -0.386992291394100 1
force Cr   0.591190212412188   0.302636380262143   0.342585471261896 1
force Cr   0.216991429992184   0.294714708026833  -0.250636972091631 1
force Cr   0.051330572931966  -0.224016270014067  -0.334143061601553 1
force Cr   0.111920877079389  -0.003431993745812   0.423825238955240 1
force Cr   0.203981642500932   0.180802762841048  -0.022588173720716 1
force Cr  -0.450309731993874   0.212687002493245  -0.135930080269197 1
force Cr   0.116028981413196  -0.294923442797568   0.008730212950471 1
force Cr   0.108244053393397  -0.852005132932314   0.772376778989512 1
force Cr   3.043228653567040  -0.211621561878252  -0.138591777502800 1
force Cr  -0.221228060070346  -0.498370816383184   1.032553716964348 1
force Cr  -0.486016648934084   0.422217851150186  -0.117809626523793 1
force Cr  -0.062488646536879   0.221448880149049  -0.830245668209363 1
force Cr   0.718418299149882  -0.129109129862302  -0.216350912986298 1
force Cr   0.270061627286607   2.513449337469371  -1.892276390683107 1
force Cr   0.272397146670160   0.314488851551285  -0.353282013083653 1
force Cr  -0.256855102483001  -0.148561048822207   0.727324272061723 1
force Cr   0.402463565456006   0.107039162222435  -0.045678720134269 1
force Cr  -0.380323298484249  -0.331504725361425   0.183122966834763 1
force Cr  -0.026075199125160   0.617040161831740   0.240366154454191 1
force Cr  -0.164828022324227  -0.074891321257346   0.002434355034800 1
force Cr  -0.105532854213262   0.032921245057846  -0.382174715689068 1
force Cr  -0.106712279697407   0.110564258010132  -0.177838234163799 1
force Cr  -0.151476374365249   0.099021339570895  -0.350310979765711 1
force Cr   0.359692448600380   0.038168185275976   0.507127097189029 1
force Cr   0.602762824132785  -0.265971492038449  -0.208289422255227 1
force Cr  -0.008602898299118  -0.055428239563655  -0.313760930891920 1
force Cr  -0.536335782523833   0.139650201183346  -0.159784322110051 1
force Cr  -0.102658624346801  -0.404914825896273   0.358167709663105 1
force Cr   0.253749519899515   0.715267311943955  -0.163952300848309 1
force Cr  -0.106024766515670  -0.552711179286838   0.492770192437495 1
force Cr  -0.541547348403067   0.007374915170461  -0.060876388178599 1
force Cr   0.075229351496539  -0.084704189842942  -0.242467923271343 1
force Cr  -0.444591990470254   0.080606658418011   0.595956397634579 1
force Cr   0.081237212584029   0.166930040602697   0.425177788057691 1
force Cr  -0.631626787672044  -0.193602544930917   0.098908660704037 1
force Cr   0.499219444015152  -0.473615164591754  -0.249975659531560 1
force Cr  -0.862546066870733  -0.057145208899634  -0.222227004423340 1
force Cr   0.169256512917777  -0.284513286619796  -0.204168880326385 1
force Cr  -0.153098949624796  -0.036827820833136  -0.199413981650300 1
force Cr   0.244237889821912   0.237519895384049  -0.054002809124945 1
force Cr   0.067785104112077  -0.346455973492742   0.587786000077498 1
force Cr   0.154692433972428   0.035968187239745   0.527779464629861 1
force Cr  -0.695148263491665   0.208701087699957  -0.173218334497161 1
force O  14.324455297696778  -0.091884543809027  -1.300890822201518 1

# Energy components:
   Eewald =    -3603.5149305726577040
       EH =     1001.5152363773978550
     Eloc =    -3123.6732413862414433
      Enl =      510.4416467893291269
      Exc =     -605.4542979598554666
 Exc_core =       40.2102915384098480
       KE =     1070.0109279723978943
-------------------------------------
     Etot =    -4710.4643672412203159
       TS =        0.4846048885062089
-------------------------------------
        F =    -4710.9489721297268261

IonicMinimize: Iter:   0  F: -4710.948972129726826  |grad|_K:  1.157e-01  t[s]:   3223.67

#--- Lowdin population analysis ---
# oxidation-state Cr +0.253 +0.187 +0.233 +0.280 +0.268 +0.244 +0.245 +0.257 +0.254 +0.274 +0.252 +0.283 +0.255 +0.269 +0.260 +0.273 +0.241 +0.264 +0.255 +0.256 +0.266 +0.273 +0.280 +0.249 +0.263 +0.253 +0.259 +0.251 +0.266 +0.266 +0.288 +0.254 +0.279 +0.278 +0.271 +0.269 +0.295 +0.254 +0.247 +0.264 +0.262 +0.262 +0.283 +0.253 +0.288 +0.273 +0.283 +0.269 +0.286 +0.267 +0.279 +0.278 +0.282 +0.286
# oxidation-state O -0.079


-------- Electronic minimization -----------
Will mix electronic density at each iteration.
	FillingsUpdate:  mu: +0.740457729  nElectrons: 762.000000
	FillingsUpdate:  mu: +0.740538470  nElectrons: 762.000000
SCF: Cycle:  0   F: -4704.074601470617381   dF: +6.541e+00   |Residual|: 1.072e+00   |deigs|: 1.674e-03  t[s]:   3382.36
	FillingsUpdate:  mu: +0.736400656  nElectrons: 762.000000
SCF: Cycle:  1   F: -4609.782059091042356   dF: +9.429e+01   |Residual|: 4.281e+00   |deigs|: 4.650e-02  t[s]:   3497.57
	FillingsUpdate:  mu: +0.742972515  nElectrons: 762.000000
SCF: Cycle:  2   F: -4709.008448244161627   dF: -9.923e+01   |Residual|: 7.699e-01   |deigs|: 4.289e-02  t[s]:   3612.86
	FillingsUpdate:  mu: +0.742453503  nElectrons: 762.000000
SCF: Cycle:  3   F: -4707.933831249119976   dF: +1.075e+00   |Residual|: 9.427e-01   |deigs|: 4.287e-03  t[s]:   3728.19
	FillingsUpdate:  mu: +0.740240330  nElectrons: 762.000000
SCF: Cycle:  4   F: -4710.677814470563135   dF: -2.744e+00   |Residual|: 3.623e-01   |deigs|: 4.643e-03  t[s]:   3843.50
	FillingsUpdate:  mu: +0.740372910  nElectrons: 762.000000
SCF: Cycle:  5   F: -4710.794198611025422   dF: -1.164e-01   |Residual|: 3.026e-01   |deigs|: 6.856e-04  t[s]:   3958.91
	FillingsUpdate:  mu: +0.740626467  nElectrons: 762.000000
SCF: Cycle:  6   F: -4710.994155507936739   dF: -2.000e-01   |Residual|: 1.794e-01   |deigs|: 6.718e-04  t[s]:   4071.46
	FillingsUpdate:  mu: +0.740602575  nElectrons: 762.000000
SCF: Cycle:  7   F: -4711.098921690570023   dF: -1.048e-01   |Residual|: 5.054e-02   |deigs|: 4.328e-04  t[s]:   4174.08
	FillingsUpdate:  mu: +0.740564191  nElectrons: 762.000000
SCF: Cycle:  8   F: -4711.074818752778810   dF: +2.410e-02   |Residual|: 9.132e-02   |deigs|: 3.508e-04  t[s]:   4277.50
	FillingsUpdate:  mu: +0.740513117  nElectrons: 762.000000
SCF: Cycle:  9   F: -4711.105530983911194   dF: -3.071e-02   |Residual|: 1.453e-02   |deigs|: 2.864e-04  t[s]:   4348.21
	FillingsUpdate:  mu: +0.740478187  nElectrons: 762.000000
SCF: Cycle: 10   F: -4711.105218941837848   dF: +3.120e-04   |Residual|: 1.695e-02   |deigs|: 6.606e-05  t[s]:   4418.82
	FillingsUpdate:  mu: +0.740436980  nElectrons: 762.000000
SCF: Cycle: 11   F: -4711.106206417229259   dF: -9.875e-04   |Residual|: 5.585e-03   |deigs|: 6.949e-05  t[s]:   4489.50
	FillingsUpdate:  mu: +0.740468788  nElectrons: 762.000000
SCF: Cycle: 12   F: -4711.105811414147865   dF: +3.950e-04   |Residual|: 1.165e-02   |deigs|: 4.739e-05  t[s]:   4560.13
	FillingsUpdate:  mu: +0.740473942  nElectrons: 762.000000
SCF: Cycle: 13   F: -4711.106310805010253   dF: -4.994e-04   |Residual|: 1.458e-03   |deigs|: 2.278e-05  t[s]:   4630.80
	FillingsUpdate:  mu: +0.740472738  nElectrons: 762.000000
SCF: Cycle: 14   F: -4711.106296462013233   dF: +1.434e-05   |Residual|: 2.483e-03   |deigs|: 8.041e-06  t[s]:   4701.44
	FillingsUpdate:  mu: +0.740470148  nElectrons: 762.000000
SCF: Cycle: 15   F: -4711.106316370791319   dF: -1.991e-05   |Residual|: 6.034e-04   |deigs|: 5.707e-06  t[s]:   4772.12
	FillingsUpdate:  mu: +0.740470487  nElectrons: 762.000000
SCF: Cycle: 16   F: -4711.106316664236147   dF: -2.934e-07   |Residual|: 5.271e-04   |deigs|: 2.639e-06  t[s]:   4842.78
	FillingsUpdate:  mu: +0.740470888  nElectrons: 762.000000
SCF: Cycle: 17   F: -4711.106316941273690   dF: -2.770e-07   |Residual|: 4.675e-04   |deigs|: 1.698e-06  t[s]:   4913.43
	FillingsUpdate:  mu: +0.740470970  nElectrons: 762.000000
SCF: Cycle: 18   F: -4711.106317374698847   dF: -4.334e-07   |Residual|: 2.939e-04   |deigs|: 1.140e-06  t[s]:   4984.05
	FillingsUpdate:  mu: +0.740470911  nElectrons: 762.000000
SCF: Cycle: 19   F: -4711.106317350330755   dF: +2.437e-08   |Residual|: 2.709e-04   |deigs|: 9.018e-07  t[s]:   5054.68
	FillingsUpdate:  mu: +0.740470723  nElectrons: 762.000000
SCF: Cycle: 20   F: -4711.106317630728881   dF: -2.804e-07   |Residual|: 1.038e-04   |deigs|: 8.653e-07  t[s]:   5125.31
	FillingsUpdate:  mu: +0.740470630  nElectrons: 762.000000
SCF: Cycle: 21   F: -4711.106317655130624   dF: -2.440e-08   |Residual|: 6.521e-05   |deigs|: 4.574e-07  t[s]:   5195.97
	FillingsUpdate:  mu: +0.740470666  nElectrons: 762.000000
SCF: Cycle: 22   F: -4711.106317654609484   dF: +5.211e-10   |Residual|: 6.625e-05   |deigs|: 2.326e-07  t[s]:   5266.60
	FillingsUpdate:  mu: +0.740470731  nElectrons: 762.000000
SCF: Cycle: 23   F: -4711.106317667130497   dF: -1.252e-08   |Residual|: 3.126e-05   |deigs|: 1.443e-07  t[s]:   5337.26
	FillingsUpdate:  mu: +0.740470725  nElectrons: 762.000000
SCF: Cycle: 24   F: -4711.106317667104122   dF: +2.638e-11   |Residual|: 2.984e-05   |deigs|: 1.547e-07  t[s]:   5407.94
	FillingsUpdate:  mu: +0.740470746  nElectrons: 762.000000
SCF: Cycle: 25   F: -4711.106317669862619   dF: -2.758e-09   |Residual|: 1.211e-05   |deigs|: 1.059e-07  t[s]:   5476.07
	FillingsUpdate:  mu: +0.740470740  nElectrons: 762.000000
SCF: Cycle: 26   F: -4711.106317669972668   dF: -1.100e-10   |Residual|: 8.684e-06   |deigs|: 5.438e-08  t[s]:   5529.52
SCF: Converged (|Delta E|<1.000000e-08 for 2 iters).

Setting wave functions to eigenvectors of Hamiltonian

# Ionic positions in lattice coordinates:
ion Cr   0.000000000000000   0.000000000000000   0.000000000000000 0
ion Cr   0.159209990654748   0.161740622003957   0.180963771652446 1
ion Cr  -0.008206154787617  -0.013229795438277   0.337912783185917 1
ion Cr   0.164144555544979   0.160850326139180   0.494702834212514 1
ion Cr   0.000989523955480  -0.001314087023283   0.668186020315836 1
ion Cr   0.153794947007537   0.169524187924861   0.840681448221562 1
ion Cr  -0.009699284240485   0.342542968487209   0.006966411538165 1
ion Cr   0.166878005513717   0.503220331718840   0.177627477442282 1
ion Cr   0.002029384004411   0.330129393797311   0.327735778269522 1
ion Cr   0.160948629265029   0.497198024259587   0.510494659301838 1
ion Cr  -0.005068563094516   0.309057096301182   0.676992651242896 1
ion Cr   0.154009821339320   0.485067409712306   0.826721588180762 1
ion Cr  -0.001322986829778   0.662344598204533   0.006821045575412 1
ion Cr   0.166878217909117   0.839580493619791   0.177041408143711 1
ion Cr  -0.003800277778905   0.663518781939367   0.321360421264439 1
ion Cr   0.157242395822068   0.824664169326649   0.501881983154045 1
ion Cr   0.008140179033597   0.657275485471143   0.667931756590524 1
ion Cr   0.160701180242448   0.835645327712697   0.835923098469723 1
ion Cr   0.327708417267031   0.012007611945621  -0.028925873116935 1
ion Cr   0.502170082684966   0.170814892668028   0.181800811918459 1
ion Cr   0.345831483192914  -0.005226878490164   0.320626467169558 1
ion Cr   0.514997506169639   0.152239850780938   0.508088187782708 1
ion Cr   0.331217821940835  -0.010511404820905   0.682235334671632 1
ion Cr   0.483824976294524   0.170054177437350   0.837423214157859 1
ion Cr   0.324065848495368   0.300022056896796   0.008798405717279 1
ion Cr   0.494046677402537   0.493461616313410   0.174884615473013 1
ion Cr   0.342438838677497   0.349017273690294   0.329048137143816 1
ion Cr   0.488262839719871   0.494267989634987   0.501863788009281 1
ion Cr   0.336375018157968   0.334422344524646   0.658874992798180 1
ion Cr   0.495590745561938   0.485218995833239   0.830845309173589 1
ion Cr   0.332111500323119   0.665203420065150   0.000660863985267 1
ion Cr   0.503002544973938   0.830071684191627   0.181264361065159 1
ion Cr   0.332122126380008   0.666479240738784   0.340826882824358 1
ion Cr   0.502576239002140   0.826825144002140   0.515635669932604 1
ion Cr   0.319317659676571   0.663343546401117   0.654799986211719 1
ion Cr   0.482623928614508   0.834835603148515   0.844936075289093 1
ion Cr   0.665226946715955   0.002770327774010   0.009288642035399 1
ion Cr   0.846299647233916   0.162629563730308   0.174273290400004 1
ion Cr   0.670523565076686   0.005816290294906   0.324487118526262 1
ion Cr   0.828350059109571   0.146933857966882   0.508651811128421 1
ion Cr   0.669882370387661   0.014953835385870   0.660794890753574 1
ion Cr   0.839437797579254   0.165222617456355   0.844328394152961 1
ion Cr   0.659346699906317   0.337469937346415   0.007093944880455 1
ion Cr   0.838882208336788   0.498518608384700   0.150511512922411 1
ion Cr   0.671628832176834   0.328699245711374   0.327190901302265 1
ion Cr   0.852305827177519   0.500611287858932   0.493715104010898 1
ion Cr   0.654057179679498   0.353461907622842   0.679801280284113 1
ion Cr   0.854273870826722   0.503129718398554   0.836721128654159 1
ion Cr   0.656810071407617   0.677619022416814   0.003567537724715 1
ion Cr   0.834235663128407   0.831436929312209   0.167149225302059 1
ion Cr   0.657266683304424   0.652804298998052   0.332710833678400 1
ion Cr   0.826574057843029   0.834917038126059   0.481248613138683 1
ion Cr   0.663844902420570   0.668242765592293   0.651357316014050 1
ion Cr   0.851093282553382   0.822914070816498   0.836888522488742 1
ion O   0.315083941399041   0.169967388942442   0.159538296391090 1

# Forces in Lattice coordinates:
force Cr  -0.012526623208068  -0.122499676105643   0.127900529687696 0
force Cr -11.076121582965481  -0.677565860497135   1.335702956356848 1
force Cr   0.289540314969043   0.224430165251866  -0.019774427225192 1
force Cr   0.151220901932873  -0.003699607504883   0.222728802545538 1
force Cr  -0.031990668539657  -0.315861302784637  -0.066335178805912 1
force Cr   0.101233834119431  -0.177142978994614  -0.362598428100914 1
force Cr   0.370215070566214  -0.407443590831296  -0.127944163023259 1
force Cr  -0.010010141228405  -0.044213864311452  -0.288662385267144 1
force Cr  -0.073305407568594   0.098786667650032   0.512885605546838 1
force Cr   0.138308545445277  -0.141366517336867  -0.346914288203109 1
force Cr   0.032091184174496   0.578523718300271  -0.382599489666415 1
force Cr   0.572951560645655   0.305091524115641   0.336073962558903 1
force Cr   0.209792482568936   0.288806566778030  -0.248937937062733 1
force Cr   0.046999860445641  -0.242034658887508  -0.323466902173175 1
force Cr   0.109972388847151  -0.003821105849611   0.418583215778291 1
force Cr   0.204498757723081   0.176793503548856  -0.021180849648223 1
force Cr  -0.446964217610241   0.207111618991894  -0.132850870392503 1
force Cr   0.118062849111398  -0.289839939644060   0.007226276440318 1
force Cr   0.067730488242607  -0.754376986939310   0.853057814243810 1
force Cr   3.455282548461669  -0.209847051580986  -0.070767570879541 1
force Cr  -0.275425326658073  -0.423709129805846   0.948882130010071 1
force Cr  -0.476942425284538   0.414526153418079  -0.114756397729603 1
force Cr  -0.058797372718192   0.220853071591222  -0.816366133386136 1
force Cr   0.705621677872448  -0.127668868971519  -0.224065070706414 1
force Cr   0.130454675311267   2.328701165515863  -1.689034936583214 1
force Cr   0.269993895869852   0.310622458869022  -0.344634252074675 1
force Cr  -0.305799293347856  -0.226155890317438   0.631904663185089 1
force Cr   0.395705667398795   0.107275383506797  -0.042836718752666 1
force Cr  -0.372518345108020  -0.324012130772077   0.179490583756217 1
force Cr  -0.023378218244306   0.608444865719158   0.233531228369319 1
force Cr  -0.161488773079342  -0.075435660728966   0.003062195465595 1
force Cr  -0.105182072790490   0.028121186727132  -0.371322447071543 1
force Cr  -0.103201845938553   0.106155881524201  -0.175346324860985 1
force Cr  -0.151645071410480   0.098524683554041  -0.347141184369072 1
force Cr   0.355266398782229   0.035641848618358   0.500492546437386 1
force Cr   0.594141979355590  -0.259435776185410  -0.208254763963289 1
force Cr  -0.006882136040014  -0.056757446655966  -0.312523383038668 1
force Cr  -0.559070137466075   0.135057609674370  -0.160795166358739 1
force Cr  -0.091939518977394  -0.406701655256271   0.361644632960526 1
force Cr   0.245322715255506   0.702975336263757  -0.160702937376090 1
force Cr  -0.103929594762197  -0.543897773352331   0.483856762581923 1
force Cr  -0.537325936086952   0.009256257234608  -0.063788415922187 1
force Cr   0.079891764018169  -0.081439929817247  -0.242127753835746 1
force Cr  -0.439626396600813   0.079349923308016   0.584077844574798 1
force Cr   0.079961695280759   0.170754928305453   0.429168569915126 1
force Cr  -0.630145400285486  -0.182985843556511   0.106798546839334 1
force Cr   0.490735913628718  -0.471037511660429  -0.247371113075213 1
force Cr  -0.853823599061306  -0.055617445346847  -0.219194586527705 1
force Cr   0.169603779211349  -0.284234041339741  -0.203470125473584 1
force Cr  -0.152157910764018  -0.035915611232820  -0.193145249904268 1
force Cr   0.241338427478242   0.238577674082151  -0.052246159614307 1
force Cr   0.067833676798627  -0.342237641347183   0.584325742669332 1
force Cr   0.157392584346100   0.032781125877388   0.520945365595471 1
force Cr  -0.690540927992455   0.203267371963532  -0.175497388927452 1
force O   7.816975957921514  -0.402164219720608  -0.568912266171091 1

# Energy components:
   Eewald =    -3606.2000223893851398
       EH =      999.1796355732507209
     Eloc =    -3118.4112704631725137
      Enl =      510.2771813165048229
      Exc =     -605.3515342894950209
 Exc_core =       40.2103608191613660
       KE =     1069.6733031721830685
-------------------------------------
     Etot =    -4710.6223462609532362
       TS =        0.4839714090193987
-------------------------------------
        F =    -4711.1063176699726682

IonicMinimize: Iter:   1  F: -4711.106317669972668  |grad|_K:  7.349e-02  alpha:  9.070e-02  linmin: -9.841e-01  t[s]:   5556.82

#--- Lowdin population analysis ---
# oxidation-state Cr +0.253 +0.240 +0.233 +0.281 +0.268 +0.245 +0.246 +0.258 +0.253 +0.275 +0.253 +0.283 +0.255 +0.270 +0.260 +0.274 +0.241 +0.264 +0.267 +0.269 +0.278 +0.273 +0.280 +0.249 +0.280 +0.253 +0.270 +0.251 +0.266 +0.266 +0.288 +0.255 +0.280 +0.278 +0.272 +0.269 +0.293 +0.257 +0.247 +0.265 +0.263 +0.263 +0.283 +0.254 +0.286 +0.272 +0.283 +0.269 +0.286 +0.268 +0.279 +0.278 +0.283 +0.285
# oxidation-state O -0.220


-------- Electronic minimization -----------
Will mix electronic density at each iteration.
	FillingsUpdate:  mu: +0.740470740  nElectrons: 762.000000
	FillingsUpdate:  mu: +0.740165787  nElectrons: 762.000000
SCF: Cycle:  0   F: -4698.139325442628433   dF: +1.246e+01   |Residual|: 1.376e+00   |deigs|: 1.564e-03  t[s]:   5715.62
	FillingsUpdate:  mu: +0.737494295  nElectrons: 762.000000
SCF: Cycle:  1   F: -4544.540181535668125   dF: +1.536e+02   |Residual|: 5.439e+00   |deigs|: 6.397e-02  t[s]:   5830.93
	FillingsUpdate:  mu: +0.745040942  nElectrons: 762.000000
SCF: Cycle:  2   F: -4706.691258492352972   dF: -1.622e+02   |Residual|: 1.185e+00   |deigs|: 5.865e-02  t[s]:   5946.26
	FillingsUpdate:  mu: +0.744061223  nElectrons: 762.000000
SCF: Cycle:  3   F: -4708.409306681233829   dF: -1.718e+00   |Residual|: 9.539e-01   |deigs|: 4.568e-03  t[s]:   6061.54
	FillingsUpdate:  mu: +0.740221009  nElectrons: 762.000000
SCF: Cycle:  4   F: -4710.659668683643758   dF: -2.250e+00   |Residual|: 3.915e-01   |deigs|: 6.020e-03  t[s]:   6176.93
	FillingsUpdate:  mu: +0.740258920  nElectrons: 762.000000
SCF: Cycle:  5   F: -4710.624632218557053   dF: +3.504e-02   |Residual|: 4.030e-01   |deigs|: 9.260e-04  t[s]:   6292.35
	FillingsUpdate:  mu: +0.740789754  nElectrons: 762.000000
SCF: Cycle:  6   F: -4711.042699605502094   dF: -4.181e-01   |Residual|: 2.225e-01   |deigs|: 1.112e-03  t[s]:   6407.18
	FillingsUpdate:  mu: +0.740834619  nElectrons: 762.000000
SCF: Cycle:  7   F: -4711.203799659092510   dF: -1.611e-01   |Residual|: 6.251e-02   |deigs|: 5.808e-04  t[s]:   6511.04
	FillingsUpdate:  mu: +0.740660329  nElectrons: 762.000000
SCF: Cycle:  8   F: -4711.158356191657731   dF: +4.544e-02   |Residual|: 1.186e-01   |deigs|: 4.476e-04  t[s]:   6611.87
	FillingsUpdate:  mu: +0.740577257  nElectrons: 762.000000
SCF: Cycle:  9   F: -4711.212405951314395   dF: -5.405e-02   |Residual|: 1.863e-02   |deigs|: 3.512e-04  t[s]:   6701.90
	FillingsUpdate:  mu: +0.740543343  nElectrons: 762.000000
SCF: Cycle: 10   F: -4711.211861127127122   dF: +5.448e-04   |Residual|: 2.196e-02   |deigs|: 8.006e-05  t[s]:   6772.43
	FillingsUpdate:  mu: +0.740515564  nElectrons: 762.000000
SCF: Cycle: 11   F: -4711.213343781631011   dF: -1.483e-03   |Residual|: 6.971e-03   |deigs|: 6.127e-05  t[s]:   6843.00
	FillingsUpdate:  mu: +0.740544419  nElectrons: 762.000000
SCF: Cycle: 12   F: -4711.212959568636506   dF: +3.842e-04   |Residual|: 1.151e-02   |deigs|: 4.846e-05  t[s]:   6913.59
	FillingsUpdate:  mu: +0.740542137  nElectrons: 762.000000
SCF: Cycle: 13   F: -4711.213475522772569   dF: -5.160e-04   |Residual|: 2.691e-03   |deigs|: 2.771e-05  t[s]:   6984.19
	FillingsUpdate:  mu: +0.740540167  nElectrons: 762.000000
SCF: Cycle: 14   F: -4711.213469300528232   dF: +6.222e-06   |Residual|: 2.959e-03   |deigs|: 1.059e-05  t[s]:   7054.77
	FillingsUpdate:  mu: +0.740539186  nElectrons: 762.000000
SCF: Cycle: 15   F: -4711.213488711353421   dF: -1.941e-05   |Residual|: 1.822e-03   |deigs|: 6.942e-06  t[s]:   7125.36
	FillingsUpdate:  mu: +0.740539743  nElectrons: 762.000000
SCF: Cycle: 16   F: -4711.213501029267718   dF: -1.232e-05   |Residual|: 3.226e-04   |deigs|: 4.379e-06  t[s]:   7195.95
	FillingsUpdate:  mu: +0.740539288  nElectrons: 762.000000
SCF: Cycle: 17   F: -4711.213499376842265   dF: +1.652e-06   |Residual|: 7.263e-04   |deigs|: 1.764e-06  t[s]:   7266.55
	FillingsUpdate:  mu: +0.740539229  nElectrons: 762.000000
SCF: Cycle: 18   F: -4711.213501246244050   dF: -1.869e-06   |Residual|: 1.893e-04   |deigs|: 1.323e-06  t[s]:   7337.15
	FillingsUpdate:  mu: +0.740539451  nElectrons: 762.000000
SCF: Cycle: 19   F: -4711.213500111085523   dF: +1.135e-06   |Residual|: 5.834e-04   |deigs|: 1.978e-06  t[s]:   7407.75
	FillingsUpdate:  mu: +0.740539549  nElectrons: 762.000000
SCF: Cycle: 20   F: -4711.213501328657912   dF: -1.218e-06   |Residual|: 9.783e-05   |deigs|: 1.655e-06  t[s]:   7478.38
	FillingsUpdate:  mu: +0.740539558  nElectrons: 762.000000
SCF: Cycle: 21   F: -4711.213501328405073   dF: +2.528e-10   |Residual|: 9.479e-05   |deigs|: 3.816e-07  t[s]:   7548.99
	FillingsUpdate:  mu: +0.740539567  nElectrons: 762.000000
SCF: Cycle: 22   F: -4711.213501358319263   dF: -2.991e-08   |Residual|: 3.173e-05   |deigs|: 3.270e-07  t[s]:   7619.62
	FillingsUpdate:  mu: +0.740539554  nElectrons: 762.000000
SCF: Cycle: 23   F: -4711.213501357235145   dF: +1.084e-09   |Residual|: 3.742e-05   |deigs|: 1.583e-07  t[s]:   7690.26
	FillingsUpdate:  mu: +0.740539505  nElectrons: 762.000000
SCF: Cycle: 24   F: -4711.213501354483924   dF: +2.751e-09   |Residual|: 4.358e-05   |deigs|: 1.966e-07  t[s]:   7760.96
	FillingsUpdate:  mu: +0.740539508  nElectrons: 762.000000
SCF: Cycle: 25   F: -4711.213501360316513   dF: -5.833e-09   |Residual|: 1.790e-05   |deigs|: 2.075e-07  t[s]:   7831.61
	FillingsUpdate:  mu: +0.740539516  nElectrons: 762.000000
SCF: Cycle: 26   F: -4711.213501361385170   dF: -1.069e-09   |Residual|: 9.119e-06   |deigs|: 8.451e-08  t[s]:   7887.04
SCF: Converged (|Delta E|<1.000000e-08 for 2 iters).

Setting wave functions to eigenvectors of Hamiltonian

# Ionic positions in lattice coordinates:
ion Cr   0.000000000000000   0.000000000000000   0.000000000000000 0
ion Cr   0.153001763354456   0.161372908379280   0.181636642887208 1
ion Cr  -0.007978578804602  -0.013053070450307   0.337897381012999 1
ion Cr   0.164263054093750   0.160845556531835   0.494885835693253 1
ion Cr   0.000963256041136  -0.001561448188223   0.668134093460890 1
ion Cr   0.153876048775019   0.169387521718985   0.840394764204336 1
ion Cr  -0.009405974152096   0.342223734876728   0.006863258865598 1
ion Cr   0.166868340441498   0.503189871952960   0.177399456471273 1
ion Cr   0.001976637317825   0.330202575314922   0.328136841559813 1
ion Cr   0.161058437558762   0.497088346216753   0.510223021824576 1
ion Cr  -0.005043257761865   0.309512254722837   0.676692075064494 1
ion Cr   0.154455280136344   0.485309476010694   0.826984552738826 1
ion Cr  -0.001160085342217   0.662570453003786   0.006625012675969 1
ion Cr   0.166913626335058   0.839382034115560   0.176790070478780 1
ion Cr  -0.003714155891423   0.663515606942570   0.321689092512447 1
ion Cr   0.157404198508856   0.824802269857889   0.501865808483736 1
ion Cr   0.007788322882316   0.657436917510716   0.667828007989382 1
ion Cr   0.160795287113794   0.835418326705701   0.835928207545036 1
ion Cr   0.327745743834921   0.011450524056299  -0.028219531910432 1
ion Cr   0.505065174490244   0.170649779759063   0.181772002266635 1
ion Cr   0.345592176490479  -0.005531851262457   0.321342832864603 1
ion Cr   0.514624251009694   0.152564336913093   0.507998727142539 1
ion Cr   0.331172835457688  -0.010337123737357   0.681595785951957 1
ion Cr   0.484377447040981   0.169953868546478   0.837243073207751 1
ion Cr   0.324113129617134   0.301788359600223   0.007544962879668 1
ion Cr   0.494259067335138   0.493705526288536   0.174615740450049 1
ion Cr   0.342177630111411   0.348807547281180   0.329509329581006 1
ion Cr   0.488572827072251   0.494352853624913   0.501831074239679 1
ion Cr   0.336083772085754   0.334169303456483   0.659015375224282 1
ion Cr   0.495573350031785   0.485696356345956   0.831027114651072 1
ion Cr   0.331985225847508   0.665143592826110   0.000663534713588 1
ion Cr   0.502919569770577   0.830091986980688   0.180975278095736 1
ion Cr   0.332041978964453   0.666561363515549   0.340689319333604 1
ion Cr   0.502456340845566   0.826902800191731   0.515362624221179 1
ion Cr   0.319596623814292   0.663370700927047   0.655192826005945 1
ion Cr   0.483089976699559   0.834633208159931   0.844771525146106 1
ion Cr   0.665222196253549   0.002724946423060   0.009042179116608 1
ion Cr   0.845848779541925   0.162734451166928   0.174145825160828 1
ion Cr   0.670455198720021   0.005494198286948   0.324774281819288 1
ion Cr   0.828540545962468   0.147484439281541   0.508526121694386 1
ion Cr   0.669801082181018   0.014527567505678   0.661173673932608 1
ion Cr   0.839014887249515   0.165230683824476   0.844276824195445 1
ion Cr   0.659411694491415   0.337406887907493   0.006902750246247 1
ion Cr   0.838536798161322   0.498580808754009   0.150968306077864 1
ion Cr   0.671691508463763   0.328835706058833   0.327531627765003 1
ion Cr   0.851808475159410   0.500470935289605   0.493802650587964 1
ion Cr   0.654441570642400   0.353090721693578   0.679606847455615 1
ion Cr   0.853602661597683   0.503086379894401   0.836549132095681 1
ion Cr   0.656944232007606   0.677394530822268   0.003407033886078 1
ion Cr   0.834115803316287   0.831408913245477   0.166999106710801 1
ion Cr   0.657456231187201   0.652993247140129   0.332670250673935 1
ion Cr   0.826627679782874   0.834648286349561   0.481708967214973 1
ion Cr   0.663970354185113   0.668267395449924   0.651766237967194 1
ion Cr   0.850549455205101   0.823072521740694   0.836748932537459 1
ion O   0.318659733189741   0.169525569138135   0.159381331458729 1

# Forces in Lattice coordinates:
force Cr  -0.020452824733369  -0.124558690687673   0.124872209574504 0
force Cr  -7.230938469817192  -0.404313403588340   0.752916205489551 1
force Cr   0.274598993734578   0.213731405513662  -0.014960909733341 1
force Cr   0.145517609730896  -0.008176781529147   0.238321656468351 1
force Cr  -0.037035981920383  -0.300780290749260  -0.063775219436045 1
force Cr   0.107170145152273  -0.172254392533125  -0.354603165744144 1
force Cr   0.352029662403352  -0.384921899198079  -0.134770943536336 1
force Cr  -0.015032530835851  -0.038371628047419  -0.283558929482272 1
force Cr  -0.072472364244181   0.095925294942516   0.500242160618597 1
force Cr   0.139594853256512  -0.132237301102970  -0.335604627629630 1
force Cr   0.031679791013802   0.566765849240003  -0.370491539657472 1
force Cr   0.542799356236254   0.304461609018901   0.326998973372573 1
force Cr   0.193960548249978   0.273394987557586  -0.244153725172308 1
force Cr   0.040283115285160  -0.256308630633828  -0.309013607109832 1
force Cr   0.105138756475629  -0.002706432553135   0.404586047792517 1
force Cr   0.203919797578866   0.169700266528408  -0.018405947398991 1
force Cr  -0.436203315941309   0.196453462990371  -0.126689969485288 1
force Cr   0.121494680652919  -0.276435007136659   0.004855364431355 1
force Cr   0.046690663358838  -0.655890049275984   0.883580602695694 1
force Cr   3.411896975812980  -0.188430027869044  -0.065522232789297 1
force Cr  -0.300697471114532  -0.335704075063770   0.844066497134337 1
force Cr  -0.457947090005438   0.397744228261893  -0.105448479588291 1
force Cr  -0.051776418678320   0.218374437602433  -0.780522704950370 1
force Cr   0.674213543697113  -0.128151949443561  -0.221977305983306 1
force Cr   0.048883392394909   2.044139274230403  -1.392835094163011 1
force Cr   0.259784816793740   0.302299409227155  -0.329566407394100 1
force Cr  -0.323585470164399  -0.284936148932228   0.535087568138467 1
force Cr   0.380432335786402   0.104911116033286  -0.039272035796679 1
force Cr  -0.355137783480270  -0.309027674217778   0.177095441517534 1
force Cr  -0.019714989743762   0.586389973707963   0.222310145921114 1
force Cr  -0.151957453467589  -0.074293772256697   0.004147317475792 1
force Cr  -0.103507704203160   0.022119110043155  -0.355023108466668 1
force Cr  -0.096273388416565   0.097326316522484  -0.171251435407568 1
force Cr  -0.149816796585177   0.097680858396844  -0.338559924289992 1
force Cr   0.344028015738761   0.031098186989323   0.485373210166054 1
force Cr   0.574364539257564  -0.243844238829823  -0.205872561004055 1
force Cr  -0.003776268014606  -0.060063184837097  -0.309950433943948 1
force Cr  -0.574291989893828   0.129292117884701  -0.160657191660707 1
force Cr  -0.081687457645250  -0.406694263669610   0.366208946321843 1
force Cr   0.232234700074595   0.678497027137249  -0.153362572731502 1
force Cr  -0.100789071940105  -0.524170509526218   0.464618392381015 1
force Cr  -0.522711961008339   0.011257693378393  -0.068693674980351 1
force Cr   0.089025588445468  -0.074707391999203  -0.239118508015988 1
force Cr  -0.423039830502246   0.075262156145803   0.558909058284947 1
force Cr   0.076790094940052   0.172763535212995   0.430625380619917 1
force Cr  -0.619964722973083  -0.170597469090664   0.114538530807685 1
force Cr   0.471305508207359  -0.466729799631540  -0.242949645149234 1
force Cr  -0.833265929146527  -0.055810301639934  -0.209773142741650 1
force Cr   0.168845866835632  -0.282435066853580  -0.200592686632026 1
force Cr  -0.146037007250428  -0.033438886983336  -0.180977651196484 1
force Cr   0.235649034877522   0.238897216188717  -0.048686092882468 1
force Cr   0.069979396542974  -0.330103422323514   0.575467523427577 1
force Cr   0.155993669182231   0.028872095248796   0.506687452255312 1
force Cr  -0.675413774076111   0.198736159114980  -0.174884406856143 1
force O   4.218009047825936  -0.499484019095579  -0.227764196403466 1

# Energy components:
   Eewald =    -3609.4569842001596953
       EH =      996.1621048584488562
     Eloc =    -3111.8933049255488186
      Enl =      510.1649476543269657
      Exc =     -605.2536778469116143
 Exc_core =       40.2102832438149278
       KE =     1069.3356197293010155
-------------------------------------
     Etot =    -4710.7310114867286757
       TS =        0.4824898746566890
-------------------------------------
        F =    -4711.2135013613851697

IonicMinimize: Iter:   2  F: -4711.213501361385170  |grad|_K:  5.025e-02  alpha:  5.136e-01  linmin: -9.996e-01  t[s]:   7914.30

#--- Lowdin population analysis ---
# oxidation-state Cr +0.252 +0.274 +0.234 +0.281 +0.269 +0.247 +0.247 +0.259 +0.252 +0.275 +0.254 +0.283 +0.256 +0.270 +0.260 +0.274 +0.242 +0.265 +0.277 +0.282 +0.289 +0.273 +0.281 +0.251 +0.294 +0.254 +0.280 +0.251 +0.268 +0.266 +0.289 +0.255 +0.280 +0.278 +0.272 +0.269 +0.292 +0.260 +0.247 +0.266 +0.264 +0.264 +0.282 +0.255 +0.284 +0.272 +0.284 +0.270 +0.285 +0.268 +0.280 +0.277 +0.283 +0.285
# oxidation-state O -0.324


-------- Electronic minimization -----------
Will mix electronic density at each iteration.
	FillingsUpdate:  mu: +0.740539516  nElectrons: 762.000000
	FillingsUpdate:  mu: +0.739611023  nElectrons: 762.000000
SCF: Cycle:  0   F: -4689.597842118424524   dF: +2.082e+01   |Residual|: 1.738e+00   |deigs|: 2.106e-03  t[s]:   8073.11
	FillingsUpdate:  mu: +0.736812232  nElectrons: 762.000000
SCF: Cycle:  1   F: -4472.005768013698798   dF: +2.176e+02   |Residual|: 6.473e+00   |deigs|: 8.183e-02  t[s]:   8188.23
	FillingsUpdate:  mu: +0.747637313  nElectrons: 762.000000
SCF: Cycle:  2   F: -4699.707686383778309   dF: -2.277e+02   |Residual|: 1.861e+00   |deigs|: 7.400e-02  t[s]:   8303.46
	FillingsUpdate:  mu: +0.746913820  nElectrons: 762.000000
SCF: Cycle:  3   F: -4708.908114326741270   dF: -9.200e+00   |Residual|: 8.960e-01   |deigs|: 9.633e-03  t[s]:   8418.78
	FillingsUpdate:  mu: +0.740215128  nElectrons: 762.000000
SCF: Cycle:  4   F: -4710.627959449232549   dF: -1.720e+00   |Residual|: 4.106e-01   |deigs|: 8.809e-03  t[s]:   8533.96
	FillingsUpdate:  mu: +0.740283736  nElectrons: 762.000000
SCF: Cycle:  5   F: -4710.106123786035823   dF: +5.218e-01   |Residual|: 5.416e-01   |deigs|: 1.225e-03  t[s]:   8649.26
	FillingsUpdate:  mu: +0.741006318  nElectrons: 762.000000
SCF: Cycle:  6   F: -4711.230177139126681   dF: -1.124e+00   |Residual|: 1.462e-01   |deigs|: 2.457e-03  t[s]:   8764.47
	FillingsUpdate:  mu: +0.741006348  nElectrons: 762.000000
SCF: Cycle:  7   F: -4711.262310415091633   dF: -3.213e-02   |Residual|: 1.109e-01   |deigs|: 3.461e-04  t[s]:   8868.40
	FillingsUpdate:  mu: +0.740775255  nElectrons: 762.000000
SCF: Cycle:  8   F: -4711.256024111883562   dF: +6.286e-03   |Residual|: 1.122e-01   |deigs|: 3.361e-04  t[s]:   8971.69
	FillingsUpdate:  mu: +0.740724844  nElectrons: 762.000000
SCF: Cycle:  9   F: -4711.298256536457302   dF: -4.223e-02   |Residual|: 2.236e-02   |deigs|: 2.496e-04  t[s]:   9061.11
	FillingsUpdate:  mu: +0.740663697  nElectrons: 762.000000
SCF: Cycle: 10   F: -4711.294437173483857   dF: +3.819e-03   |Residual|: 3.992e-02   |deigs|: 9.971e-05  t[s]:   9131.71
	FillingsUpdate:  mu: +0.740621503  nElectrons: 762.000000
SCF: Cycle: 11   F: -4711.299391244090657   dF: -4.954e-03   |Residual|: 6.360e-03   |deigs|: 9.823e-05  t[s]:   9202.31
	FillingsUpdate:  mu: +0.740637104  nElectrons: 762.000000
SCF: Cycle: 12   F: -4711.299430632023359   dF: -3.939e-05   |Residual|: 5.205e-03   |deigs|: 2.763e-05  t[s]:   9272.98
	FillingsUpdate:  mu: +0.740640668  nElectrons: 762.000000
SCF: Cycle: 13   F: -4711.299519914325174   dF: -8.928e-05   |Residual|: 2.430e-03   |deigs|: 1.407e-05  t[s]:   9343.65
	FillingsUpdate:  mu: +0.740640871  nElectrons: 762.000000
SCF: Cycle: 14   F: -4711.299526654607689   dF: -6.740e-06   |Residual|: 2.005e-03   |deigs|: 1.003e-05  t[s]:   9414.20
	FillingsUpdate:  mu: +0.740640195  nElectrons: 762.000000
SCF: Cycle: 15   F: -4711.299537850756678   dF: -1.120e-05   |Residual|: 8.509e-04   |deigs|: 3.963e-06  t[s]:   9484.81
	FillingsUpdate:  mu: +0.740639839  nElectrons: 762.000000
SCF: Cycle: 16   F: -4711.299539068046215   dF: -1.217e-06   |Residual|: 6.412e-04   |deigs|: 3.666e-06  t[s]:   9555.45
	FillingsUpdate:  mu: +0.740639119  nElectrons: 762.000000
SCF: Cycle: 17   F: -4711.299540331771823   dF: -1.264e-06   |Residual|: 3.351e-04   |deigs|: 2.351e-06  t[s]:   9626.08
	FillingsUpdate:  mu: +0.740639169  nElectrons: 762.000000
SCF: Cycle: 18   F: -4711.299540498292117   dF: -1.665e-07   |Residual|: 2.648e-04   |deigs|: 1.074e-06  t[s]:   9696.63
	FillingsUpdate:  mu: +0.740639178  nElectrons: 762.000000
SCF: Cycle: 19   F: -4711.299540476038601   dF: +2.225e-08   |Residual|: 2.903e-04   |deigs|: 7.082e-07  t[s]:   9767.33
	FillingsUpdate:  mu: +0.740639587  nElectrons: 762.000000
SCF: Cycle: 20   F: -4711.299540731890374   dF: -2.559e-07   |Residual|: 8.376e-05   |deigs|: 6.425e-07  t[s]:   9837.91
	FillingsUpdate:  mu: +0.740639527  nElectrons: 762.000000
SCF: Cycle: 21   F: -4711.299540738791620   dF: -6.901e-09   |Residual|: 7.499e-05   |deigs|: 3.269e-07  t[s]:   9908.63
	FillingsUpdate:  mu: +0.740639452  nElectrons: 762.000000
SCF: Cycle: 22   F: -4711.299540748282197   dF: -9.491e-09   |Residual|: 5.820e-05   |deigs|: 2.708e-07  t[s]:   9979.24
SCF: Converged (|Delta E|<1.000000e-08 for 2 iters).

Setting wave functions to eigenvectors of Hamiltonian

# Ionic positions in lattice coordinates:
ion Cr   0.000000000000000   0.000000000000000   0.000000000000000 0
ion Cr   0.146773579645705   0.161065978016847   0.182132199809366 1
ion Cr  -0.007625441021061  -0.012777597236188   0.337879991734210 1
ion Cr   0.164450945054334   0.160831716086667   0.495209837472415 1
ion Cr   0.000911817139477  -0.001948262117137   0.668051807841407 1
ion Cr   0.154020010611050   0.169165614734155   0.839932712575296 1
ion Cr  -0.008951390715211   0.341730044434672   0.006682091765434 1
ion Cr   0.166845318539794   0.503144842703844   0.177029539126664 1
ion Cr   0.001885085964527   0.330324208008949   0.328785308996190 1
ion Cr   0.161242556438026   0.496920029924376   0.509789006059179 1
ion Cr  -0.005001887627591   0.310249812052524   0.676212157031866 1
ion Cr   0.155150030895980   0.485709450758172   0.827408185859417 1
ion Cr  -0.000914213352390   0.662921096431430   0.006307050037167 1
ion Cr   0.166962484938224   0.839034874869949   0.176393435238398 1
ion Cr  -0.003578750519681   0.663512446582292   0.322212725017778 1
ion Cr   0.157671742026088   0.825020918596142   0.501843213707325 1
ion Cr   0.007221300200980   0.657688732121772   0.667665176172021 1
ion Cr   0.160956771914520   0.835062608862900   0.835933168699630 1
ion Cr   0.327787765270425   0.010656962394121  -0.027026347147577 1
ion Cr   0.509626823349201   0.170412270778314   0.181705108724809 1
ion Cr   0.345172962190545  -0.005915418405691   0.322384084144117 1
ion Cr   0.514033716649894   0.153077160773959   0.507865150363554 1
ion Cr   0.331108865358078  -0.010051715374907   0.680590409021240 1
ion Cr   0.485245493126300   0.169785799060988   0.836950704355542 1
ion Cr   0.324106931257140   0.304301002867432   0.005896919972793 1
ion Cr   0.494594995111304   0.494097723586151   0.174191893767840 1
ion Cr   0.341732956208706   0.348388533412608   0.330145602987713 1
ion Cr   0.489063819770712   0.494489584196417   0.501781792067338 1
ion Cr   0.335627164762720   0.333772093409972   0.659245883830770 1
ion Cr   0.495549746068538   0.486454264922653   0.831312310264963 1
ion Cr   0.331790769308639   0.665046438973968   0.000669609858379 1
ion Cr   0.502784524442322   0.830117200081513   0.180519102746309 1
ion Cr   0.331919515898110   0.666684152741172   0.340466944049822 1
ion Cr   0.502260447987622   0.827030524993095   0.514922771168372 1
ion Cr   0.320042178237542   0.663408903063930   0.655821664228452 1
ion Cr   0.483833092435437   0.834321588076545   0.844502345617619 1
ion Cr   0.665219027456307   0.002644327756173   0.008636766733783 1
ion Cr   0.845082644578500   0.162900496789067   0.173934753291349 1
ion Cr   0.670355125279623   0.004959923745059   0.325257837489814 1
ion Cr   0.828837555766079   0.148361270711647   0.508328838089430 1
ion Cr   0.669670680483145   0.013850363174341   0.661772898500080 1
ion Cr   0.838336217736049   0.165246804581371   0.844183783468625 1
ion Cr   0.659533710765008   0.337312585885116   0.006590282032653 1
ion Cr   0.837990009389201   0.498677495941898   0.151687963816293 1
ion Cr   0.671790598196526   0.329064307471429   0.328098502924823 1
ion Cr   0.850999527223316   0.500255067889545   0.493958344722368 1
ion Cr   0.655049595238752   0.352480610274890   0.679290530775572 1
ion Cr   0.852520074036073   0.503013416380464   0.836278661328180 1
ion Cr   0.657165616250428   0.677024658825747   0.003145166531776 1
ion Cr   0.833927028634686   0.831366332499330   0.166768439485937 1
ion Cr   0.657762336046450   0.653307230581478   0.332608340354686 1
ion Cr   0.826720488716709   0.834221350815317   0.482459596409194 1
ion Cr   0.664175170657247   0.668302789976385   0.652423381816359 1
ion Cr   0.849670666921856   0.823330053504969   0.836519079588128 1
ion O   0.321005640593974   0.168750361609600   0.159413354970196 1

# Forces in Lattice coordinates:
force Cr  -0.038977802887664  -0.132221779081905   0.111436381971163 0
force Cr  -4.738353101339489  -0.227352549787468   0.388449742848619 1
force Cr   0.247843523333405   0.193184500058278  -0.005605558335072 1
force Cr   0.135707021244900  -0.011024603908791   0.251663366725374 1
force Cr  -0.044333293158197  -0.275935377232463  -0.058694718829850 1
force Cr   0.114151583520425  -0.169630797649427  -0.341106055564400 1
force Cr   0.316008792824488  -0.348352656621386  -0.142671661571119 1
force Cr  -0.021091035200754  -0.034731806177251  -0.272625938230015 1
force Cr  -0.081004558332027   0.100582610632127   0.483182660198818 1
force Cr   0.141114258694399  -0.118281839649846  -0.318119617307980 1
force Cr   0.030800828016571   0.548154538006123  -0.350548492943911 1
force Cr   0.500271098267487   0.299817388850259   0.313515892086084 1
force Cr   0.168982100457844   0.249189666934777  -0.235966745350243 1
force Cr   0.029990707700808  -0.265841370864553  -0.291146542877766 1
force Cr   0.097060270950491  -0.000613214986118   0.381906863152809 1
force Cr   0.202304686374411   0.158973738138024  -0.014063062674906 1
force Cr  -0.417341829423913   0.180859062363897  -0.116710344294821 1
force Cr   0.125757198546995  -0.255138997383423   0.000797057014672 1
force Cr   0.039900418442492  -0.553876404411220   0.871102853326745 1
force Cr   2.949132638860254  -0.156224180944936  -0.114788754588286 1
force Cr  -0.303667401090926  -0.235827251886417   0.721555182052601 1
force Cr  -0.427902648860902   0.371489483037457  -0.091170467824156 1
force Cr  -0.041857978279305   0.213241036994228  -0.720372091730569 1
force Cr   0.623571603671870  -0.128867758928490  -0.210865548288948 1
force Cr   0.015895162932134   1.691856819407672  -1.064336625453151 1
force Cr   0.242899179251536   0.290010826879647  -0.308447895289753 1
force Cr  -0.317044862737136  -0.329960529139175   0.431824000208849 1
force Cr   0.356709327878456   0.100347418603596  -0.034254782283505 1
force Cr  -0.326803259964380  -0.284792142595619   0.175119563841391 1
force Cr  -0.013895230365869   0.550362942342719   0.204900021501831 1
force Cr  -0.135839731569861  -0.070680812299548   0.004976899766896 1
force Cr  -0.098967642764882   0.015016857369165  -0.333316082504525 1
force Cr  -0.085391653126991   0.082875214908171  -0.164903188761221 1
force Cr  -0.145912274217644   0.095550239424315  -0.323580917738074 1
force Cr   0.325754468161434   0.024146720233543   0.461940300295927 1
force Cr   0.541018461425103  -0.219033060131100  -0.200615566888954 1
force Cr   0.001967365059669  -0.065795013606429  -0.305736641910849 1
force Cr  -0.576955909063956   0.121607939895599  -0.158938784675215 1
force Cr  -0.070477943252250  -0.403640861021199   0.370969458989985 1
force Cr   0.214428232639086   0.640265799887203  -0.141573733933294 1
force Cr  -0.096621465035684  -0.493083539499359   0.435152313910565 1
force Cr  -0.495736510875861   0.013287599193439  -0.076268555701783 1
force Cr   0.101339741168476  -0.063220384756946  -0.233795760539854 1
force Cr  -0.394086064583173   0.069542932453830   0.518945527848777 1
force Cr   0.070902130736780   0.172092948023861   0.427063096467049 1
force Cr  -0.599316403533085  -0.155371096179679   0.122926650670426 1
force Cr   0.440955528298989  -0.460021873533778  -0.236397605829516 1
force Cr  -0.799092410845719  -0.057658734601372  -0.194178333374785 1
force Cr   0.166946490864564  -0.278360505386369  -0.194553305675734 1
force Cr  -0.134896050875666  -0.029813129539126  -0.163014699590186 1
force Cr   0.226639340168060   0.237298514307727  -0.043270570632362 1
force Cr   0.073642892535095  -0.308725874456947   0.558864547471511 1
force Cr   0.149256494198042   0.023819469179968   0.483706319655554 1
force Cr  -0.646909898347645   0.194588631033337  -0.170833264790123 1
force O   2.343836715761257  -0.479479732289566  -0.063260033261406 1

# Energy components:
   Eewald =    -3613.2689237547747325
       EH =      992.5411759552872581
     Eloc =    -3104.2020710387728286
      Enl =      510.0668629832002807
      Exc =     -605.1523707454859959
 Exc_core =       40.2102439144667514
       KE =     1068.9857471584527957
-------------------------------------
     Etot =    -4710.8193355276271177
       TS =        0.4802052206550245
-------------------------------------
        F =    -4711.2995407482821975

IonicMinimize: Iter:   3  F: -4711.299540748282197  |grad|_K:  3.645e-02  alpha:  3.914e-01  linmin: -9.938e-01  t[s]:  10006.51

#--- Lowdin population analysis ---
# oxidation-state Cr +0.252 +0.296 +0.234 +0.281 +0.270 +0.248 +0.248 +0.260 +0.252 +0.275 +0.255 +0.283 +0.257 +0.270 +0.261 +0.273 +0.244 +0.266 +0.287 +0.295 +0.298 +0.274 +0.283 +0.253 +0.308 +0.255 +0.289 +0.253 +0.270 +0.267 +0.289 +0.256 +0.281 +0.277 +0.273 +0.270 +0.289 +0.264 +0.248 +0.267 +0.266 +0.265 +0.280 +0.257 +0.282 +0.272 +0.284 +0.271 +0.285 +0.269 +0.280 +0.277 +0.283 +0.284
# oxidation-state O -0.411


-------- Electronic minimization -----------
Will mix electronic density at each iteration.
	FillingsUpdate:  mu: +0.740639452  nElectrons: 762.000000
	FillingsUpdate:  mu: +0.738730411  nElectrons: 762.000000
SCF: Cycle:  0   F: -4674.522031130284631   dF: +3.548e+01   |Residual|: 2.237e+00   |deigs|: 3.009e-03  t[s]:  10165.40
	FillingsUpdate:  mu: +0.730735824  nElectrons: 762.000000
SCF: Cycle:  1   F: -4378.045551801994407   dF: +2.965e+02   |Residual|: 7.614e+00   |deigs|: 1.063e-01  t[s]:  10280.70
	FillingsUpdate:  mu: +0.750693010  nElectrons: 762.000000
SCF: Cycle:  2   F: -4683.416592102203140   dF: -3.054e+02   |Residual|: 2.748e+00   |deigs|: 9.392e-02  t[s]:  10396.05
	FillingsUpdate:  mu: +0.751755967  nElectrons: 762.000000
SCF: Cycle:  3   F: -4708.481855300895404   dF: -2.507e+01   |Residual|: 9.727e-01   |deigs|: 1.965e-02  t[s]:  10511.32
	FillingsUpdate:  mu: +0.740673041  nElectrons: 762.000000
SCF: Cycle:  4   F: -4707.701336083819115   dF: +7.805e-01   |Residual|: 9.538e-01   |deigs|: 1.289e-02  t[s]:  10626.65
	FillingsUpdate:  mu: +0.740308569  nElectrons: 762.000000
SCF: Cycle:  5   F: -4710.012407332981638   dF: -2.311e+00   |Residual|: 6.093e-01   |deigs|: 5.512e-03  t[s]:  10742.03
	FillingsUpdate:  mu: +0.741388820  nElectrons: 762.000000
SCF: Cycle:  6   F: -4711.133341471831955   dF: -1.121e+00   |Residual|: 2.578e-01   |deigs|: 3.498e-03  t[s]:  10857.15
	FillingsUpdate:  mu: +0.741399651  nElectrons: 762.000000
SCF: Cycle:  7   F: -4711.329099410614617   dF: -1.958e-01   |Residual|: 1.363e-01   |deigs|: 7.732e-04  t[s]:  10972.25
	FillingsUpdate:  mu: +0.740916459  nElectrons: 762.000000
SCF: Cycle:  8   F: -4711.315212457971938   dF: +1.389e-02   |Residual|: 1.342e-01   |deigs|: 6.385e-04  t[s]:  11076.24
	FillingsUpdate:  mu: +0.740871463  nElectrons: 762.000000
SCF: Cycle:  9   F: -4711.368357118889435   dF: -5.314e-02   |Residual|: 5.557e-02   |deigs|: 3.087e-04  t[s]:  11173.48
	FillingsUpdate:  mu: +0.740861607  nElectrons: 762.000000
SCF: Cycle: 10   F: -4711.356441271171207   dF: +1.192e-02   |Residual|: 7.821e-02   |deigs|: 1.777e-04  t[s]:  11277.30
	FillingsUpdate:  mu: +0.740787906  nElectrons: 762.000000
SCF: Cycle: 11   F: -4711.376058734469552   dF: -1.962e-02   |Residual|: 1.681e-02   |deigs|: 1.798e-04  t[s]:  11347.90
	FillingsUpdate:  mu: +0.740730873  nElectrons: 762.000000
SCF: Cycle: 12   F: -4711.374796127837726   dF: +1.263e-03   |Residual|: 2.367e-02   |deigs|: 9.570e-05  t[s]:  11418.53
	FillingsUpdate:  mu: +0.740749310  nElectrons: 762.000000
SCF: Cycle: 13   F: -4711.376778972705324   dF: -1.983e-03   |Residual|: 7.930e-03   |deigs|: 5.282e-05  t[s]:  11489.12
	FillingsUpdate:  mu: +0.740754532  nElectrons: 762.000000
SCF: Cycle: 14   F: -4711.376969494549485   dF: -1.905e-04   |Residual|: 4.070e-03   |deigs|: 2.848e-05  t[s]:  11559.68
	FillingsUpdate:  mu: +0.740755671  nElectrons: 762.000000
SCF: Cycle: 15   F: -4711.376961239053344   dF: +8.255e-06   |Residual|: 4.160e-03   |deigs|: 1.036e-05  t[s]:  11630.25
	FillingsUpdate:  mu: +0.740753223  nElectrons: 762.000000
SCF: Cycle: 16   F: -4711.377022294622293   dF: -6.106e-05   |Residual|: 1.141e-03   |deigs|: 1.116e-05  t[s]:  11700.84
	FillingsUpdate:  mu: +0.740753053  nElectrons: 762.000000
SCF: Cycle: 17   F: -4711.377002846363212   dF: +1.945e-05   |Residual|: 2.325e-03   |deigs|: 6.228e-06  t[s]:  11771.61
	FillingsUpdate:  mu: +0.740752158  nElectrons: 762.000000
SCF: Cycle: 18   F: -4711.377021674170464   dF: -1.883e-05   |Residual|: 1.310e-03   |deigs|: 5.824e-06  t[s]:  11842.19
	FillingsUpdate:  mu: +0.740751664  nElectrons: 762.000000
SCF: Cycle: 19   F: -4711.377027358668784   dF: -5.684e-06   |Residual|: 5.696e-04   |deigs|: 3.100e-06  t[s]:  11912.85
	FillingsUpdate:  mu: +0.740752030  nElectrons: 762.000000
SCF: Cycle: 20   F: -4711.377028083979894   dF: -7.253e-07   |Residual|: 2.937e-04   |deigs|: 1.149e-06  t[s]:  11983.46
	FillingsUpdate:  mu: +0.740752098  nElectrons: 762.000000
SCF: Cycle: 21   F: -4711.377027988837654   dF: +9.514e-08   |Residual|: 3.845e-04   |deigs|: 1.256e-06  t[s]:  12054.05
	FillingsUpdate:  mu: +0.740752160  nElectrons: 762.000000
SCF: Cycle: 22   F: -4711.377028388838880   dF: -4.000e-07   |Residual|: 1.292e-04   |deigs|: 7.080e-07  t[s]:  12124.60
	FillingsUpdate:  mu: +0.740752105  nElectrons: 762.000000
SCF: Cycle: 23   F: -4711.377028408153819   dF: -1.931e-08   |Residual|: 9.641e-05   |deigs|: 4.580e-07  t[s]:  12195.25
	FillingsUpdate:  mu: +0.740752130  nElectrons: 762.000000
SCF: Cycle: 24   F: -4711.377028437618719   dF: -2.946e-08   |Residual|: 4.350e-05   |deigs|: 2.939e-07  t[s]:  12265.85
	FillingsUpdate:  mu: +0.740752120  nElectrons: 762.000000
SCF: Cycle: 25   F: -4711.377028438677371   dF: -1.059e-09   |Residual|: 3.733e-05   |deigs|: 2.603e-07  t[s]:  12336.45
	FillingsUpdate:  mu: +0.740752117  nElectrons: 762.000000
SCF: Cycle: 26   F: -4711.377028441888797   dF: -3.211e-09   |Residual|: 2.630e-05   |deigs|: 2.168e-07  t[s]:  12407.10
SCF: Converged (|Delta E|<1.000000e-08 for 2 iters).

Setting wave functions to eigenvectors of Hamiltonian

# Ionic positions in lattice coordinates:
ion Cr   0.000000000000000   0.000000000000000   0.000000000000000 0
ion Cr   0.140526476174632   0.160856622501612   0.182376993008586 1
ion Cr  -0.007118306323821  -0.012381687806148   0.337878639663665 1
ion Cr   0.164734127592059   0.160803349657196   0.495775660914938 1
ion Cr   0.000806554728860  -0.002518142333687   0.667930225056948 1
ion Cr   0.154276888987461   0.168801646404333   0.839207330286841 1
ion Cr  -0.008306018983266   0.341016772898900   0.006361878029453 1
ion Cr   0.166791667396122   0.503075512001349   0.176449669155546 1
ion Cr   0.001701646948870   0.330545779169410   0.329813648574631 1
ion Cr   0.161551153300779   0.496680022690650   0.509119050309709 1
ion Cr  -0.004935978510974   0.311418429224076   0.675474297102677 1
ion Cr   0.156184421560849   0.486356179189894   0.828072768167767 1
ion Cr  -0.000577179551591   0.663433413867897   0.005804063772021 1
ion Cr   0.167015067471690   0.838442435142095   0.175783625692918 1
ion Cr  -0.003377500811908   0.663513500693843   0.323015377105872 1
ion Cr   0.158109552526460   0.825353245096270   0.501817914994171 1
ion Cr   0.006336784009465   0.658062609439967   0.667423604810142 1
ion Cr   0.161235403592621   0.834533817694354   0.835930024602006 1
ion Cr   0.327858850820414   0.009590696548222  -0.025132013175134 1
ion Cr   0.515584614891425   0.170111256736937   0.181412265615534 1
ion Cr   0.344499253893166  -0.006297370961750   0.323793307166281 1
[...]
ion Cr   0.167491260701443   0.833358698893108   0.833624048708107 1
ion Cr   0.333981861352735  -0.000098125067162   0.000174977593906 1
ion Cr   0.542954296700994   0.166626385650544   0.167047824028958 1
ion Cr   0.333515424211892  -0.000173948433472   0.334046096774816 1
ion Cr   0.502091801915027   0.166681560841044   0.502466422605591 1
ion Cr   0.333492778771276   0.000306222480364   0.667017436488653 1
ion Cr   0.502123043191647   0.166731104798461   0.831806514624062 1
ion Cr   0.333492164216625   0.333605707015832   0.000114936406201 1
ion Cr   0.502026905284172   0.501991298385116   0.166903064428813 1
ion Cr   0.333574450638942   0.333748342444363   0.334076029829586 1
ion Cr   0.499424870062465   0.500334002687330   0.500551787253369 1
ion Cr   0.333477945187209   0.333173044507063   0.667033386135435 1
ion Cr   0.499458877164255   0.500354364731337   0.833307022624399 1
ion Cr   0.333470611140968   0.666741835530422   0.000595556390339 1
ion Cr   0.502092942024714   0.831343957839019   0.166988096256551 1
ion Cr   0.333449001554096   0.666756243040422   0.333451935895663 1
ion Cr   0.499467990726773   0.833034832859680   0.500684881143094 1
ion Cr   0.333442865885429   0.666733834730990   0.667088386924335 1
ion Cr   0.499551632700768   0.833139539123843   0.833428362844252 1
ion Cr   0.670024333317702  -0.003472587597552  -0.002990873933160 1
ion Cr   0.833462313639491   0.167057533419316   0.167463715375973 1
ion Cr   0.669375967462477  -0.003618910273688   0.337422946154659 1
ion Cr   0.833508140375692   0.166781395894790   0.501423230108284 1
ion Cr   0.666800240355885  -0.000432929493392   0.667150444655507 1
ion Cr   0.833601987753783   0.166903406396811   0.833201626100097 1
ion Cr   0.669369872751779   0.336970485891451  -0.003104438088205 1
ion Cr   0.833433326992622   0.501081471350478   0.167068090269563 1
ion Cr   0.669329363347784   0.336944565692914   0.337347978697014 1
ion Cr   0.833337397222472   0.501425852719823   0.501633830599453 1
ion Cr   0.666763404816715   0.333851612186205   0.667008179990146 1
ion Cr   0.833380602038005   0.501520688243997   0.832438608518630 1
ion Cr   0.666796178230804   0.666767440988797  -0.000162181279040 1
ion Cr   0.833704407138565   0.832868672119563   0.167102576295661 1
ion Cr   0.666704115367175   0.666743468569353   0.334126579915531 1
ion Cr   0.833464149728702   0.832187066552743   0.501739554369600 1
ion Cr   0.666974602066608   0.666804028867842   0.667066524225893 1
ion Cr   0.833799123049452   0.832613879850186   0.832828650049245 1
ion O   0.333871988692993   0.166562307079748   0.167452272852632 1

# Forces in Lattice coordinates:
force Cr  -0.091950552959843  -0.120083450462718  -0.110777499509558 0
force Cr   0.001441645662128   0.000206761086448   0.001990371319199 1
force Cr   0.000222303777679  -0.002134867459267  -0.000287686225829 1
force Cr  -0.001455852639107  -0.000025963405808   0.000118282522464 1
force Cr   0.000283118439724   0.004780068965406   0.000056136175716 1
force Cr   0.002815992603941   0.001317103531672   0.001659049109839 1
force Cr   0.001812569178873  -0.000986601320410  -0.001547813685919 1
force Cr  -0.000856344225640  -0.000574677574842  -0.001508842435436 1
force Cr  -0.001754555846038   0.000224274425865   0.000659263698785 1
force Cr   0.000174367684053   0.000731950201974  -0.001128924210890 1
force Cr  -0.000794295822651   0.000753723709489   0.000539138022435 1
force Cr  -0.000012104142710   0.000394500764124  -0.002995665365654 1
force Cr  -0.000851565372007  -0.001201036885517  -0.001141627026009 1
force Cr  -0.000753137361825  -0.001645150191288   0.000262584210453 1
force Cr  -0.000814294046331  -0.001307517065335  -0.001982784560454 1
force Cr  -0.000849686468071   0.000283299281734  -0.000950082535472 1
force Cr   0.001684841898575   0.002700226053499  -0.000638018644232 1
force Cr  -0.000639066195269   0.002008244637239   0.000024177389424 1
force Cr  -0.001277219104195   0.000230949897107  -0.001263084126166 1
force Cr   0.006943010645066   0.001834742540291  -0.003000631181195 1
force Cr   0.000175234938936  -0.000748656869494  -0.002219664276617 1
force Cr  -0.000538451660390  -0.000647819749947  -0.002627222144419 1
force Cr  -0.000525390542984  -0.000592931417559   0.001347818149825 1
force Cr  -0.000654009397442  -0.000954798130752  -0.002508210775656 1
force Cr   0.000157749574159   0.001134785812829  -0.000134352009268 1
force Cr  -0.000291191723517   0.001611898857447  -0.000546071581882 1
force Cr  -0.000355738602528   0.001044933133689  -0.001639322707403 1
force Cr  -0.001145163844995   0.000268508617840   0.000276425324318 1
force Cr  -0.000336351626281   0.000349579821505  -0.002149093967505 1
force Cr  -0.001103047182723   0.000334478330858  -0.001303202086545 1
force Cr  -0.000126011697707   0.001988315513755  -0.002914158810184 1
force Cr   0.001109667384381   0.002036892311174  -0.001340175213168 1
force Cr   0.000326835024894  -0.000563271888415  -0.002434385884446 1
force Cr  -0.000755156604759  -0.000139391105302  -0.001396150505637 1
force Cr  -0.001752514539736   0.000977315137775  -0.003943936064446 1
force Cr  -0.001015361527066  -0.000503688263688  -0.002523801187611 1
force Cr  -0.000043953346788   0.002244461844890  -0.001662638876302 1
force Cr  -0.000476174407160   0.001932356165170  -0.001598412849489 1
force Cr   0.000270847752287   0.003337536535734   0.000722820373728 1
force Cr  -0.002276606332478  -0.001172360958764  -0.001525975687031 1
force Cr  -0.000156916108114  -0.000419686096635  -0.000407326826872 1
force Cr   0.002063127303972  -0.000331808265180  -0.001986319610371 1
force Cr  -0.000489403923503   0.002374495515755  -0.001941746387699 1
force Cr  -0.000092929159044   0.001122043740702  -0.003399278120781 1
force Cr  -0.001448097425449   0.001942057277641   0.000210669780435 1
force Cr   0.001256936390480   0.000651088293530   0.000707916609029 1
force Cr  -0.002461468298093   0.001741945019089   0.001006471935099 1
force Cr   0.002330986979188  -0.000285543174753  -0.000895081497998 1
force Cr  -0.000694945371460   0.002784893163267  -0.002222055573089 1
force Cr  -0.000665127386651   0.001405200291420   0.000210564010242 1
force Cr  -0.000153663635377   0.000050711773553  -0.001122906442190 1
force Cr  -0.000390519958053  -0.000212109044512   0.000412711337742 1
force Cr  -0.000274328129894  -0.000269475946293  -0.001992998641592 1
force Cr   0.002294223325045  -0.001093562121425  -0.000555415298523 1
force O  -0.005131479780182   0.002682395397131  -0.007285155292155 1

# Energy components:
   Eewald =    -3636.0593834752207840
       EH =      970.1505525998311441
     Eloc =    -3057.5477238945804856
      Enl =      509.5844012445289195
      Exc =     -604.5992811072155746
 Exc_core =       40.2054861431971702
       KE =     1067.1177498831593766
-------------------------------------
     Etot =    -4711.1481986063008662
       TS =        0.4635059030918872
-------------------------------------
        F =    -4711.6117045093924389

IonicMinimize: Iter:  16  F: -4711.611704509392439  |grad|_K:  1.066e-04  alpha:  1.000e+00  linmin: -5.349e-02  t[s]:  39096.13

#--- Lowdin population analysis ---
# oxidation-state Cr +0.260 +0.338 +0.261 +0.271 +0.276 +0.270 +0.261 +0.271 +0.260 +0.277 +0.276 +0.277 +0.276 +0.270 +0.276 +0.277 +0.268 +0.278 +0.343 +0.339 +0.343 +0.271 +0.285 +0.271 +0.343 +0.271 +0.343 +0.277 +0.284 +0.277 +0.284 +0.271 +0.284 +0.277 +0.271 +0.277 +0.260 +0.290 +0.260 +0.275 +0.276 +0.275 +0.260 +0.275 +0.260 +0.269 +0.276 +0.269 +0.276 +0.275 +0.276 +0.269 +0.269 +0.271
# oxidation-state O -0.654


-------- Electronic minimization -----------
Will mix electronic density at each iteration.
	FillingsUpdate:  mu: +0.741209661  nElectrons: 762.000000
	FillingsUpdate:  mu: +0.741213655  nElectrons: 762.000000
SCF: Cycle:  0   F: -4711.611237152621470   dF: +3.572e-04   |Residual|: 9.220e-03   |deigs|: 4.432e-07  t[s]:  39238.35
	FillingsUpdate:  mu: +0.741193024  nElectrons: 762.000000
SCF: Cycle:  1   F: -4711.601222273715393   dF: +1.001e-02   |Residual|: 4.674e-02   |deigs|: 1.334e-04  t[s]:  39308.19
	FillingsUpdate:  mu: +0.741209772  nElectrons: 762.000000
SCF: Cycle:  2   F: -4711.611649238770951   dF: -1.043e-02   |Residual|: 4.124e-03   |deigs|: 1.170e-04  t[s]:  39378.06
	FillingsUpdate:  mu: +0.741209432  nElectrons: 762.000000
SCF: Cycle:  3   F: -4711.611669260801136   dF: -2.002e-05   |Residual|: 3.659e-03   |deigs|: 1.381e-05  t[s]:  39447.93
	FillingsUpdate:  mu: +0.741208717  nElectrons: 762.000000
SCF: Cycle:  4   F: -4711.611689897985343   dF: -2.064e-05   |Residual|: 2.639e-03   |deigs|: 7.296e-06  t[s]:  39517.82
	FillingsUpdate:  mu: +0.741209040  nElectrons: 762.000000
SCF: Cycle:  5   F: -4711.611713629917176   dF: -2.373e-05   |Residual|: 8.004e-04   |deigs|: 7.010e-06  t[s]:  39587.72
	FillingsUpdate:  mu: +0.741209637  nElectrons: 762.000000
SCF: Cycle:  6   F: -4711.611710841854801   dF: +2.788e-06   |Residual|: 1.211e-03   |deigs|: 4.182e-06  t[s]:  39657.64
	FillingsUpdate:  mu: +0.741209914  nElectrons: 762.000000
SCF: Cycle:  7   F: -4711.611715269421438   dF: -4.428e-06   |Residual|: 1.584e-04   |deigs|: 2.774e-06  t[s]:  39727.56
	FillingsUpdate:  mu: +0.741209533  nElectrons: 762.000000
SCF: Cycle:  8   F: -4711.611714872409721   dF: +3.970e-07   |Residual|: 3.504e-04   |deigs|: 1.200e-06  t[s]:  39797.53
	FillingsUpdate:  mu: +0.741209395  nElectrons: 762.000000
SCF: Cycle:  9   F: -4711.611715334081964   dF: -4.617e-07   |Residual|: 4.361e-05   |deigs|: 8.456e-07  t[s]:  39867.43
	FillingsUpdate:  mu: +0.741209487  nElectrons: 762.000000
SCF: Cycle: 10   F: -4711.611715311139051   dF: +2.294e-08   |Residual|: 8.870e-05   |deigs|: 3.217e-07  t[s]:  39937.34
	FillingsUpdate:  mu: +0.741209540  nElectrons: 762.000000
SCF: Cycle: 11   F: -4711.611715338381146   dF: -2.724e-08   |Residual|: 1.621e-05   |deigs|: 2.197e-07  t[s]:  40007.25
	FillingsUpdate:  mu: +0.741209531  nElectrons: 762.000000
SCF: Cycle: 12   F: -4711.611715333585380   dF: +4.796e-09   |Residual|: 3.413e-05   |deigs|: 1.126e-07  t[s]:  40077.42
	FillingsUpdate:  mu: +0.741209537  nElectrons: 762.000000
SCF: Cycle: 13   F: -4711.611715339094189   dF: -5.509e-09   |Residual|: 5.694e-06   |deigs|: 1.061e-07  t[s]:  40146.68
	FillingsUpdate:  mu: +0.741209524  nElectrons: 762.000000
SCF: Cycle: 14   F: -4711.611715338529393   dF: +5.648e-10   |Residual|: 7.688e-06   |deigs|: 2.955e-08  t[s]:  40196.61
	FillingsUpdate:  mu: +0.741209526  nElectrons: 762.000000
SCF: Cycle: 15   F: -4711.611715338568501   dF: -3.911e-11   |Residual|: 3.236e-06   |deigs|: 2.513e-08  t[s]:  40242.60
	FillingsUpdate:  mu: +0.741209522  nElectrons: 762.000000
SCF: Cycle: 16   F: -4711.611715339177863   dF: -6.094e-10   |Residual|: 3.039e-06   |deigs|: 1.879e-08  t[s]:  40288.45
SCF: Converged (|Delta E|<1.000000e-08 for 2 iters).

Setting wave functions to eigenvectors of Hamiltonian

# Ionic positions in lattice coordinates:
ion Cr   0.000000000000000   0.000000000000000   0.000000000000000 0
ion Cr   0.124680976493461   0.167826478901578   0.167890386102547 1
ion Cr  -0.002239527448281  -0.003101761080756   0.338021477065269 1
ion Cr   0.165003893082475   0.166863675262938   0.502441965164698 1
ion Cr   0.000235238349836  -0.000316892320947   0.667718069363091 1
ion Cr   0.165134920534767   0.167093137443571   0.831797172233574 1
ion Cr  -0.002272016451651   0.337913312461273  -0.003051801540596 1
ion Cr   0.164988799529712   0.502349319521691   0.166908747842841 1
ion Cr  -0.002493327367136   0.337469072045659   0.337503066251237 1
ion Cr   0.167465429569930   0.500484547290250   0.500569934629456 1
ion Cr   0.000165593555098   0.334068655330861   0.667035158069164 1
ion Cr   0.167447364903129   0.500601463069199   0.833218928325436 1
ion Cr   0.000237023556451   0.667571460448429  -0.000227874122237 1
ion Cr   0.165123696911424   0.831678838102565   0.167199556365933 1
ion Cr   0.000164160967684   0.666999875739333   0.334080291314907 1
ion Cr   0.167461263542752   0.833158535994160   0.500704147949279 1
ion Cr  -0.000057536001055   0.666907476211866   0.666983908263446 1
ion Cr   0.167482845924673   0.833465861558613   0.833558986527267 1
ion Cr   0.333978045231808  -0.000027054966462   0.000107008279517 1
ion Cr   0.543066566775689   0.166810847519003   0.166912716581722 1
ion Cr   0.333571476434314  -0.000086381835648   0.333874342272936 1
ion Cr   0.502080387754695   0.166749344843657   0.502298146378981 1
ion Cr   0.333496688879694   0.000336658539064   0.666985767814302 1
ion Cr   0.502148560226338   0.166768190601027   0.831644711958771 1
ion Cr   0.333543461126487   0.333735986426611   0.000047116628711 1
ion Cr   0.502042013793509   0.502154354001813   0.166812924153372 1
ion Cr   0.333600351688873   0.333812411560789   0.333931622919211 1
ion Cr   0.499435735430775   0.500394889627316   0.500506887327605 1
ion Cr   0.333457400194768   0.333210110639408   0.666895842098330 1
ion Cr   0.499420921898194   0.500458100397671   0.833202433167548 1
ion Cr   0.333440544399780   0.666868122277703   0.000436577480189 1
ion Cr   0.502167002873354   0.831560782934758   0.166881455689679 1
ion Cr   0.333470421304767   0.666807457239003   0.333296592596584 1
ion Cr   0.499455207300528   0.833091469897220   0.500569463231102 1
ion Cr   0.333400036805715   0.666806776100405   0.666902362375320 1
ion Cr   0.499534371625796   0.833195209987293   0.833290011761463 1
ion Cr   0.670031519552378  -0.003247777027053  -0.003155668058715 1
ion Cr   0.833530471949359   0.167253212551006   0.167308555167035 1
ion Cr   0.669442544088420  -0.003375724348521   0.337372567297556 1
ion Cr   0.833440557037653   0.166851100615894   0.501283261122781 1
ion Cr   0.666825666839865  -0.000377068977730   0.667079995183916 1
ion Cr   0.833643386257084   0.166960214977464   0.833048368909859 1
ion Cr   0.669377847820570   0.337240832526461  -0.003278713495846 1
ion Cr   0.833440239900751   0.501236585680575   0.166861455991390 1
ion Cr   0.669327153362960   0.337170858806487   0.337291027573922 1
ion Cr   0.833383275855804   0.501504258166449   0.501608496397049 1
ion Cr   0.666727356697738   0.333926101030422   0.666929931042776 1
ion Cr   0.833453315779281   0.501571661674268   0.832291062922279 1
ion Cr   0.666814240713817   0.666961692181807  -0.000312934575317 1
ion Cr   0.833685772423123   0.832998969201113   0.167061201004308 1
ion Cr   0.666749821739829   0.666907308160832   0.334013786159589 1
ion Cr   0.833478014503064   0.832248366988055   0.501690239130095 1
ion Cr   0.666990664764722   0.666869402925754   0.666946366233768 1
ion Cr   0.833859461437531   0.832674364724409   0.832728923941514 1
ion O   0.333919372167007   0.166784050770093   0.167038098322011 1

# Forces in Lattice coordinates:
force Cr  -0.091241885612785  -0.117936717080838  -0.112465270186380 0
force Cr   0.002990790317576  -0.001087194710934  -0.000718651257082 1
force Cr  -0.000574208982262  -0.000498586297352   0.001216893426396 1
force Cr  -0.001794925242209  -0.000819834405696   0.000134940562328 1
force Cr   0.000363386079656   0.001599401994805  -0.001168810464287 1
force Cr  -0.000833453875189   0.000581921226572  -0.000461605340971 1
force Cr  -0.000137388818425   0.000168547593784  -0.000527554659434 1
force Cr  -0.001159542816415  -0.000679095623649   0.000218306072149 1
force Cr  -0.001583026027234   0.000235702364000   0.001072679378066 1
force Cr  -0.000776695525714   0.000258640767133  -0.001519427197315 1
force Cr  -0.000359971007645  -0.002000590654133  -0.000095085389955 1
force Cr  -0.000357623373235  -0.001217993708809   0.000995131444711 1
force Cr  -0.000547069311295   0.000542421618486  -0.000234782548754 1
force Cr  -0.000793774378319   0.000716962853017  -0.000454222650678 1
force Cr  -0.000205809474265  -0.001068980075025   0.000634728809865 1
force Cr  -0.000699656088915   0.000860001937577  -0.001491467596466 1
force Cr  -0.001297643531256   0.000564593716601  -0.000234290945095 1
force Cr  -0.000371294595705   0.000317923377421   0.000414075153513 1
force Cr  -0.000503336545618   0.000095444175948  -0.001243078483701 1
force Cr   0.001625500385009  -0.000152641930451  -0.000967866613410 1
force Cr  -0.000806935581167  -0.000651279418129  -0.000231265515628 1
force Cr  -0.000794764126498  -0.001106976905247  -0.000864002914739 1
force Cr  -0.000189987807665   0.000196801889890  -0.001146894684812 1
force Cr  -0.000308420837667   0.000472321342940  -0.000744181317675 1
force Cr  -0.000629184967347   0.000212274204676  -0.001989317259547 1
force Cr   0.000096081429828   0.001082508736715  -0.000224858656920 1
force Cr  -0.000587230131903   0.000708869880433  -0.000375799007886 1
force Cr  -0.001187113944367   0.000440107577171  -0.001577262780665 1
force Cr   0.000656414173196   0.000344840837167  -0.000194262929480 1
force Cr   0.000674453738447  -0.000501636002506  -0.000710822530697 1
force Cr   0.001749453480649  -0.000015210479952  -0.000688053627723 1
force Cr  -0.000286702447385  -0.001409253190490  -0.000904367311931 1
force Cr   0.000386062652675  -0.000258861151180  -0.000032182802453 1
force Cr   0.000131894226458   0.000779599411539  -0.001080928460767 1
force Cr   0.000636497538547   0.000037650553560  -0.000759362873725 1
force Cr   0.000303164196252  -0.000348113259069  -0.000311127249729 1
force Cr   0.000750774301422  -0.000352517692968   0.000163928247814 1
force Cr  -0.003116409504936  -0.000659240389168  -0.000029560135038 1
force Cr  -0.001006243026531   0.000426326491490  -0.000991007286530 1
force Cr   0.001131536579054  -0.000827292657632   0.000300619134116 1
force Cr  -0.001162105779575  -0.000495280612393  -0.001242849582037 1
force Cr   0.001686727192425   0.000299037864127   0.000901461855779 1
force Cr   0.000511113120523  -0.000747110815245  -0.000677444295924 1
force Cr   0.000014711085881  -0.001056566695441   0.001135261535576 1
force Cr  -0.000584843085577   0.000226023393056  -0.001628977248154 1
force Cr  -0.000094515305997   0.000535247708404  -0.002371527668599 1
force Cr  -0.001142435005087   0.000830793707322   0.000652040009604 1
force Cr  -0.000147242455063   0.000406231020572   0.001188897211360 1
force Cr  -0.001374387757861   0.000267305626013  -0.000293614589493 1
force Cr   0.000382550617578   0.000483747940750  -0.001189988068265 1
force Cr  -0.001748204711700  -0.001894445172282  -0.000028165414180 1
force Cr  -0.000418289111250   0.000330548532098  -0.000528042611700 1
force Cr  -0.000565336755246  -0.000476547685768  -0.000661491876191 1
force Cr   0.000317970703605  -0.000701732785918   0.001117765937312 1
force O  -0.003200140730163   0.000061148556095  -0.002037584736017 1

# Energy components:
   Eewald =    -3636.0642633787097111
       EH =      970.1461472682923386
     Eloc =    -3057.5383849824747813
      Enl =      509.5845586071382058
      Exc =     -604.5992180717934161
 Exc_core =       40.2054889487166065
       KE =     1067.1174779228949774
-------------------------------------
     Etot =    -4711.1481936859363486
       TS =        0.4635216532411215
-------------------------------------
        F =    -4711.6117153391778629

IonicMinimize: Iter:  17  F: -4711.611715339177863  |grad|_K:  5.971e-05  alpha:  1.000e+00  linmin: -1.140e-03  t[s]:  40315.58
IonicMinimize: Converged (|grad|_K<1.000000e-04).

#--- Lowdin population analysis ---
# oxidation-state Cr +0.260 +0.338 +0.261 +0.271 +0.276 +0.270 +0.261 +0.271 +0.260 +0.277 +0.276 +0.277 +0.276 +0.270 +0.276 +0.277 +0.268 +0.278 +0.343 +0.339 +0.343 +0.271 +0.284 +0.271 +0.343 +0.271 +0.343 +0.277 +0.284 +0.277 +0.284 +0.271 +0.284 +0.277 +0.271 +0.277 +0.260 +0.290 +0.260 +0.275 +0.276 +0.275 +0.260 +0.275 +0.260 +0.269 +0.276 +0.269 +0.276 +0.275 +0.276 +0.269 +0.269 +0.271
# oxidation-state O -0.654


Dumping 'Cr_int_oct.Ecomponents' ... done
End date and time: Tue Jul 16 19:52:48 2024  (Duration: 0-11:12:05.92)
Done!
