
*************** JDFTx 1.7.0 (git hash e155c65d) ***************

Start date and time: Tue Jul 16 08:40:12 2024
Executable jdftx with command-line: -i Cr_int_tet.in
Running on hosts (process indices):  node3404 (0-15)
Divided in process groups (process indices):  0 (0)  1 (1)  2 (2)  3 (3)  4 (4)  5 (5)  6 (6)  7 (7)  8 (8)  9 (9)  10 (10)  11 (11)  12 (12)  13 (13)  14 (14)  15 (15)
Resource initialization completed at t[s]:      0.00
Run totals: 16 processes, 16 threads, 0 GPUs


Input parsed successfully to the following command list (including defaults):

basis kpoint-dependent
coords-type Lattice
core-overlap-check vector
coulomb-interaction Periodic
davidson-band-ratio 1.1
dump End Ecomponents
dump-name $INPUT.$VAR
elec-cutoff 20 100
elec-eigen-algo Davidson
elec-ex-corr gga-PBEsol
elec-smearing Fermi 0.01
electronic-minimize  \
	dirUpdateScheme      FletcherReeves \
	linminMethod         DirUpdateRecommended \
	nIterations          100 \
	history              15 \
	knormThreshold       0 \
	maxThreshold         no \
	energyDiffThreshold  1e-08 \
	nEnergyDiff          2 \
	alphaTstart          1 \
	alphaTmin            1e-10 \
	updateTestStepSize   yes \
	alphaTreduceFactor   0.1 \
	alphaTincreaseFactor 3 \
	nAlphaAdjustMax      3 \
	wolfeEnergy          0.0001 \
	wolfeGradient        0.9 \
	fdTest               no
electronic-scf  \
	nIterations	50 \
	energyDiffThreshold	1e-08 \
	residualThreshold	1e-07 \
	mixFraction	0.5 \
	qMetric	0.8 \
	history	10 \
	nEigSteps	2 \
	eigDiffThreshold	1e-08 \
	mixedVariable	Density \
	qKerker	0.8 \
	qKappa	-1 \
	verbose	no \
	mixFractionMag	1.5
exchange-regularization WignerSeitzTruncated
fluid None
fluid-ex-corr lda-TF lda-PZ
fluid-gummel-loop 10 1.000000e-05
fluid-minimize  \
	dirUpdateScheme      PolakRibiere \
	linminMethod         DirUpdateRecommended \
	nIterations          100 \
	history              15 \
	knormThreshold       0 \
	maxThreshold         no \
	energyDiffThreshold  0 \
	nEnergyDiff          2 \
	alphaTstart          1 \
	alphaTmin            1e-10 \
	updateTestStepSize   yes \
	alphaTreduceFactor   0.1 \
	alphaTincreaseFactor 3 \
	nAlphaAdjustMax      3 \
	wolfeEnergy          0.0001 \
	wolfeGradient        0.9 \
	fdTest               no
fluid-solvent H2O 55.338 ScalarEOS \
	epsBulk 78.4 \
	pMol 0.92466 \
	epsInf 1.77 \
	Pvap 1.06736e-10 \
	sigmaBulk 4.62e-05 \
	Rvdw 2.61727 \
	Res 1.42 \
	tauNuc 343133 \
	poleEl 15 7 1
forces-output-coords Positions
ion Cr   0.000000000000000   0.000000000000000   0.000000000000000 0
ion Cr   0.166530000000000   0.171700000000000   0.163190000000000 1
ion Cr   0.009750000000000  -0.004780000000000   0.339300000000000 1
ion Cr   0.152060000000000   0.166250000000000   0.492230000000000 1
ion Cr   0.004220000000000  -0.002450000000000   0.670900000000000 1
ion Cr   0.172050000000000   0.144180000000000   0.827690000000000 1
ion Cr  -0.002470000000000   0.341560000000000   0.007570000000000 1
ion Cr   0.143280000000000   0.503550000000000   0.169880000000000 1
ion Cr   0.005160000000000   0.323380000000000   0.343870000000000 1
ion Cr   0.163850000000000   0.503710000000000   0.503810000000000 1
ion Cr  -0.017130000000000   0.333130000000000   0.665660000000000 1
ion Cr   0.161590000000000   0.512300000000000   0.828640000000000 1
ion Cr  -0.001010000000000   0.660250000000000   0.014060000000000 1
ion Cr   0.167960000000000   0.827690000000000   0.173020000000000 1
ion Cr   0.003070000000000   0.672310000000000   0.351890000000000 1
ion Cr   0.161190000000000   0.844370000000000   0.506460000000000 1
ion Cr   0.012130000000000   0.670110000000000   0.670030000000000 1
ion Cr   0.165150000000000   0.822660000000000   0.836700000000000 1
ion Cr   0.318470000000000  -0.002530000000000   0.015200000000000 1
ion Cr   0.498880000000000   0.180640000000000   0.157720000000000 1
ion Cr   0.333590000000000   0.014090000000000   0.350080000000000 1
ion Cr   0.494290000000000   0.174230000000000   0.507880000000000 1
ion Cr   0.339350000000000   0.001160000000000   0.678910000000000 1
ion Cr   0.504160000000000   0.167170000000000   0.847290000000000 1
ion Cr   0.331210000000000   0.324510000000000   0.000370000000000 1
ion Cr   0.503120000000000   0.498700000000000   0.153910000000000 1
ion Cr   0.341560000000000   0.328360000000000   0.325950000000000 1
ion Cr   0.514500000000000   0.488700000000000   0.509420000000000 1
ion Cr   0.341040000000000   0.355650000000000   0.645590000000000 1
ion Cr   0.489540000000000   0.514670000000000   0.821770000000000 1
ion Cr   0.323880000000000   0.675270000000000   0.009200000000000 1
ion Cr   0.508780000000000   0.832480000000000   0.176460000000000 1
ion Cr   0.335400000000000   0.668230000000000   0.333330000000000 1
ion Cr   0.487370000000000   0.835940000000000   0.500810000000000 1
ion Cr   0.336450000000000   0.673070000000000   0.662270000000000 1
ion Cr   0.485590000000000   0.851050000000000   0.827460000000000 1
ion Cr   0.675280000000000   0.008270000000000   0.007750000000000 1
ion Cr   0.840350000000000   0.146770000000000   0.163570000000000 1
ion Cr   0.662090000000000  -0.010910000000000   0.334620000000000 1
ion Cr   0.838420000000000   0.177750000000000   0.500250000000000 1
ion Cr   0.645910000000000  -0.009350000000000   0.661500000000000 1
ion Cr   0.812290000000000   0.165810000000000   0.838400000000000 1
ion Cr   0.678970000000000   0.346340000000000  -0.007800000000000 1
ion Cr   0.829900000000000   0.515040000000000   0.185340000000000 1
ion Cr   0.663460000000000   0.337210000000000   0.340710000000000 1
ion Cr   0.816640000000000   0.494870000000000   0.495850000000000 1
ion Cr   0.661080000000000   0.328950000000000   0.663200000000000 1
ion Cr   0.820030000000000   0.507510000000000   0.838280000000000 1
ion Cr   0.686490000000000   0.662990000000000  -0.008140000000000 1
ion Cr   0.835060000000000   0.836100000000000   0.182530000000000 1
ion Cr   0.665880000000000   0.679200000000000   0.335400000000000 1
ion Cr   0.848590000000000   0.836120000000000   0.490490000000000 1
ion Cr   0.664150000000000   0.665720000000000   0.667940000000000 1
ion Cr   0.835700000000000   0.838750000000000   0.850780000000000 1
ion O   0.160000000000000   0.090000000000000   0.360000000000000 1
ion-species GBRV/$ID_pbesol.uspp
ion-width 0
ionic-minimize  \
	dirUpdateScheme      L-BFGS \
	linminMethod         DirUpdateRecommended \
	nIterations          30 \
	history              15 \
	knormThreshold       0.0001 \
	maxThreshold         no \
	energyDiffThreshold  1e-06 \
	nEnergyDiff          2 \
	alphaTstart          1 \
	alphaTmin            1e-10 \
	updateTestStepSize   yes \
	alphaTreduceFactor   0.1 \
	alphaTincreaseFactor 3 \
	nAlphaAdjustMax      3 \
	wolfeEnergy          0.0001 \
	wolfeGradient        0.9 \
	fdTest               no
kpoint   0.500000000000   0.500000000000   0.500000000000  1.00000000000000
kpoint-folding 3 3 3 
latt-move-scale 1 1 1
latt-scale 1 1 1 
lattice  \
	  15.986182610261316    0.000000000000000    0.000000000000000  \
	   0.000000000000000   15.986182610261316    0.000000000000000  \
	   0.000000000000000    0.000000000000000   15.986182610261316 
lattice-minimize  \
	dirUpdateScheme      L-BFGS \
	linminMethod         DirUpdateRecommended \
	nIterations          0 \
	history              15 \
	knormThreshold       0 \
	maxThreshold         no \
	energyDiffThreshold  1e-06 \
	nEnergyDiff          2 \
	alphaTstart          1 \
	alphaTmin            1e-10 \
	updateTestStepSize   yes \
	alphaTreduceFactor   0.1 \
	alphaTincreaseFactor 3 \
	nAlphaAdjustMax      3 \
	wolfeEnergy          0.0001 \
	wolfeGradient        0.9 \
	fdTest               no
lcao-params -1 1e-06 0.01
pcm-variant GLSSA13
perturb-minimize  \
	nIterations            0 \
	algorithm              MINRES \
	residualTol            0.0001 \
	residualDiffThreshold  0.0001 \
	CGBypass               no \
	recomputeResidual      no
spintype no-spin
subspace-rotation-factor 1 yes
symmetries automatic
symmetry-threshold 0.0001



---------- Setting up symmetries ----------

Found 48 point-group symmetries of the bravais lattice
Found 1 space-group symmetries with basis
Applied RMS atom displacement 0 bohrs to make symmetries exact.

---------- Initializing the Grid ----------
R = 
[      15.9862            0            0  ]
[            0      15.9862            0  ]
[            0            0      15.9862  ]
unit cell volume = 4085.4
G =
[   0.393039          0          0  ]
[          0   0.393039          0  ]
[          0          0   0.393039  ]
Minimum fftbox size, Smin = [  72  72  72  ]
Chosen fftbox size, S = [  72  72  72  ]

---------- Initializing tighter grid for wavefunction operations ----------
R = 
[      15.9862            0            0  ]
[            0      15.9862            0  ]
[            0            0      15.9862  ]
unit cell volume = 4085.4
G =
[   0.393039          0          0  ]
[          0   0.393039          0  ]
[          0          0   0.393039  ]
Minimum fftbox size, Smin = [  68  68  68  ]
Chosen fftbox size, S = [  70  70  70  ]

---------- Exchange Correlation functional ----------
Initalized PBEsol GGA exchange.
Initalized PBEsol GGA correlation.

---------- Setting up pseudopotentials ----------
Width of ionic core gaussian charges (only for fluid interactions / plotting) set to 0

Reading pseudopotential file '/home/rc652/JDFTx/build/pseudopotentials/GBRV/cr_pbesol.uspp':
  Title: Cr.  Created by USPP 7.3.6 on 22-9-15
  Reference state energy: -86.950313.  14 valence electrons in orbitals:
    |300>  occupation: 2  eigenvalue: -3.277767
    |310>  occupation: 6  eigenvalue: -2.223139
    |400>  occupation: 1.6  eigenvalue: -0.455775
    |320>  occupation: 3.4  eigenvalue: -0.615164
  lMax: 2  lLocal: 3  QijEcut: 6
  6 projectors sampled on a log grid with 595 points:
    l: 0  eig: -3.277767  rCut: 1.55
    l: 0  eig: -0.455775  rCut: 1.55
    l: 1  eig: -2.223139  rCut: 1.55
    l: 1  eig: 0.500000  rCut: 1.55
    l: 2  eig: -0.615164  rCut: 1.7
    l: 2  eig: 0.500000  rCut: 1.7
  Partial core density with radius 0.75
  Transforming core density to a uniform radial grid of dG=0.02 with 1231 points.
  Transforming local potential to a uniform radial grid of dG=0.02 with 1231 points.
  Transforming nonlocal projectors to a uniform radial grid of dG=0.02 with 432 points.
  Transforming density augmentations to a uniform radial grid of dG=0.02 with 1231 points.
  Transforming atomic orbitals to a uniform radial grid of dG=0.02 with 432 points.
  Core radius for overlap checks: 1.70 bohrs.

Reading pseudopotential file '/home/rc652/JDFTx/build/pseudopotentials/GBRV/o_pbesol.uspp':
  Title: O.  Created by USPP 7.3.6 on 3-2-2014
  Reference state energy: -15.849885.  6 valence electrons in orbitals:
    |200>  occupation: 2  eigenvalue: -0.873214
    |210>  occupation: 4  eigenvalue: -0.330058
  lMax: 2  lLocal: 2  QijEcut: 6
  5 projectors sampled on a log grid with 511 points:
    l: 0  eig: -0.873214  rCut: 1.25
    l: 0  eig: 0.000000  rCut: 1.25
    l: 1  eig: -0.330058  rCut: 1.25
    l: 1  eig: 0.000000  rCut: 1.25
    l: 2  eig: 1.000000  rCut: 1.25
  Partial core density with radius 0.7
  Transforming core density to a uniform radial grid of dG=0.02 with 1231 points.
  Transforming local potential to a uniform radial grid of dG=0.02 with 1231 points.
  Transforming nonlocal projectors to a uniform radial grid of dG=0.02 with 432 points.
  Transforming density augmentations to a uniform radial grid of dG=0.02 with 1231 points.
  Transforming atomic orbitals to a uniform radial grid of dG=0.02 with 432 points.
  Core radius for overlap checks: 1.25 bohrs.

Initialized 2 species with 55 total atoms.

Folded 1 k-points by 3x3x3 to 27 k-points.

---------- Setting up k-points, bands, fillings ----------
Adding inversion symmetry to k-mesh for non-inversion-symmetric unit cell.
Reduced to 14 k-points under symmetry. 
Computing the number of bands and number of electrons
Calculating initial fillings.
nElectrons: 762.000000   nBands: 544   nStates: 14

----- Setting up reduced wavefunction bases (one per k-point) -----
average nbasis = 17455.407 , ideal nbasis = 17453.129

---------- Setting up ewald sum ----------
Optimum gaussian width for ewald sums = 3.270351 bohr.
Real space sum over 343 unit cells with max indices [  3  3  3  ]
Reciprocal space sum over 6859 terms with max indices [  9  9  9  ]

---------- Allocating electronic variables ----------
Initializing wave functions:  linear combination of atomic orbitals
Cr pseudo-atom occupations:   s ( 2 0 )  p ( 6 )  d ( 6 )
O pseudo-atom occupations:   s ( 2 )  p ( 4 )
	FillingsUpdate:  mu: +0.876764524  nElectrons: 762.000000
LCAOMinimize: Iter:   0  F: -4694.7895553661292070  |grad|_K:  1.559e-03  alpha:  1.000e+00
	FillingsUpdate:  mu: +0.886692818  nElectrons: 762.000000
LCAOMinimize: Iter:   1  F: -4695.1848301158270260  |grad|_K:  1.171e-03  alpha:  5.032e-02  linmin: -2.327e-01  cgtest:  6.698e-01  t[s]:    103.07
LCAOMinimize: 	Predicted alpha/alphaT>3.000000, increasing alphaT to 1.509603e-01.
LCAOMinimize: 	Predicted alpha/alphaT>3.000000, increasing alphaT to 4.528809e-01.
	FillingsUpdate:  mu: +0.913936911  nElectrons: 762.000000
LCAOMinimize: Iter:   2  F: -4696.5614367510879674  |grad|_K:  3.792e-03  alpha:  4.804e-01  linmin:  2.400e-02  cgtest: -1.270e-01  t[s]:    159.73
LCAOMinimize: 	Step increased F by 2.990390e-01, reducing alpha to 2.142331e-03.
	FillingsUpdate:  mu: +0.916470728  nElectrons: 762.000000
LCAOMinimize: Iter:   3  F: -4696.6118454319739612  |grad|_K:  3.807e-03  alpha:  2.142e-03  linmin: -1.433e-02  cgtest:  9.937e-01  t[s]:    223.92
LCAOMinimize: 	Predicted alpha/alphaT>3.000000, increasing alphaT to 6.426993e-03.
LCAOMinimize: 	Predicted alpha/alphaT>3.000000, increasing alphaT to 1.928098e-02.
	FillingsUpdate:  mu: +0.921562133  nElectrons: 762.000000
LCAOMinimize: Iter:   4  F: -4697.6001047686258971  |grad|_K:  9.235e-04  alpha:  3.282e-02  linmin:  2.046e-02  cgtest: -7.810e-02  t[s]:    280.58
	FillingsUpdate:  mu: +0.928598586  nElectrons: 762.000000
LCAOMinimize: Iter:   5  F: -4697.7108594871024252  |grad|_K:  5.480e-04  alpha:  6.380e-02  linmin:  8.549e-03  cgtest:  2.312e-02  t[s]:    317.59
LCAOMinimize: 	Predicted alpha/alphaT>3.000000, increasing alphaT to 1.914022e-01.
	FillingsUpdate:  mu: +0.928811684  nElectrons: 762.000000
LCAOMinimize: Iter:   6  F: -4697.8612378991556398  |grad|_K:  1.071e-03  alpha:  2.485e-01  linmin:  5.751e-03  cgtest:  2.332e-03  t[s]:    364.40
	FillingsUpdate:  mu: +0.942243247  nElectrons: 762.000000
LCAOMinimize: Iter:   7  F: -4697.9857508508202955  |grad|_K:  5.912e-04  alpha:  4.291e-02  linmin: -4.061e-02  cgtest:  6.653e-01  t[s]:    401.46
LCAOMinimize: Encountered beta<0, resetting CG.
	FillingsUpdate:  mu: +0.945756658  nElectrons: 762.000000
LCAOMinimize: Iter:   8  F: -4698.0175051649257512  |grad|_K:  1.667e-04  alpha:  4.369e-02  linmin:  1.212e-04  cgtest: -5.726e-03  t[s]:    438.51
	FillingsUpdate:  mu: +0.946273924  nElectrons: 762.000000
LCAOMinimize: Iter:   9  F: -4698.0225889686817027  |grad|_K:  1.912e-04  alpha:  8.823e-02  linmin:  1.347e-03  cgtest: -4.014e-03  t[s]:    475.53
	FillingsUpdate:  mu: +0.947918795  nElectrons: 762.000000
LCAOMinimize: Iter:  10  F: -4698.0306883274333813  |grad|_K:  2.074e-04  alpha:  1.075e-01  linmin:  1.585e-03  cgtest:  1.044e-02  t[s]:    512.56
	FillingsUpdate:  mu: +0.950631636  nElectrons: 762.000000
LCAOMinimize: Iter:  11  F: -4698.0379577146259180  |grad|_K:  6.213e-05  alpha:  8.178e-02  linmin:  1.641e-03  cgtest:  1.167e-01  t[s]:    549.64
	FillingsUpdate:  mu: +0.950861904  nElectrons: 762.000000
LCAOMinimize: Iter:  12  F: -4698.0386322165977617  |grad|_K:  6.577e-05  alpha:  8.422e-02  linmin:  3.124e-04  cgtest:  3.131e-03  t[s]:    586.71
	FillingsUpdate:  mu: +0.951249589  nElectrons: 762.000000
LCAOMinimize: Iter:  13  F: -4698.0396206251953117  |grad|_K:  6.985e-05  alpha:  1.100e-01  linmin: -1.358e-04  cgtest:  1.234e-03  t[s]:    623.78
	FillingsUpdate:  mu: +0.951538564  nElectrons: 762.000000
LCAOMinimize: Iter:  14  F: -4698.0401912962843198  |grad|_K:  1.792e-05  alpha:  5.621e-02  linmin:  1.574e-05  cgtest: -3.920e-02  t[s]:    660.81
	FillingsUpdate:  mu: +0.951569377  nElectrons: 762.000000
LCAOMinimize: Iter:  15  F: -4698.0402240862040344  |grad|_K:  5.683e-06  alpha:  4.909e-02  linmin:  1.278e-04  cgtest: -2.002e-04  t[s]:    697.85
	FillingsUpdate:  mu: +0.951615830  nElectrons: 762.000000
LCAOMinimize: Iter:  16  F: -4698.0402314494776874  |grad|_K:  7.863e-06  alpha:  1.097e-01  linmin:  7.485e-05  cgtest: -1.121e-04  t[s]:    734.88
	FillingsUpdate:  mu: +0.951688491  nElectrons: 762.000000
LCAOMinimize: Iter:  17  F: -4698.0402441665955848  |grad|_K:  7.196e-06  alpha:  9.897e-02  linmin:  4.446e-05  cgtest:  1.368e-03  t[s]:    771.89
	FillingsUpdate:  mu: +0.951733230  nElectrons: 762.000000
LCAOMinimize: Iter:  18  F: -4698.0402505639303854  |grad|_K:  1.481e-06  alpha:  5.942e-02  linmin: -2.672e-05  cgtest:  3.528e-03  t[s]:    808.93
	FillingsUpdate:  mu: +0.951738018  nElectrons: 762.000000
LCAOMinimize: Iter:  19  F: -4698.0402509812247445  |grad|_K:  1.560e-06  alpha:  9.151e-02  linmin: -3.516e-04  cgtest:  1.356e-03  t[s]:    845.96
	FillingsUpdate:  mu: +0.951749499  nElectrons: 762.000000
LCAOMinimize: Iter:  20  F: -4698.0402517296433871  |grad|_K:  1.693e-06  alpha:  1.478e-01  linmin:  1.723e-04  cgtest: -4.820e-03  t[s]:    883.09
LCAOMinimize: Converged (|Delta F|<1.000000e-06 for 2 iters).


---- Citations for features of the code used in this run ----

   Software package:
      R. Sundararaman, K. Letchworth-Weaver, K.A. Schwarz, D. Gunceler, Y. Ozhabes and T.A. Arias, 'JDFTx: software for joint density-functional theory', SoftwareX 6, 278 (2017)

   gga-PBEsol exchange-correlation functional:
      J.P. Perdew et al., Phys. Rev. Lett. 100, 136406 (2008)

   Pseudopotentials:
      KF Garrity, JW Bennett, KM Rabe and D Vanderbilt, Comput. Mater. Sci. 81, 446 (2014)

This list may not be complete. Please suggest additional citations or
report any other bugs at https://github.com/shankar1729/jdftx/issues

Initialization completed successfully at t[s]:    896.96


-------- Electronic minimization -----------
Will mix electronic density at each iteration.
	FillingsUpdate:  mu: +0.951749499  nElectrons: 762.000000
	FillingsUpdate:  mu: +0.887398208  nElectrons: 762.000000
SCF: Cycle:  0   F: -4693.995880868876156   dF: +4.044e+00   |Residual|: 4.520e+00   |deigs|: 5.241e-02  t[s]:   1035.33
	FillingsUpdate:  mu: +0.731678543  nElectrons: 762.000000
SCF: Cycle:  1   F: -4710.209730149980714   dF: -1.621e+01   |Residual|: 6.457e-01   |deigs|: 1.909e-01  t[s]:   1150.19
	FillingsUpdate:  mu: +0.737780100  nElectrons: 762.000000
SCF: Cycle:  2   F: -4696.531425930483238   dF: +1.368e+01   |Residual|: 1.877e+00   |deigs|: 1.528e-02  t[s]:   1265.06
	FillingsUpdate:  mu: +0.740338810  nElectrons: 762.000000
SCF: Cycle:  3   F: -4710.684502647535737   dF: -1.415e+01   |Residual|: 3.209e-01   |deigs|: 1.277e-02  t[s]:   1379.93
	FillingsUpdate:  mu: +0.740690486  nElectrons: 762.000000
SCF: Cycle:  4   F: -4709.957543911976245   dF: +7.270e-01   |Residual|: 4.837e-01   |deigs|: 2.274e-03  t[s]:   1494.81
	FillingsUpdate:  mu: +0.741490195  nElectrons: 762.000000
SCF: Cycle:  5   F: -4710.909621254676495   dF: -9.521e-01   |Residual|: 1.352e-01   |deigs|: 2.832e-03  t[s]:   1609.59
	FillingsUpdate:  mu: +0.740958065  nElectrons: 762.000000
SCF: Cycle:  6   F: -4710.780282828807685   dF: +1.293e-01   |Residual|: 2.261e-01   |deigs|: 1.614e-03  t[s]:   1724.45
	FillingsUpdate:  mu: +0.740426758  nElectrons: 762.000000
SCF: Cycle:  7   F: -4710.955924718890856   dF: -1.756e-01   |Residual|: 7.937e-02   |deigs|: 9.709e-04  t[s]:   1836.55
	FillingsUpdate:  mu: +0.740382772  nElectrons: 762.000000
SCF: Cycle:  8   F: -4710.973851219852804   dF: -1.793e-02   |Residual|: 2.140e-02   |deigs|: 4.133e-04  t[s]:   1940.11
	FillingsUpdate:  mu: +0.740381899  nElectrons: 762.000000
SCF: Cycle:  9   F: -4710.969563545045276   dF: +4.288e-03   |Residual|: 4.317e-02   |deigs|: 8.106e-05  t[s]:   2010.58
	FillingsUpdate:  mu: +0.740376272  nElectrons: 762.000000
SCF: Cycle: 10   F: -4710.975092170127027   dF: -5.529e-03   |Residual|: 6.752e-03   |deigs|: 1.113e-04  t[s]:   2080.96
	FillingsUpdate:  mu: +0.740376753  nElectrons: 762.000000
SCF: Cycle: 11   F: -4710.974973502120520   dF: +1.187e-04   |Residual|: 8.714e-03   |deigs|: 3.883e-05  t[s]:   2151.35
	FillingsUpdate:  mu: +0.740384243  nElectrons: 762.000000
SCF: Cycle: 12   F: -4710.975207605375545   dF: -2.341e-04   |Residual|: 3.189e-03   |deigs|: 1.835e-05  t[s]:   2221.81
	FillingsUpdate:  mu: +0.740388357  nElectrons: 762.000000
SCF: Cycle: 13   F: -4710.975215119923632   dF: -7.515e-06   |Residual|: 2.872e-03   |deigs|: 1.676e-05  t[s]:   2292.25
	FillingsUpdate:  mu: +0.740389230  nElectrons: 762.000000
SCF: Cycle: 14   F: -4710.975222369791481   dF: -7.250e-06   |Residual|: 2.359e-03   |deigs|: 8.521e-06  t[s]:   2362.63
	FillingsUpdate:  mu: +0.740384442  nElectrons: 762.000000
SCF: Cycle: 15   F: -4710.975241422467661   dF: -1.905e-05   |Residual|: 4.867e-04   |deigs|: 7.021e-06  t[s]:   2433.11
	FillingsUpdate:  mu: +0.740383973  nElectrons: 762.000000
SCF: Cycle: 16   F: -4710.975241031086625   dF: +3.914e-07   |Residual|: 5.845e-04   |deigs|: 2.000e-06  t[s]:   2503.54
	FillingsUpdate:  mu: +0.740384113  nElectrons: 762.000000
SCF: Cycle: 17   F: -4710.975241799349533   dF: -7.683e-07   |Residual|: 3.754e-04   |deigs|: 1.516e-06  t[s]:   2573.95
	FillingsUpdate:  mu: +0.740384518  nElectrons: 762.000000
SCF: Cycle: 18   F: -4710.975241882919363   dF: -8.357e-08   |Residual|: 3.616e-04   |deigs|: 1.652e-06  t[s]:   2644.33
	FillingsUpdate:  mu: +0.740384671  nElectrons: 762.000000
SCF: Cycle: 19   F: -4710.975242292463918   dF: -4.095e-07   |Residual|: 1.475e-04   |deigs|: 7.547e-07  t[s]:   2714.78
	FillingsUpdate:  mu: +0.740384920  nElectrons: 762.000000
SCF: Cycle: 20   F: -4710.975242349410109   dF: -5.695e-08   |Residual|: 6.042e-05   |deigs|: 7.129e-07  t[s]:   2785.19
	FillingsUpdate:  mu: +0.740384789  nElectrons: 762.000000
SCF: Cycle: 21   F: -4710.975242340981822   dF: +8.428e-09   |Residual|: 8.064e-05   |deigs|: 3.493e-07  t[s]:   2855.54
	FillingsUpdate:  mu: +0.740384745  nElectrons: 762.000000
SCF: Cycle: 22   F: -4710.975242361137134   dF: -2.016e-08   |Residual|: 1.835e-05   |deigs|: 2.969e-07  t[s]:   2925.96
	FillingsUpdate:  mu: +0.740384746  nElectrons: 762.000000
SCF: Cycle: 23   F: -4710.975242361394521   dF: -2.574e-10   |Residual|: 1.807e-05   |deigs|: 5.954e-08  t[s]:   2993.55
	FillingsUpdate:  mu: +0.740384764  nElectrons: 762.000000
SCF: Cycle: 24   F: -4710.975242362065728   dF: -6.712e-10   |Residual|: 9.149e-06   |deigs|: 4.498e-08  t[s]:   3047.48
SCF: Converged (|Delta E|<1.000000e-08 for 2 iters).

Setting wave functions to eigenvectors of Hamiltonian

# Ionic positions in lattice coordinates:
ion Cr   0.000000000000000   0.000000000000000   0.000000000000000 0
ion Cr   0.166530000000000   0.171700000000000   0.163190000000000 1
ion Cr   0.009750000000000  -0.004780000000000   0.339300000000000 1
ion Cr   0.152060000000000   0.166250000000000   0.492230000000000 1
ion Cr   0.004220000000000  -0.002450000000000   0.670900000000000 1
ion Cr   0.172050000000000   0.144180000000000   0.827690000000000 1
ion Cr  -0.002470000000000   0.341560000000000   0.007570000000000 1
ion Cr   0.143280000000000   0.503550000000000   0.169880000000000 1
ion Cr   0.005160000000000   0.323380000000000   0.343870000000000 1
ion Cr   0.163850000000000   0.503710000000000   0.503810000000000 1
ion Cr  -0.017130000000000   0.333130000000000   0.665660000000000 1
ion Cr   0.161590000000000   0.512300000000000   0.828640000000000 1
ion Cr  -0.001010000000000   0.660250000000000   0.014060000000000 1
ion Cr   0.167960000000000   0.827690000000000   0.173020000000000 1
ion Cr   0.003070000000000   0.672310000000000   0.351890000000000 1
ion Cr   0.161190000000000   0.844370000000000   0.506460000000000 1
ion Cr   0.012130000000000   0.670110000000000   0.670030000000000 1
ion Cr   0.165150000000000   0.822660000000000   0.836700000000000 1
ion Cr   0.318470000000000  -0.002530000000000   0.015200000000000 1
ion Cr   0.498880000000000   0.180640000000000   0.157720000000000 1
ion Cr   0.333590000000000   0.014090000000000   0.350080000000000 1
ion Cr   0.494290000000000   0.174230000000000   0.507880000000000 1
ion Cr   0.339350000000000   0.001160000000000   0.678910000000000 1
ion Cr   0.504160000000000   0.167170000000000   0.847290000000000 1
ion Cr   0.331210000000000   0.324510000000000   0.000370000000000 1
ion Cr   0.503120000000000   0.498700000000000   0.153910000000000 1
ion Cr   0.341560000000000   0.328360000000000   0.325950000000000 1
ion Cr   0.514500000000000   0.488700000000000   0.509420000000000 1
ion Cr   0.341040000000000   0.355650000000000   0.645590000000000 1
ion Cr   0.489540000000000   0.514670000000000   0.821770000000000 1
ion Cr   0.323880000000000   0.675270000000000   0.009200000000000 1
ion Cr   0.508780000000000   0.832480000000000   0.176460000000000 1
ion Cr   0.335400000000000   0.668230000000000   0.333330000000000 1
ion Cr   0.487370000000000   0.835940000000000   0.500810000000000 1
ion Cr   0.336450000000000   0.673070000000000   0.662270000000000 1
ion Cr   0.485590000000000   0.851050000000000   0.827460000000000 1
ion Cr   0.675280000000000   0.008270000000000   0.007750000000000 1
ion Cr   0.840350000000000   0.146770000000000   0.163570000000000 1
ion Cr   0.662090000000000  -0.010910000000000   0.334620000000000 1
ion Cr   0.838420000000000   0.177750000000000   0.500250000000000 1
ion Cr   0.645910000000000  -0.009350000000000   0.661500000000000 1
ion Cr   0.812290000000000   0.165810000000000   0.838400000000000 1
ion Cr   0.678970000000000   0.346340000000000  -0.007800000000000 1
ion Cr   0.829900000000000   0.515040000000000   0.185340000000000 1
ion Cr   0.663460000000000   0.337210000000000   0.340710000000000 1
ion Cr   0.816640000000000   0.494870000000000   0.495850000000000 1
ion Cr   0.661080000000000   0.328950000000000   0.663200000000000 1
ion Cr   0.820030000000000   0.507510000000000   0.838280000000000 1
ion Cr   0.686490000000000   0.662990000000000  -0.008140000000000 1
ion Cr   0.835060000000000   0.836100000000000   0.182530000000000 1
ion Cr   0.665880000000000   0.679200000000000   0.335400000000000 1
ion Cr   0.848590000000000   0.836120000000000   0.490490000000000 1
ion Cr   0.664150000000000   0.665720000000000   0.667940000000000 1
ion Cr   0.835700000000000   0.838750000000000   0.850780000000000 1
ion O   0.160000000000000   0.090000000000000   0.360000000000000 1

# Forces in Lattice coordinates:
force Cr   0.007075794685801  -0.104512344767711   0.107458183478228 0
force Cr  -0.016273309788400   0.247712857759372  -0.891577791345010 1
force Cr  -4.266100238889749  -2.388969454271200  -0.857664335709103 1
force Cr  -0.107573804442371   7.033841248292751  12.238693957258990 1
force Cr  -0.360087000709799   0.113181961114972   0.091515298506441 1
force Cr  -0.265172569136475   0.721154103171177   0.189683058729793 1
force Cr   0.034624801189926  -0.210302343654816  -0.207619631795033 1
force Cr   0.684814938700523  -0.222302840058666   0.019683507951069 1
force Cr  -0.639817808391555   0.808917511177300  -0.392678660323081 1
force Cr   0.109099585203805  -0.122301143150432  -0.188488225508842 1
force Cr   0.231203506967396   0.151151058302212   0.347882491197574 1
force Cr   0.002358108938096  -0.502305588975260   0.225855681193964 1
force Cr   0.016590977365597   0.358401951723109  -0.187633338926821 1
force Cr  -0.005203108080029  -0.021753987215241  -0.176943256603536 1
force Cr  -0.119766780689494  -0.229901551110940  -0.411918145969843 1
force Cr   0.410817069345676  -0.611910165003960   0.261080901786330 1
force Cr  -0.469180124275582  -0.125400120908150   0.102987617195980 1
force Cr  -0.040709473599533   0.287217516404682   0.051524441919829 1
force Cr   0.502800445603917   0.029672376544612  -0.176634917030428 1
force Cr   0.116980779845635  -0.376193093348023   0.328556086455598 1
force Cr   2.805744030921806  -1.458680043322920  -0.651030516592053 1
force Cr   0.175666371846934  -0.286415452468111  -0.176313700609722 1
force Cr  -0.407653838856851   0.165860320088761  -0.228917931573833 1
force Cr  -0.328497408437904   0.208102590864283  -0.331874880746756 1
force Cr   0.040025486282726   0.454424716892692  -0.268323210609274 1
force Cr  -0.176296377451644   0.215505315050762   0.277308063412773 1
force Cr   0.025671218356896   0.647214772701082  -0.027214536952984 1
force Cr  -0.569615678798926   0.632014643498899  -0.541139878969607 1
force Cr  -0.354847685317000  -0.525054876637494   0.700910186217294 1
force Cr   0.130016075127806  -0.209857537432924   0.399524536228604 1
force Cr   0.289662921058455  -0.298115329772003  -0.205529170489678 1
force Cr  -0.220682273821767   0.100568976504299  -0.323702319669012 1
force Cr  -0.011335116500395  -0.129691986421128   0.069608599609133 1
force Cr   0.340662093831429  -0.212857751239004   0.001799811345695 1
force Cr  -0.150220175073410   0.020585790772280   0.138442039514062 1
force Cr   0.422421628190945  -0.536669774464334   0.472209560809350 1
force Cr  -0.403723900748597  -0.301681062074295  -0.102384141283181 1
force Cr  -0.188830218756976   0.685179216329518   0.219978083054970 1
force Cr   0.113945586202987   0.547604877201689   0.068113077562236 1
force Cr  -0.409125651384093  -0.449015873802696   0.129751951158468 1
force Cr   0.713546120784607   0.232821179383337   0.146027803166493 1
force Cr   0.652805342016858   0.064692060855740  -0.246178680975556 1
force Cr  -0.398429455278481  -0.256522975743651   0.307624917330017 1
force Cr  -0.000639775478583  -0.428389426310606  -0.306801986320310 1
force Cr   0.229918472727622  -0.224797987101700  -0.448114229320858 1
force Cr   0.614772366208225   0.317697162535898   0.343412579889164 1
force Cr   0.103244054562506   0.030604997439343   0.368467165258946 1
force Cr   0.483969714935531  -0.174132379605577  -0.315378286702311 1
force Cr  -0.729150872144410   0.442139315047104   0.354107555744497 1
force Cr  -0.025817034076981  -0.240139477789388  -0.500448579326202 1
force Cr  -0.033633382577614  -0.405446664109059  -0.004106562680089 1
force Cr  -0.681084393901038  -0.109289929157920   0.751802736445423 1
force Cr   0.148807760807056   0.234867173379775  -0.043302062133103 1
force Cr  -0.089626821360407  -0.101775812087685  -0.478910556389620 1
force O   2.118365658938622  -3.548027254689844 -10.143433138767881 1

# Energy components:
   Eewald =    -3602.5007075534504111
       EH =     1002.5691465170638139
     Eloc =    -3125.7864847121177263
      Enl =      510.4063991153934694
      Exc =     -605.4682166559302914
 Exc_core =       40.2106132486936190
       KE =     1070.0800540688892397
-------------------------------------
     Etot =    -4710.4891959714586847
       TS =        0.4860463906066378
-------------------------------------
        F =    -4710.9752423620657282

IonicMinimize: Iter:   0  F: -4710.975242362065728  |grad|_K:  9.485e-02  t[s]:   3074.75

#--- Lowdin population analysis ---
# oxidation-state Cr +0.268 +0.264 +0.230 +0.200 +0.259 +0.279 +0.290 +0.270 +0.247 +0.255 +0.276 +0.276 +0.263 +0.252 +0.250 +0.250 +0.277 +0.272 +0.266 +0.274 +0.265 +0.246 +0.249 +0.281 +0.274 +0.286 +0.270 +0.253 +0.263 +0.277 +0.270 +0.271 +0.290 +0.243 +0.263 +0.272 +0.245 +0.276 +0.280 +0.270 +0.278 +0.269 +0.262 +0.276 +0.260 +0.276 +0.254 +0.240 +0.262 +0.269 +0.256 +0.261 +0.275 +0.269
# oxidation-state O -0.072


-------- Electronic minimization -----------
Will mix electronic density at each iteration.
	FillingsUpdate:  mu: +0.740384764  nElectrons: 762.000000
	FillingsUpdate:  mu: +0.740521763  nElectrons: 762.000000
SCF: Cycle:  0   F: -4701.965148586052237   dF: +8.605e+00   |Residual|: 1.200e+00   |deigs|: 1.717e-03  t[s]:   3233.22
	FillingsUpdate:  mu: +0.736947543  nElectrons: 762.000000
SCF: Cycle:  1   F: -4596.013173273790926   dF: +1.060e+02   |Residual|: 4.690e+00   |deigs|: 5.530e-02  t[s]:   3348.03
	FillingsUpdate:  mu: +0.743704595  nElectrons: 762.000000
SCF: Cycle:  2   F: -4707.346546480222969   dF: -1.113e+02   |Residual|: 9.951e-01   |deigs|: 4.889e-02  t[s]:   3462.78
	FillingsUpdate:  mu: +0.742494910  nElectrons: 762.000000
SCF: Cycle:  3   F: -4707.831227181109170   dF: -4.847e-01   |Residual|: 8.940e-01   |deigs|: 6.934e-03  t[s]:   3577.69
	FillingsUpdate:  mu: +0.740284931  nElectrons: 762.000000
SCF: Cycle:  4   F: -4710.805092676049753   dF: -2.974e+00   |Residual|: 3.109e-01   |deigs|: 4.929e-03  t[s]:   3692.47
	FillingsUpdate:  mu: +0.740187591  nElectrons: 762.000000
SCF: Cycle:  5   F: -4710.675352938729702   dF: +1.297e-01   |Residual|: 3.512e-01   |deigs|: 9.319e-04  t[s]:   3807.39
	FillingsUpdate:  mu: +0.740378389  nElectrons: 762.000000
SCF: Cycle:  6   F: -4711.058733516175380   dF: -3.834e-01   |Residual|: 1.222e-01   |deigs|: 1.063e-03  t[s]:   3921.63
	FillingsUpdate:  mu: +0.740389647  nElectrons: 762.000000
SCF: Cycle:  7   F: -4711.093568709487954   dF: -3.484e-02   |Residual|: 7.534e-02   |deigs|: 4.034e-04  t[s]:   4025.14
	FillingsUpdate:  mu: +0.740473582  nElectrons: 762.000000
SCF: Cycle:  8   F: -4711.088464089346417   dF: +5.105e-03   |Residual|: 8.319e-02   |deigs|: 2.229e-04  t[s]:   4128.72
	FillingsUpdate:  mu: +0.740451182  nElectrons: 762.000000
SCF: Cycle:  9   F: -4711.110024177177365   dF: -2.156e-02   |Residual|: 1.988e-02   |deigs|: 1.589e-04  t[s]:   4199.14
	FillingsUpdate:  mu: +0.740347632  nElectrons: 762.000000
SCF: Cycle: 10   F: -4711.109590256790398   dF: +4.339e-04   |Residual|: 2.299e-02   |deigs|: 1.334e-04  t[s]:   4269.45
	FillingsUpdate:  mu: +0.740263917  nElectrons: 762.000000
SCF: Cycle: 11   F: -4711.110989911122488   dF: -1.400e-03   |Residual|: 1.035e-02   |deigs|: 1.203e-04  t[s]:   4339.87
	FillingsUpdate:  mu: +0.740324839  nElectrons: 762.000000
SCF: Cycle: 12   F: -4711.110835288309318   dF: +1.546e-04   |Residual|: 1.141e-02   |deigs|: 7.707e-05  t[s]:   4410.22
	FillingsUpdate:  mu: +0.740328752  nElectrons: 762.000000
SCF: Cycle: 13   F: -4711.111339929650057   dF: -5.046e-04   |Residual|: 1.515e-03   |deigs|: 3.180e-05  t[s]:   4480.66
	FillingsUpdate:  mu: +0.740326319  nElectrons: 762.000000
SCF: Cycle: 14   F: -4711.111311570875841   dF: +2.836e-05   |Residual|: 2.971e-03   |deigs|: 1.010e-05  t[s]:   4551.07
	FillingsUpdate:  mu: +0.740324664  nElectrons: 762.000000
SCF: Cycle: 15   F: -4711.111344897974959   dF: -3.333e-05   |Residual|: 6.423e-04   |deigs|: 7.820e-06  t[s]:   4621.51
	FillingsUpdate:  mu: +0.740325438  nElectrons: 762.000000
SCF: Cycle: 16   F: -4711.111343052172742   dF: +1.846e-06   |Residual|: 9.753e-04   |deigs|: 2.774e-06  t[s]:   4691.95
	FillingsUpdate:  mu: +0.740325592  nElectrons: 762.000000
SCF: Cycle: 17   F: -4711.111344815911252   dF: -1.764e-06   |Residual|: 6.277e-04   |deigs|: 3.157e-06  t[s]:   4762.36
	FillingsUpdate:  mu: +0.740325663  nElectrons: 762.000000
SCF: Cycle: 18   F: -4711.111345754059585   dF: -9.381e-07   |Residual|: 4.444e-04   |deigs|: 2.001e-06  t[s]:   4832.75
	FillingsUpdate:  mu: +0.740325693  nElectrons: 762.000000
SCF: Cycle: 19   F: -4711.111346259275706   dF: -5.052e-07   |Residual|: 2.073e-04   |deigs|: 1.545e-06  t[s]:   4903.16
	FillingsUpdate:  mu: +0.740325251  nElectrons: 762.000000
SCF: Cycle: 20   F: -4711.111346367481929   dF: -1.082e-07   |Residual|: 1.254e-04   |deigs|: 7.744e-07  t[s]:   4973.51
	FillingsUpdate:  mu: +0.740325281  nElectrons: 762.000000
SCF: Cycle: 21   F: -4711.111346386263904   dF: -1.878e-08   |Residual|: 8.994e-05   |deigs|: 5.179e-07  t[s]:   5043.95
	FillingsUpdate:  mu: +0.740325312  nElectrons: 762.000000
SCF: Cycle: 22   F: -4711.111346398279238   dF: -1.202e-08   |Residual|: 7.542e-05   |deigs|: 3.300e-07  t[s]:   5114.33
	FillingsUpdate:  mu: +0.740325362  nElectrons: 762.000000
SCF: Cycle: 23   F: -4711.111346415899789   dF: -1.762e-08   |Residual|: 1.754e-05   |deigs|: 2.311e-07  t[s]:   5184.75
	FillingsUpdate:  mu: +0.740325374  nElectrons: 762.000000
SCF: Cycle: 24   F: -4711.111346414527361   dF: +1.372e-09   |Residual|: 2.926e-05   |deigs|: 2.138e-07  t[s]:   5255.31
	FillingsUpdate:  mu: +0.740325384  nElectrons: 762.000000
SCF: Cycle: 25   F: -4711.111346416597371   dF: -2.070e-09   |Residual|: 1.026e-05   |deigs|: 1.553e-07  t[s]:   5323.83
	FillingsUpdate:  mu: +0.740325373  nElectrons: 762.000000
SCF: Cycle: 26   F: -4711.111346417145796   dF: -5.484e-10   |Residual|: 6.859e-06   |deigs|: 1.041e-07  t[s]:   5376.17
SCF: Converged (|Delta E|<1.000000e-08 for 2 iters).

Setting wave functions to eigenvectors of Hamiltonian

# Ionic positions in lattice coordinates:
ion Cr   0.000000000000000   0.000000000000000   0.000000000000000 0
ion Cr   0.166522788794918   0.171809769201348   0.162794914403796 1
ion Cr   0.007859559510446  -0.005838625989022   0.338919942501142 1
ion Cr   0.152012330732016   0.169366911827728   0.497653342467473 1
ion Cr   0.004060434352738  -0.002399845584961   0.670940553249109 1
ion Cr   0.171932493862464   0.144499565607816   0.827774054409021 1
ion Cr  -0.002454656683517   0.341466808550378   0.007477997342680 1
ion Cr   0.143583462604130   0.503451490760588   0.169888722368984 1
ion Cr   0.004876477011043   0.323738456278617   0.343695991983946 1
ion Cr   0.163898345388461   0.503655804594364   0.503726475058402 1
ion Cr  -0.017027546600778   0.333196979692143   0.665814157452976 1
ion Cr   0.161591044950743   0.512077412913351   0.828740083612812 1
ion Cr  -0.001002648026625   0.660408818950126   0.013976853884992 1
ion Cr   0.167957694342459   0.827680360137845   0.172941590989919 1
ion Cr   0.003016927648475   0.672208123537541   0.351707466374928 1
ion Cr   0.161372045704086   0.844098843747892   0.506575692993635 1
ion Cr   0.011922091827628   0.670054431341815   0.670075636987077 1
ion Cr   0.165131960377654   0.822787274933057   0.836722832068107 1
ion Cr   0.318692806372872  -0.002516851255503   0.015121727624687 1
ion Cr   0.498931837788691   0.180473297246728   0.157865593327429 1
ion Cr   0.334833311648195   0.013443613918852   0.349791508314483 1
ion Cr   0.494367843183094   0.174103080486191   0.507801869965582 1
ion Cr   0.339169356020829   0.001233497819355   0.678808559409672 1
ion Cr   0.504014432674609   0.167262216671368   0.847142936012541 1
ion Cr   0.331227736526487   0.324711369596625   0.000251097716130 1
ion Cr   0.503041877642007   0.498795497046594   0.154032883749045 1
ion Cr   0.341571375707996   0.328646800811804   0.325937940399972 1
ion Cr   0.514247585738171   0.488980065166114   0.509180204242650 1
ion Cr   0.340882756054855   0.355417332002895   0.645900594904331 1
ion Cr   0.489597614129756   0.514577005657723   0.821947041634646 1
ion Cr   0.324008358567222   0.675137895909988   0.009108923690509 1
ion Cr   0.508682208883430   0.832524565212848   0.176316557526219 1
ion Cr   0.335394977060550   0.668172529483938   0.333360845715701 1
ion Cr   0.487520957872383   0.835845676170525   0.500810797551874 1
ion Cr   0.336383432810904   0.673079122198309   0.662331347934249 1
ion Cr   0.485777188041743   0.850812185083717   0.827669250609062 1
ion Cr   0.675101097497518   0.008136315824115   0.007704630431698 1
ion Cr   0.840266323510654   0.147073624026773   0.163667479067939 1
ion Cr   0.662140492800849  -0.010667339402693   0.334650183003793 1
ion Cr   0.838238703815339   0.177551027228439   0.500307497088285 1
ion Cr   0.646226194276355  -0.009246829760276   0.661564709419903 1
ion Cr   0.812579278165359   0.165838667045861   0.838290910639666 1
ion Cr   0.678793443629471   0.346226326763861  -0.007663681918672 1
ion Cr   0.829899716495769   0.514850167442994   0.185204046584764 1
ion Cr   0.663561883960948   0.337110385084037   0.340511426774896 1
ion Cr   0.816912424581669   0.495010781403587   0.496002176697520 1
ion Cr   0.661125750622377   0.328963562017558   0.663363279156436 1
ion Cr   0.820244461895783   0.507432836576143   0.838140246161758 1
ion Cr   0.686166890777406   0.663185925556453  -0.007983084029078 1
ion Cr   0.835048559676565   0.835993586796715   0.182308235811556 1
ion Cr   0.665865096011658   0.679020334087981   0.335398180255519 1
ion Cr   0.848288190515240   0.836071570264267   0.490823146961756 1
ion Cr   0.664215941304807   0.665824076882717   0.667920811521775 1
ion Cr   0.835660283593314   0.838704900001113   0.850567779973283 1
ion O   0.160938713107778   0.088427759779490   0.355505132173452 1

# Forces in Lattice coordinates:
force Cr   0.003199447404143  -0.104521286230775   0.105508473812348 0
force Cr  -0.023995826089238   0.255884420758867  -0.949350087747070 1
force Cr  -3.836261638267807  -1.979191978365392  -0.614277255370085 1
force Cr   0.085647924657613   4.407788628719826   7.987566890025923 1
force Cr  -0.355575702280070   0.111300161049894   0.075070025609249 1
force Cr  -0.258076781544096   0.715948961806951   0.192574468519638 1
force Cr   0.027227730938731  -0.202316381471241  -0.214434075960212 1
force Cr   0.677977265087808  -0.219126407326999   0.020265110073913 1
force Cr  -0.560648522783511   0.715903911924497  -0.353318560145429 1
force Cr   0.108746892449318  -0.105049441435654  -0.181663045831286 1
force Cr   0.233091833961699   0.151548725072048   0.346921870378818 1
force Cr   0.004072425660190  -0.491470581916861   0.224558006496620 1
force Cr   0.015349202808406   0.351324069988142  -0.187467865023227 1
force Cr  -0.006668369890086  -0.030078330855465  -0.175954349786404 1
force Cr  -0.119723760741516  -0.234597115243320  -0.406716226771758 1
force Cr   0.400093765848814  -0.566262370714759   0.247872321022916 1
force Cr  -0.459752991850235  -0.122798188142109   0.099090074796780 1
force Cr  -0.038668183830786   0.284175734554825   0.054063567715950 1
force Cr   0.499595516378690   0.029935559508676  -0.182525725000943 1
force Cr   0.114218976716360  -0.369627028426113   0.326225167236581 1
force Cr   2.660930752333408  -1.327965652662487  -0.526984676167856 1
force Cr   0.173890049599070  -0.284719151424352  -0.177913334203124 1
force Cr  -0.399729740163742   0.160372309123063  -0.226458787350028 1
force Cr  -0.323581414191386   0.202927011271146  -0.326802686958626 1
force Cr   0.049203296260023   0.458449418522726  -0.274958320791235 1
force Cr  -0.173212089840205   0.209366350004323   0.275926510700955 1
force Cr  -0.010333240646699   0.615259086909632  -0.009797088891505 1
force Cr  -0.554002443643210   0.617740295438636  -0.534076181393981 1
force Cr  -0.356421330631683  -0.523551585713967   0.700690101624216 1
force Cr   0.134019682704439  -0.203475371916720   0.394630149709723 1
force Cr   0.287497282059539  -0.295691241997460  -0.205335593876312 1
force Cr  -0.220428603245448   0.100141736688781  -0.317557997515372 1
force Cr  -0.014519059838606  -0.126523781225098   0.069866623602504 1
force Cr   0.346253093648648  -0.214384024242990   0.011525360270446 1
force Cr  -0.149295228703052   0.018061670325276   0.139727072452247 1
force Cr   0.413860707410411  -0.526738026327633   0.464238319422257 1
force Cr  -0.398360752101960  -0.296270600177611  -0.103357272120226 1
force Cr  -0.192568612499754   0.680615828024431   0.216064832066593 1
force Cr   0.123314663111234   0.533133412376049   0.065961647512855 1
force Cr  -0.408297925802446  -0.441498972439097   0.119880128624911 1
force Cr   0.703344793400937   0.232031875641170   0.147961732312842 1
force Cr   0.644890322730965   0.063910635917249  -0.238569205058347 1
force Cr  -0.391715928174329  -0.250968745751068   0.303012698424503 1
force Cr  -0.000007593319417  -0.423787136141276  -0.309973126372258 1
force Cr   0.224765451102559  -0.217401506576064  -0.436467751026716 1
force Cr   0.603094017499316   0.311243898312615   0.338906580665405 1
force Cr   0.097349304745171   0.035265887991918   0.355737766229398 1
force Cr   0.467202347114716  -0.167638142560990  -0.302042279680349 1
force Cr  -0.718134804566075   0.429795862548996   0.345101481895810 1
force Cr  -0.029372361686789  -0.242691201647721  -0.497054123708194 1
force Cr  -0.032321869440430  -0.396888633898399  -0.005310945469423 1
force Cr  -0.677121020961215  -0.118062491726855   0.752821144824935 1
force Cr   0.144884207876376   0.225759529015972  -0.042535857985166 1
force Cr  -0.089058629430105  -0.100643547707839  -0.473544099762506 1
force O   1.588045744947618  -1.408168717591281  -6.201555677459513 1

# Energy components:
   Eewald =    -3605.9662150648741772
       EH =      999.4510782673124822
     Eloc =    -3118.9594696904528064
      Enl =      510.2642314533761692
      Exc =     -605.3651731114991890
 Exc_core =       40.2106062807957443
       KE =     1069.7376189856004203
-------------------------------------
     Etot =    -4710.6273228797417687
       TS =        0.4840235374042976
-------------------------------------
        F =    -4711.1113464171457963

IonicMinimize: Iter:   1  F: -4711.111346417145796  |grad|_K:  6.443e-02  alpha:  1.132e-01  linmin: -9.849e-01  t[s]:   5403.33

#--- Lowdin population analysis ---
# oxidation-state Cr +0.267 +0.278 +0.253 +0.244 +0.258 +0.281 +0.289 +0.269 +0.253 +0.257 +0.274 +0.276 +0.264 +0.252 +0.250 +0.254 +0.277 +0.273 +0.265 +0.273 +0.283 +0.246 +0.250 +0.281 +0.273 +0.286 +0.274 +0.253 +0.263 +0.277 +0.270 +0.270 +0.289 +0.242 +0.263 +0.272 +0.246 +0.275 +0.281 +0.271 +0.277 +0.270 +0.262 +0.276 +0.261 +0.276 +0.254 +0.240 +0.263 +0.268 +0.256 +0.259 +0.275 +0.270
# oxidation-state O -0.188


-------- Electronic minimization -----------
Will mix electronic density at each iteration.
	FillingsUpdate:  mu: +0.740325373  nElectrons: 762.000000
	FillingsUpdate:  mu: +0.740237187  nElectrons: 762.000000
SCF: Cycle:  0   F: -4691.129160596255133   dF: +1.926e+01   |Residual|: 1.685e+00   |deigs|: 2.436e-03  t[s]:   5561.61
	FillingsUpdate:  mu: +0.740528013  nElectrons: 762.000000
SCF: Cycle:  1   F: -4513.352543286133368   dF: +1.778e+02   |Residual|: 6.239e+00   |deigs|: 8.210e-02  t[s]:   5676.38
	FillingsUpdate:  mu: +0.746161850  nElectrons: 762.000000
SCF: Cycle:  2   F: -4703.002498100266166   dF: -1.896e+02   |Residual|: 1.454e+00   |deigs|: 7.390e-02  t[s]:   5791.24
	FillingsUpdate:  mu: +0.744643258  nElectrons: 762.000000
SCF: Cycle:  3   F: -4706.896544270667619   dF: -3.894e+00   |Residual|: 1.051e+00   |deigs|: 8.504e-03  t[s]:   5906.04
	FillingsUpdate:  mu: +0.739917013  nElectrons: 762.000000
SCF: Cycle:  4   F: -4710.583975494624610   dF: -3.687e+00   |Residual|: 4.220e-01   |deigs|: 7.811e-03  t[s]:   6020.85
	FillingsUpdate:  mu: +0.740000347  nElectrons: 762.000000
SCF: Cycle:  5   F: -4710.177216647644855   dF: +4.068e-01   |Residual|: 5.391e-01   |deigs|: 9.163e-04  t[s]:   6135.71
	FillingsUpdate:  mu: +0.740704689  nElectrons: 762.000000
SCF: Cycle:  6   F: -4711.097037583619567   dF: -9.198e-01   |Residual|: 1.913e-01   |deigs|: 1.896e-03  t[s]:   6250.39
	FillingsUpdate:  mu: +0.740625321  nElectrons: 762.000000
SCF: Cycle:  7   F: -4711.197856007534938   dF: -1.008e-01   |Residual|: 9.061e-02   |deigs|: 4.331e-04  t[s]:   6354.07
	FillingsUpdate:  mu: +0.740362974  nElectrons: 762.000000
SCF: Cycle:  8   F: -4711.158515068031193   dF: +3.934e-02   |Residual|: 1.349e-01   |deigs|: 4.011e-04  t[s]:   6453.77
	FillingsUpdate:  mu: +0.740299218  nElectrons: 762.000000
SCF: Cycle:  9   F: -4711.218945916429220   dF: -6.043e-02   |Residual|: 2.202e-02   |deigs|: 2.682e-04  t[s]:   6549.34
	FillingsUpdate:  mu: +0.740300808  nElectrons: 762.000000
SCF: Cycle: 10   F: -4711.214128576757503   dF: +4.817e-03   |Residual|: 4.144e-02   |deigs|: 8.519e-05  t[s]:   6619.70
	FillingsUpdate:  mu: +0.740306548  nElectrons: 762.000000
SCF: Cycle: 11   F: -4711.220109654645967   dF: -5.981e-03   |Residual|: 6.054e-03   |deigs|: 9.741e-05  t[s]:   6690.14
	FillingsUpdate:  mu: +0.740305784  nElectrons: 762.000000
SCF: Cycle: 12   F: -4711.219784083153172   dF: +3.256e-04   |Residual|: 1.093e-02   |deigs|: 2.787e-05  t[s]:   6760.58
	FillingsUpdate:  mu: +0.740301920  nElectrons: 762.000000
SCF: Cycle: 13   F: -4711.220205070873817   dF: -4.210e-04   |Residual|: 2.066e-03   |deigs|: 2.439e-05  t[s]:   6830.94
	FillingsUpdate:  mu: +0.740298476  nElectrons: 762.000000
SCF: Cycle: 14   F: -4711.220182118960111   dF: +2.295e-05   |Residual|: 3.089e-03   |deigs|: 9.664e-06  t[s]:   6901.27
	FillingsUpdate:  mu: +0.740295777  nElectrons: 762.000000
SCF: Cycle: 15   F: -4711.220216015786718   dF: -3.390e-05   |Residual|: 9.027e-04   |deigs|: 7.316e-06  t[s]:   6971.70
	FillingsUpdate:  mu: +0.740296158  nElectrons: 762.000000
SCF: Cycle: 16   F: -4711.220217387654884   dF: -1.372e-06   |Residual|: 7.451e-04   |deigs|: 3.743e-06  t[s]:   7042.05
	FillingsUpdate:  mu: +0.740297768  nElectrons: 762.000000
SCF: Cycle: 17   F: -4711.220218603359172   dF: -1.216e-06   |Residual|: 4.358e-04   |deigs|: 2.650e-06  t[s]:   7112.46
	FillingsUpdate:  mu: +0.740297663  nElectrons: 762.000000
SCF: Cycle: 18   F: -4711.220218234619097   dF: +3.687e-07   |Residual|: 5.948e-04   |deigs|: 2.433e-06  t[s]:   7182.82
	FillingsUpdate:  mu: +0.740297864  nElectrons: 762.000000
SCF: Cycle: 19   F: -4711.220219200870815   dF: -9.663e-07   |Residual|: 3.134e-04   |deigs|: 8.506e-07  t[s]:   7253.23
	FillingsUpdate:  mu: +0.740297751  nElectrons: 762.000000
SCF: Cycle: 20   F: -4711.220219441660447   dF: -2.408e-07   |Residual|: 1.453e-04   |deigs|: 7.212e-07  t[s]:   7323.59
	FillingsUpdate:  mu: +0.740297562  nElectrons: 762.000000
SCF: Cycle: 21   F: -4711.220219446883675   dF: -5.223e-09   |Residual|: 1.411e-04   |deigs|: 4.566e-07  t[s]:   7393.89
	FillingsUpdate:  mu: +0.740297483  nElectrons: 762.000000
SCF: Cycle: 22   F: -4711.220219498808547   dF: -5.192e-08   |Residual|: 5.812e-05   |deigs|: 3.194e-07  t[s]:   7464.25
	FillingsUpdate:  mu: +0.740297454  nElectrons: 762.000000
SCF: Cycle: 23   F: -4711.220219508833907   dF: -1.003e-08   |Residual|: 2.768e-05   |deigs|: 3.372e-07  t[s]:   7534.54
	FillingsUpdate:  mu: +0.740297561  nElectrons: 762.000000
SCF: Cycle: 24   F: -4711.220219509116760   dF: -2.829e-10   |Residual|: 2.314e-05   |deigs|: 2.417e-07  t[s]:   7604.97
	FillingsUpdate:  mu: +0.740297568  nElectrons: 762.000000
SCF: Cycle: 25   F: -4711.220219510413699   dF: -1.297e-09   |Residual|: 1.052e-05   |deigs|: 1.527e-07  t[s]:   7671.68
SCF: Converged (|Delta E|<1.000000e-08 for 2 iters).

Setting wave functions to eigenvectors of Hamiltonian

# Ionic positions in lattice coordinates:
ion Cr   0.000000000000000   0.000000000000000   0.000000000000000 0
ion Cr   0.166493311185477   0.172077721046745   0.161783623873112 1
ion Cr   0.004187797935358  -0.007615371433312   0.338441168423980 1
ion Cr   0.152221140666492   0.172252313146216   0.503199594613108 1
ion Cr   0.003698012083392  -0.002286696085244   0.671007380123929 1
ion Cr   0.171671837653163   0.145231725432300   0.827973672964562 1
ion Cr  -0.002431314496056   0.341263985492551   0.007253471525718 1
ion Cr   0.144275597396513   0.503228392936717   0.169909902178924 1
ion Cr   0.004350094381560   0.324415657846757   0.343357681306377 1
ion Cr   0.164009828442708   0.503558687501703   0.503544140972229 1
ion Cr  -0.016786936340916   0.333352897564703   0.666169911056324 1
ion Cr   0.161596300168443   0.511579355515467   0.828969935617673 1
ion Cr  -0.000987658051273   0.660765268948438   0.013784392432246 1
ion Cr   0.167949928348554   0.827644258286935   0.172761471036472 1
ion Cr   0.002893975618295   0.671964211532752   0.351292945007312 1
ion Cr   0.161776311694328   0.843545731603400   0.506822044590862 1
ion Cr   0.011455733960356   0.669929921537726   0.670174983853626 1
ion Cr   0.165093517386502   0.823077274917405   0.836779953441715 1
ion Cr   0.319203981167077  -0.002485937192939   0.014930555321684 1
ion Cr   0.499047435144268   0.180097726580113   0.158199230573312 1
ion Cr   0.337476029944687   0.012161285850579   0.349327768864256 1
ion Cr   0.494545350291172   0.173811680898828   0.507618118992722 1
ion Cr   0.338763713440370   0.001394798507537   0.678577481281277 1
ion Cr   0.503685127667845   0.167467424464981   0.846810419830836 1
ion Cr   0.331284017056511   0.325184800699551  -0.000035485792452 1
ion Cr   0.502865884877230   0.499006716794635   0.154315448463667 1
ion Cr   0.341538245733522   0.329258804355605   0.325938769129833 1
ion Cr   0.513688284415466   0.489605674598440   0.508636024410818 1
ion Cr   0.340515659879079   0.354880485659001   0.646620198454980 1
ion Cr   0.489737781376969   0.514371989145805   0.822349340635470 1
ion Cr   0.324302318314252   0.674835681041007   0.008898126277104 1
ion Cr   0.508455945676852   0.832627162526710   0.175994207855283 1
ion Cr   0.335378072127752   0.668044546916191   0.333432773302877 1
ion Cr   0.487880121643389   0.835624508781937   0.500828718254085 1
ion Cr   0.336230656815708   0.673096096461469   0.662475677659129 1
ion Cr   0.486196947553010   0.850277336491095   0.828141126213013 1
ion Cr   0.674695259608391   0.007835373406560   0.007597854417992 1
ion Cr   0.840066181299654   0.147769891371294   0.163886971297928 1
ion Cr   0.662273019324470  -0.010128760501296   0.334716592663887 1
ion Cr   0.837819822293913   0.177102225105653   0.500424463188410 1
ion Cr   0.646942282817682  -0.009008982763700   0.661717903491381 1
ion Cr   0.813236752683727   0.165903826677064   0.838050613639478 1
ion Cr   0.678395275704532   0.345972007820981  -0.007355314901782 1
ion Cr   0.829900104038037   0.514417736040024   0.184883662483833 1
ion Cr   0.663789538067173   0.336891698112431   0.340070375143729 1
ion Cr   0.817524612954675   0.495326452100804   0.496347479941989 1
ion Cr   0.661222060413482   0.329002701489687   0.663720728616805 1
ion Cr   0.820713881362373   0.507264701758097   0.837838331464872 1
ion Cr   0.685436119605628   0.663619688036536  -0.007634231621040 1
ion Cr   0.835016165345885   0.835742701309211   0.181799790030420 1
ion Cr   0.665832715511187   0.678618006296722   0.335391971736637 1
ion Cr   0.847595137771996   0.835944811750234   0.491597073453046 1
ion Cr   0.664362311136336   0.666050279028190   0.667877598309407 1
ion Cr   0.835569158871551   0.838602228127318   0.850084716643189 1
ion O   0.162238294898660   0.088319488317060   0.351600058514826 1

# Forces in Lattice coordinates:
force Cr  -0.003089518910972  -0.100841538983954   0.100987715948651 0
force Cr  -0.029638528245822   0.252674101883021  -0.992272616372694 1
force Cr  -2.980645283078536  -1.366145540875596  -0.392922379969074 1
force Cr   0.188121391392889   2.721933804213012   5.240525381018248 1
force Cr  -0.344508145949753   0.105944697032136   0.061684560156736 1
force Cr  -0.247156087159760   0.699690458922962   0.200824466625562 1
force Cr   0.019365119259637  -0.191842734007850  -0.218713068536477 1
force Cr   0.661674238707964  -0.209133262822119   0.018922679252901 1
force Cr  -0.491359637567648   0.629965987596953  -0.315832365507431 1
force Cr   0.105913557087259  -0.085072722040578  -0.170909527999183 1
force Cr   0.235060167238816   0.148511735867030   0.333746185658006 1
force Cr   0.007199748400858  -0.470005208322124   0.218847068172698 1
force Cr   0.013444204857733   0.334988236446125  -0.186314987606112 1
force Cr  -0.010235480117869  -0.023844248993003  -0.158757073657092 1
force Cr  -0.115288689775851  -0.244864099118461  -0.392113360029025 1
force Cr   0.373387060799084  -0.501275704481261   0.210411655536198 1
force Cr  -0.439007585046427  -0.117671500754379   0.092206806124682 1
force Cr  -0.034510593815228   0.276931112196788   0.054789250022674 1
force Cr   0.485149770649003   0.030597909013644  -0.190404777613690 1
force Cr   0.114302675664929  -0.351700556420115   0.316871495827821 1
force Cr   2.296659111457926  -1.129387151646146  -0.426200277366581 1
force Cr   0.173268425480522  -0.273913626040369  -0.173229869077721 1
force Cr  -0.379018615291827   0.149301880151896  -0.211637997539769 1
force Cr  -0.310887794658192   0.190254425482233  -0.317064980045910 1
force Cr   0.054218260260049   0.453290547228590  -0.270038383056501 1
force Cr  -0.167463998227047   0.196598323674437   0.271035364201156 1
force Cr  -0.039848025547006   0.574681686576460   0.004569285105473 1
force Cr  -0.524863193821103   0.585110965846987  -0.512627309053752 1
force Cr  -0.345454671939345  -0.509302177108065   0.693367021281508 1
force Cr   0.138758384817694  -0.195371539053488   0.378082361844973 1
force Cr   0.281354821043406  -0.288144797582258  -0.203261584797452 1
force Cr  -0.215922526112368   0.095492102381236  -0.307358296263786 1
force Cr  -0.019934912399359  -0.119904265373768   0.067255258754408 1
force Cr   0.349431953054172  -0.209296483873809   0.024427034540041 1
force Cr  -0.145886590023940   0.012091993946724   0.142481007135145 1
force Cr   0.395678584842213  -0.505598810399951   0.444868018886900 1
force Cr  -0.385225325200169  -0.282120533812957  -0.105068846690999 1
force Cr  -0.200136303695301   0.670804189899210   0.204260313859771 1
force Cr   0.130827955154896   0.505915372561235   0.061387025219394 1
force Cr  -0.396400253299449  -0.421177097281795   0.109571741769092 1
force Cr   0.679167269967293   0.229973111371558   0.153892420790099 1
force Cr   0.627041244594917   0.062569853822561  -0.223879985095431 1
force Cr  -0.376214655599161  -0.240635838715397   0.292591568148213 1
force Cr   0.003492413211816  -0.413382611579707  -0.314689984361202 1
force Cr   0.213047454646500  -0.202188481292582  -0.410877477574344 1
force Cr   0.574986621579335   0.296877177221757   0.327253954155412 1
force Cr   0.087699905467506   0.045246488150885   0.329898760998481 1
force Cr   0.433476261715588  -0.156145487997866  -0.275588840029924 1
force Cr  -0.694983035867202   0.403852484596438   0.327224847038520 1
force Cr  -0.033903524520730  -0.238745853112177  -0.482075645657875 1
force Cr  -0.029767105478697  -0.378595918166297  -0.006700668558173 1
force Cr  -0.655981164888161  -0.124153964632644   0.737527966822823 1
force Cr   0.135901254960418   0.205231853899049  -0.038400910746322 1
force Cr  -0.089751260234374  -0.100356926921744  -0.458705973311858 1
force O   0.926048771411993  -0.478005466544523  -3.779950140627499 1

# Energy components:
   Eewald =    -3610.4140679796678342
       EH =      995.2914352671735969
     Eloc =    -3110.0744753789699644
      Enl =      510.1430081742250877
      Exc =     -605.2525125120724852
 Exc_core =       40.2106646051527576
       KE =     1069.3569777419070306
-------------------------------------
     Etot =    -4710.7389700822523082
       TS =        0.4812494281613314
-------------------------------------
        F =    -4711.2202195104136990

IonicMinimize: Iter:   2  F: -4711.220219510413699  |grad|_K:  4.510e-02  alpha:  4.595e-01  linmin: -9.966e-01  t[s]:   7698.86

#--- Lowdin population analysis ---
# oxidation-state Cr +0.267 +0.292 +0.275 +0.278 +0.258 +0.282 +0.288 +0.270 +0.259 +0.258 +0.272 +0.277 +0.265 +0.254 +0.251 +0.258 +0.277 +0.273 +0.264 +0.272 +0.299 +0.246 +0.250 +0.281 +0.271 +0.285 +0.278 +0.255 +0.263 +0.277 +0.271 +0.269 +0.289 +0.241 +0.263 +0.273 +0.247 +0.274 +0.282 +0.270 +0.278 +0.270 +0.263 +0.276 +0.262 +0.277 +0.255 +0.241 +0.263 +0.267 +0.257 +0.258 +0.275 +0.270
# oxidation-state O -0.288


-------- Electronic minimization -----------
Will mix electronic density at each iteration.
	FillingsUpdate:  mu: +0.740297568  nElectrons: 762.000000
	FillingsUpdate:  mu: +0.739414626  nElectrons: 762.000000
SCF: Cycle:  0   F: -4673.882436479524586   dF: +3.611e+01   |Residual|: 2.252e+00   |deigs|: 3.615e-03  t[s]:   7857.27
	FillingsUpdate:  mu: +0.742550691  nElectrons: 762.000000
SCF: Cycle:  1   F: -4420.105266016107635   dF: +2.538e+02   |Residual|: 7.601e+00   |deigs|: 1.112e-01  t[s]:   7972.09
	FillingsUpdate:  mu: +0.749356042  nElectrons: 762.000000
SCF: Cycle:  2   F: -4687.392968249733713   dF: -2.673e+02   |Residual|: 2.407e+00   |deigs|: 9.923e-02  t[s]:   8086.97
	FillingsUpdate:  mu: +0.749002343  nElectrons: 762.000000
SCF: Cycle:  3   F: -4706.704838820360237   dF: -1.931e+01   |Residual|: 1.149e+00   |deigs|: 1.654e-02  t[s]:   8201.89
	FillingsUpdate:  mu: +0.740141331  nElectrons: 762.000000
SCF: Cycle:  4   F: -4708.218342050808133   dF: -1.514e+00   |Residual|: 9.037e-01   |deigs|: 1.174e-02  t[s]:   8316.79
	FillingsUpdate:  mu: +0.739862583  nElectrons: 762.000000
SCF: Cycle:  5   F: -4709.900503163516078   dF: -1.682e+00   |Residual|: 6.209e-01   |deigs|: 4.141e-03  t[s]:   8431.75
	FillingsUpdate:  mu: +0.741126085  nElectrons: 762.000000
SCF: Cycle:  6   F: -4710.884641411900702   dF: -9.841e-01   |Residual|: 3.525e-01   |deigs|: 2.807e-03  t[s]:   8546.57
	FillingsUpdate:  mu: +0.741041403  nElectrons: 762.000000
SCF: Cycle:  7   F: -4711.280843008716147   dF: -3.962e-01   |Residual|: 1.178e-01   |deigs|: 1.058e-03  t[s]:   8659.86
	FillingsUpdate:  mu: +0.740476285  nElectrons: 762.000000
SCF: Cycle:  8   F: -4711.196157869907438   dF: +8.469e-02   |Residual|: 1.920e-01   |deigs|: 7.746e-04  t[s]:   8763.55
	FillingsUpdate:  mu: +0.740266441  nElectrons: 762.000000
SCF: Cycle:  9   F: -4711.306978848248036   dF: -1.108e-01   |Residual|: 4.576e-02   |deigs|: 4.845e-04  t[s]:   8866.80
	FillingsUpdate:  mu: +0.740334983  nElectrons: 762.000000
SCF: Cycle: 10   F: -4711.294450974719439   dF: +1.253e-02   |Residual|: 7.164e-02   |deigs|: 2.291e-04  t[s]:   8970.48
	FillingsUpdate:  mu: +0.740329431  nElectrons: 762.000000
SCF: Cycle: 11   F: -4711.312609667450488   dF: -1.816e-02   |Residual|: 1.302e-02   |deigs|: 1.878e-04  t[s]:   9040.81
	FillingsUpdate:  mu: +0.740326261  nElectrons: 762.000000
SCF: Cycle: 12   F: -4711.311436551876795   dF: +1.173e-03   |Residual|: 2.161e-02   |deigs|: 6.178e-05  t[s]:   9111.18
	FillingsUpdate:  mu: +0.740322725  nElectrons: 762.000000
SCF: Cycle: 13   F: -4711.313058839738005   dF: -1.622e-03   |Residual|: 4.370e-03   |deigs|: 3.854e-05  t[s]:   9181.54
	FillingsUpdate:  mu: +0.740316305  nElectrons: 762.000000
SCF: Cycle: 14   F: -4711.312873483796466   dF: +1.854e-04   |Residual|: 7.776e-03   |deigs|: 2.378e-05  t[s]:   9251.99
	FillingsUpdate:  mu: +0.740305645  nElectrons: 762.000000
SCF: Cycle: 15   F: -4711.313114956265963   dF: -2.415e-04   |Residual|: 1.424e-03   |deigs|: 1.632e-05  t[s]:   9322.36
	FillingsUpdate:  mu: +0.740305413  nElectrons: 762.000000
SCF: Cycle: 16   F: -4711.313103024337579   dF: +1.193e-05   |Residual|: 2.347e-03   |deigs|: 4.944e-06  t[s]:   9392.78
	FillingsUpdate:  mu: +0.740309316  nElectrons: 762.000000
SCF: Cycle: 17   F: -4711.313120039017122   dF: -1.701e-05   |Residual|: 6.603e-04   |deigs|: 6.527e-06  t[s]:   9463.19
	FillingsUpdate:  mu: +0.740309423  nElectrons: 762.000000
SCF: Cycle: 18   F: -4711.313120555650130   dF: -5.166e-07   |Residual|: 5.960e-04   |deigs|: 1.927e-06  t[s]:   9533.56
	FillingsUpdate:  mu: +0.740309538  nElectrons: 762.000000
SCF: Cycle: 19   F: -4711.313119783986622   dF: +7.717e-07   |Residual|: 7.690e-04   |deigs|: 2.051e-06  t[s]:   9603.93
	FillingsUpdate:  mu: +0.740309148  nElectrons: 762.000000
SCF: Cycle: 20   F: -4711.313121397337454   dF: -1.613e-06   |Residual|: 3.209e-04   |deigs|: 1.375e-06  t[s]:   9674.28
	FillingsUpdate:  mu: +0.740308743  nElectrons: 762.000000
SCF: Cycle: 21   F: -4711.313121649800451   dF: -2.525e-07   |Residual|: 1.893e-04   |deigs|: 6.577e-07  t[s]:   9744.97
	FillingsUpdate:  mu: +0.740308826  nElectrons: 762.000000
SCF: Cycle: 22   F: -4711.313121746627985   dF: -9.683e-08   |Residual|: 9.070e-05   |deigs|: 4.119e-07  t[s]:   9815.32
	FillingsUpdate:  mu: +0.740308999  nElectrons: 762.000000
SCF: Cycle: 23   F: -4711.313121746678007   dF: -5.002e-11   |Residual|: 8.930e-05   |deigs|: 3.169e-07  t[s]:   9885.69
	FillingsUpdate:  mu: +0.740309022  nElectrons: 762.000000
SCF: Cycle: 24   F: -4711.313121772698651   dF: -2.602e-08   |Residual|: 2.569e-05   |deigs|: 1.597e-07  t[s]:   9956.07
	FillingsUpdate:  mu: +0.740308969  nElectrons: 762.000000
SCF: Cycle: 25   F: -4711.313121768580459   dF: +4.118e-09   |Residual|: 4.160e-05   |deigs|: 1.300e-07  t[s]:  10026.47
	FillingsUpdate:  mu: +0.740308978  nElectrons: 762.000000
SCF: Cycle: 26   F: -4711.313121774107458   dF: -5.527e-09   |Residual|: 1.912e-05   |deigs|: 8.480e-08  t[s]:  10096.83
	FillingsUpdate:  mu: +0.740308958  nElectrons: 762.000000
SCF: Cycle: 27   F: -4711.313121774493993   dF: -3.865e-10   |Residual|: 1.384e-05   |deigs|: 5.432e-08  t[s]:  10156.97
SCF: Converged (|Delta E|<1.000000e-08 for 2 iters).

Setting wave functions to eigenvectors of Hamiltonian

# Ionic positions in lattice coordinates:
ion Cr   0.000000000000000   0.000000000000000   0.000000000000000 0
ion Cr   0.166430428709078   0.172547524001310   0.159882549361873 1
ion Cr  -0.000464847684585  -0.009477618959079   0.337995575440486 1
ion Cr   0.152735823545768   0.174815476577731   0.508882494399094 1
ion Cr   0.003069559318949  -0.002095230536875   0.671103975594752 1
ion Cr   0.171225041502190   0.146514847658835   0.828354331759385 1
ion Cr  -0.002404918850730   0.340919860957996   0.006841177913288 1
ion Cr   0.145487434411277   0.502849743131661   0.169944175598897 1
ion Cr   0.003528223856826   0.325475333443732   0.342818766341591 1
ion Cr   0.164203939212838   0.503424393670889   0.503238601220187 1
ion Cr  -0.016348278598889   0.333626220304792   0.666778183641216 1
ion Cr   0.161612936704117   0.510729142199029   0.829370897842478 1
ion Cr  -0.000964785210341   0.661370674104681   0.013439615541088 1
ion Cr   0.167927405602538   0.827601541677978   0.172481249911044 1
ion Cr   0.002683637573259   0.671499409980828   0.350579312146064 1
ion Cr   0.162442990391897   0.842687707217826   0.507176443667734 1
ion Cr   0.010661865263143   0.669716811844887   0.670338852518315 1
ion Cr   0.165033720507860   0.823584046689523   0.836883307879428 1
ion Cr   0.320091258876119  -0.002428498891944   0.014568261696022 1
ion Cr   0.499258465980594   0.179462381962302   0.158778713839807 1
ion Cr   0.341380367375554   0.010282441169981   0.348671541730416 1
ion Cr   0.494865661567262   0.173312836092925   0.507299750747050 1
ion Cr   0.338080512693900   0.001660546588155   0.678197807811804 1
ion Cr   0.503120567248896   0.167808005798622   0.846232055267192 1
ion Cr   0.331392625128090   0.326023582916871  -0.000535470725122 1
ion Cr   0.502561075159194   0.499358584716767   0.154813899661216 1
ion Cr   0.341424961599215   0.330278753870670   0.325966347193163 1
ion Cr   0.512744536761355   0.490658965386862   0.507705091459046 1
ion Cr   0.339882781895196   0.353947499912879   0.647900977415374 1
ion Cr   0.490000864965988   0.514018704656875   0.823035480597570 1
ion Cr   0.324818569723788   0.674308080705306   0.008522659624981 1
ion Cr   0.508058986630262   0.832800421719165   0.175434689901516 1
ion Cr   0.335335312569569   0.667828749279944   0.333555577642282 1
ion Cr   0.488533603476747   0.835239563896072   0.500888688964938 1
ion Cr   0.335963070844423   0.673112605909859   0.662742898961485 1
ion Cr   0.486912855848761   0.849360414870056   0.828947609599591 1
ion Cr   0.673993284391301   0.007325598472208   0.007401048166331 1
ion Cr   0.839686995081336   0.149004923659945   0.164254789617879 1
ion Cr   0.662525923843894  -0.009218129269227   0.334825883757953 1
ion Cr   0.837094171961633   0.176340291656419   0.500615232290635 1
ion Cr   0.648178745764338  -0.008584182462579   0.662009165222860 1
ion Cr   0.814382597189708   0.166018527743192   0.837650302073620 1
ion Cr   0.677712523396921   0.345536179017067  -0.006822731838820 1
ion Cr   0.829909703466991   0.513660956738382   0.184294435561028 1
ion Cr   0.664173208081621   0.336531980094992   0.339333600832626 1
ion Cr   0.818563898153525   0.495862994577747   0.496943436301328 1
ion Cr   0.661374464027423   0.329096780884832   0.664306550147151 1
ion Cr   0.821483797843362   0.506987023887368   0.837354062799515 1
ion Cr   0.684169815183983   0.664342840839321  -0.007045308518530 1
ion Cr   0.834948043461710   0.835301735115672   0.180918731864978 1
ion Cr   0.665780107240076   0.677933890858538   0.335377892644316 1
ion Cr   0.846396582205353   0.835705704562737   0.492953850183296 1
ion Cr   0.664605552954345   0.666410591731106   0.667810020906299 1
ion Cr   0.835402265415902   0.838416688295031   0.849247754669066 1
ion O   0.163192674629090   0.089099069836238   0.348231510740537 1

# Forces in Lattice coordinates:
force Cr  -0.013894836971070  -0.094109213272701   0.095037604104661 0
force Cr  -0.031391576019809   0.226585627116139  -0.978658783958086 1
force Cr  -2.079684867624431  -0.810151377462357  -0.239926143571763 1
force Cr   0.247225935052393   1.625797518423538   3.447942983999523 1
force Cr  -0.325488000589440   0.094623654791596   0.050794093683049 1
force Cr  -0.231652428415329   0.670117399459090   0.208493201954811 1
force Cr   0.010340902410648  -0.177497783205471  -0.218300076761085 1
force Cr   0.633544049638467  -0.189446433080059   0.015241961461999 1
force Cr  -0.421374655227273   0.544011199348200  -0.274032336411553 1
force Cr   0.098620637741673  -0.065841576217490  -0.154934282248008 1
force Cr   0.234699085330745   0.139669764508449   0.304636137431556 1
force Cr   0.011836726897542  -0.435333928220540   0.207999615726993 1
force Cr   0.010989133679135   0.307921611823935  -0.182316321494898 1
force Cr  -0.013431274544286  -0.009120072389416  -0.131827531373776 1
force Cr  -0.106975402653765  -0.248522687309386  -0.365356149754094 1
force Cr   0.328911704688772  -0.426912219042099   0.158832564977419 1
force Cr  -0.406419207677811  -0.107707041512761   0.080654430940347 1
force Cr  -0.029033317588862   0.264461342024790   0.052776563343664 1
force Cr   0.456796606088036   0.032560716640857  -0.197653021546276 1
force Cr   0.114845431721178  -0.319756567907644   0.299507305079760 1
force Cr   1.751091302119229  -0.857803523775234  -0.353232025677920 1
force Cr   0.175200008158273  -0.249002307854596  -0.160173578765202 1
force Cr  -0.339829215558779   0.129316922133028  -0.184764195611599 1
force Cr  -0.285730935188300   0.169668549714505  -0.300105405207501 1
force Cr   0.056094049873749   0.437359591162307  -0.251428171181128 1
force Cr  -0.157077023582636   0.175764351555813   0.261702129294264 1
force Cr  -0.062510248244554   0.513651262802987   0.018274230625444 1
force Cr  -0.478262191345763   0.532107816204109  -0.474977366845899 1
force Cr  -0.320897929144757  -0.481928094143113   0.672575398290864 1
force Cr   0.145299038551598  -0.185153219843978   0.348999295477876 1
force Cr   0.268065310527160  -0.273160365449195  -0.197100910229073 1
force Cr  -0.205076440034798   0.085340757753262  -0.290860405047817 1
force Cr  -0.028333397493098  -0.108091254168547   0.061318583247068 1
force Cr   0.347033888869523  -0.194480894728850   0.039560784685823 1
force Cr  -0.138987286442872   0.002326188806769   0.144949470461844 1
force Cr   0.365489838363452  -0.467864694493993   0.410111561638047 1
force Cr  -0.360825160070910  -0.257180105340538  -0.106782458518883 1
force Cr  -0.210421329182393   0.645422720574782   0.181870281864320 1
force Cr   0.138488269271404   0.464241757526212   0.053906629543077 1
force Cr  -0.374173193762008  -0.385898230968784   0.098453053920842 1
force Cr   0.637067756725681   0.226077150066879   0.162696592834298 1
force Cr   0.594276283211961   0.059775918590353  -0.200192987858509 1
force Cr  -0.350914370815900  -0.223954731288610   0.274887701523207 1
force Cr   0.011118282077412  -0.394426950266238  -0.317833362877041 1
force Cr   0.193122849852805  -0.178191212682102  -0.369497015469874 1
force Cr   0.525042542268196   0.272740865305176   0.304494782383991 1
force Cr   0.075370294390507   0.060183448868877   0.288310380635850 1
force Cr   0.380510911987302  -0.139224524775122  -0.233777787602690 1
force Cr  -0.652543487812670   0.360488543886451   0.299595380673557 1
force Cr  -0.040411135362364  -0.223355218519236  -0.446607257328752 1
force Cr  -0.023595715483485  -0.348983350054702  -0.007537349679374 1
force Cr  -0.612139623133120  -0.127066841634065   0.698025534196203 1
force Cr   0.121367003844586   0.171976405880037  -0.030277311296737 1
force Cr  -0.090568090063063  -0.100548739665910  -0.429944426436632 1
force O   0.493358542456810  -0.136077651351584  -2.217679010172622 1

# Energy components:
   Eewald =    -3615.6897605577878494
       EH =      990.2561280281959171
     Eloc =    -3099.4521658041949195
      Enl =      510.0260498929856112
      Exc =     -605.1291292232015167
 Exc_core =       40.2105438278522840
       KE =     1068.9430834421020791
-------------------------------------
     Etot =    -4710.8352503940486713
       TS =        0.4778713804457597
-------------------------------------
        F =    -4711.3131217744939931

IonicMinimize: Iter:   3  F: -4711.313121774493993  |grad|_K:  3.220e-02  alpha:  3.948e-01  linmin: -9.872e-01  t[s]:  10184.10

#--- Lowdin population analysis ---
# oxidation-state Cr +0.266 +0.306 +0.295 +0.305 +0.257 +0.284 +0.286 +0.270 +0.265 +0.260 +0.270 +0.277 +0.266 +0.257 +0.254 +0.263 +0.277 +0.273 +0.264 +0.271 +0.315 +0.246 +0.251 +0.281 +0.270 +0.285 +0.281 +0.257 +0.263 +0.277 +0.271 +0.269 +0.288 +0.242 +0.264 +0.273 +0.250 +0.273 +0.284 +0.270 +0.278 +0.271 +0.265 +0.276 +0.263 +0.278 +0.257 +0.244 +0.265 +0.266 +0.258 +0.257 +0.275 +0.271
# oxidation-state O -0.376


-------- Electronic minimization -----------
Will mix electronic density at each iteration.
	FillingsUpdate:  mu: +0.740308958  nElectrons: 762.000000
	FillingsUpdate:  mu: +0.738009158  nElectrons: 762.000000
SCF: Cycle:  0   F: -4649.857214765534081   dF: +5.959e+01   |Residual|: 2.850e+00   |deigs|: 4.743e-03  t[s]:  10342.30
	FillingsUpdate:  mu: +0.740453765  nElectrons: 762.000000
SCF: Cycle:  1   F: -4314.415296531108652   dF: +3.354e+02   |Residual|: 8.828e+00   |deigs|: 1.407e-01  t[s]:  10457.15
	FillingsUpdate:  mu: +0.752129615  nElectrons: 762.000000
SCF: Cycle:  2   F: -4658.016285435704049   dF: -3.436e+02   |Residual|: 3.536e+00   |deigs|: 1.224e-01  t[s]:  10571.97
	FillingsUpdate:  mu: +0.754968251  nElectrons: 762.000000
SCF: Cycle:  3   F: -4704.711041911360553   dF: -4.669e+01   |Residual|: 1.416e+00   |deigs|: 2.862e-02  t[s]:  10686.91
	FillingsUpdate:  mu: +0.742199971  nElectrons: 762.000000
SCF: Cycle:  4   F: -4704.061569643592520   dF: +6.495e-01   |Residual|: 1.303e+00   |deigs|: 1.621e-02  t[s]:  10801.77
	FillingsUpdate:  mu: +0.740186861  nElectrons: 762.000000
SCF: Cycle:  5   F: -4709.449035831239598   dF: -5.387e+00   |Residual|: 7.148e-01   |deigs|: 8.335e-03  t[s]:  10916.67
	FillingsUpdate:  mu: +0.741276499  nElectrons: 762.000000
SCF: Cycle:  6   F: -4710.622696037862625   dF: -1.174e+00   |Residual|: 4.571e-01   |deigs|: 3.157e-03  t[s]:  11031.60
	FillingsUpdate:  mu: +0.741191812  nElectrons: 762.000000
SCF: Cycle:  7   F: -4711.338660291262386   dF: -7.160e-01   |Residual|: 1.519e-01   |deigs|: 1.563e-03  t[s]:  11146.56
	FillingsUpdate:  mu: +0.740565363  nElectrons: 762.000000
SCF: Cycle:  8   F: -4711.212165279609508   dF: +1.265e-01   |Residual|: 2.394e-01   |deigs|: 9.218e-04  t[s]:  11254.94
	FillingsUpdate:  mu: +0.740376013  nElectrons: 762.000000
SCF: Cycle:  9   F: -4711.379052342788782   dF: -1.669e-01   |Residual|: 7.031e-02   |deigs|: 5.891e-04  t[s]:  11358.55
	FillingsUpdate:  mu: +0.740453022  nElectrons: 762.000000
SCF: Cycle: 10   F: -4711.354833301748840   dF: +2.422e-02   |Residual|: 1.014e-01   |deigs|: 2.838e-04  t[s]:  11462.38
	FillingsUpdate:  mu: +0.740415322  nElectrons: 762.000000
SCF: Cycle: 11   F: -4711.391237787898717   dF: -3.640e-02   |Residual|: 2.123e-02   |deigs|: 2.404e-04  t[s]:  11565.40
	FillingsUpdate:  mu: +0.740353322  nElectrons: 762.000000
SCF: Cycle: 12   F: -4711.388768823543614   dF: +2.469e-03   |Residual|: 3.271e-02   |deigs|: 1.142e-04  t[s]:  11635.67
	FillingsUpdate:  mu: +0.740367207  nElectrons: 762.000000
SCF: Cycle: 13   F: -4711.392652128096415   dF: -3.883e-03   |Residual|: 4.410e-03   |deigs|: 5.483e-05  t[s]:  11706.10
	FillingsUpdate:  mu: +0.740362817  nElectrons: 762.000000
SCF: Cycle: 14   F: -4711.392366749423672   dF: +2.854e-04   |Residual|: 9.357e-03   |deigs|: 2.096e-05  t[s]:  11776.38
	FillingsUpdate:  mu: +0.740355582  nElectrons: 762.000000
SCF: Cycle: 15   F: -4711.392702273715258   dF: -3.355e-04   |Residual|: 1.801e-03   |deigs|: 1.721e-05  t[s]:  11846.75
	FillingsUpdate:  mu: +0.740355738  nElectrons: 762.000000
SCF: Cycle: 16   F: -4711.392696636825349   dF: +5.637e-06   |Residual|: 2.249e-03   |deigs|: 4.690e-06  t[s]:  11917.10
	FillingsUpdate:  mu: +0.740357385  nElectrons: 762.000000
SCF: Cycle: 17   F: -4711.392711812896778   dF: -1.518e-05   |Residual|: 7.990e-04   |deigs|: 6.812e-06  t[s]:  11987.45
	FillingsUpdate:  mu: +0.740357285  nElectrons: 762.000000
SCF: Cycle: 18   F: -4711.392711093722937   dF: +7.192e-07   |Residual|: 9.056e-04   |deigs|: 2.339e-06  t[s]:  12057.80
	FillingsUpdate:  mu: +0.740358005  nElectrons: 762.000000
SCF: Cycle: 19   F: -4711.392713433569952   dF: -2.340e-06   |Residual|: 5.585e-04   |deigs|: 2.058e-06  t[s]:  12128.11
	FillingsUpdate:  mu: +0.740357779  nElectrons: 762.000000
SCF: Cycle: 20   F: -4711.392714108583277   dF: -6.750e-07   |Residual|: 3.125e-04   |deigs|: 8.263e-07  t[s]:  12198.55
	FillingsUpdate:  mu: +0.740357351  nElectrons: 762.000000
SCF: Cycle: 21   F: -4711.392714273637466   dF: -1.651e-07   |Residual|: 1.900e-04   |deigs|: 7.682e-07  t[s]:  12268.98
	FillingsUpdate:  mu: +0.740357321  nElectrons: 762.000000
SCF: Cycle: 22   F: -4711.392714376019285   dF: -1.024e-07   |Residual|: 1.061e-04   |deigs|: 4.160e-07  t[s]:  12339.34
	FillingsUpdate:  mu: +0.740357387  nElectrons: 762.000000
SCF: Cycle: 23   F: -4711.392714376361255   dF: -3.420e-10   |Residual|: 1.027e-04   |deigs|: 3.020e-07  t[s]:  12409.69
	FillingsUpdate:  mu: +0.740357559  nElectrons: 762.000000
SCF: Cycle: 24   F: -4711.392714390442052   dF: -1.408e-08   |Residual|: 7.361e-05   |deigs|: 3.689e-07  t[s]:  12480.11
	FillingsUpdate:  mu: +0.740357555  nElectrons: 762.000000
SCF: Cycle: 25   F: -4711.392714402944875   dF: -1.250e-08   |Residual|: 4.824e-05   |deigs|: 1.903e-07  t[s]:  12550.42
	FillingsUpdate:  mu: +0.740357553  nElectrons: 762.000000
SCF: Cycle: 26   F: -4711.392714409195833   dF: -6.251e-09   |Residual|: 2.355e-05   |deigs|: 1.565e-07  t[s]:  12620.92
	FillingsUpdate:  mu: +0.740357514  nElectrons: 762.000000
SCF: Cycle: 27   F: -4711.392714411284942   dF: -2.089e-09   |Residual|: 8.845e-06   |deigs|: 1.202e-07  t[s]:  12681.16
SCF: Converged (|Delta E|<1.000000e-08 for 2 iters).

Setting wave functions to eigenvectors of Hamiltonian

# Ionic positions in lattice coordinates:
ion Cr   0.000000000000000   0.000000000000000   0.000000000000000 0
ion Cr   0.166328992511802   0.173198280483363   0.156913990917202 1
ion Cr  -0.005069181088841  -0.010816754799905   0.337631036420213 1
ion Cr   0.153649152534486   0.176912242231204   0.514704818606248 1
ion Cr   0.002118750277631  -0.001827253149604   0.671233030663289 1
ion Cr   0.170553216817467   0.148488602670246   0.828997413975590 1
ion Cr  -0.002390671167679   0.340409801999542   0.006179874522679 1
ion Cr   0.147352359170689   0.502309025629772   0.169984965801011 1
ion Cr   0.002398138032266   0.326943538575771   0.342072669054283 1
ion Cr   0.164490625056419   0.503264023584169   0.502798494469106 1
ion Cr  -0.015639730363378   0.334034783711603   0.667653238385479 1
ion Cr   0.161656397983803   0.509473457619784   0.829981179551574 1
ion Cr  -0.000935977448323   0.662255199397058   0.012895592290188 1
[...]
ion Cr  -0.000297186774902   0.667602607820173   0.000297903385334 1
ion Cr   0.167138427071451   0.831601809477937   0.165076279536156 1
ion Cr   0.000313744398964   0.666804803058983   0.333599286049848 1
ion Cr   0.166742667010465   0.831494810174801   0.502189817699092 1
ion Cr  -0.000408864144460   0.666946899765711   0.666824054639023 1
ion Cr   0.166985859805506   0.833048839407542   0.833689868660894 1
ion Cr   0.338005870862344  -0.003118582905475  -0.002362110106157 1
ion Cr   0.502330506062435   0.166852663433603   0.164901661489051 1
ion Cr   0.333870977194899  -0.000017517495459   0.333515556109470 1
ion Cr   0.502147801409131   0.166697054341752   0.501991580381627 1
ion Cr   0.337149011590495  -0.003272590482562   0.669367709747281 1
ion Cr   0.501147244181727   0.166805908278702   0.833391185851979 1
ion Cr   0.337482870578626   0.337487308887466  -0.002565105413306 1
ion Cr   0.500468665901356   0.500457637013996   0.167463988405391 1
ion Cr   0.333832243486967   0.333747193974062   0.333510917555815 1
ion Cr   0.500378223971013   0.500425013204383   0.499383342167245 1
ion Cr   0.337015765036095   0.337161024384230   0.669144249213698 1
ion Cr   0.501459520459848   0.501677835203498   0.833396162231961 1
ion Cr   0.334080795535707   0.666963907327506   0.000165052548300 1
ion Cr   0.500579549263528   0.833181489101746   0.167432488991746 1
ion Cr   0.333261626740282   0.666805897803921   0.333497239035281 1
ion Cr   0.500485174048432   0.833105213748155   0.499437369369900 1
ion Cr   0.333946047233758   0.666875391273547   0.666704049504375 1
ion Cr   0.501613596637621   0.832350823630884   0.833500356684059 1
ion Cr   0.667532129838823  -0.000263274827590   0.000205340073982 1
ion Cr   0.831682347475750   0.167097059361059   0.165189089477218 1
ion Cr   0.666933347089565   0.000289194697701   0.333528384206267 1
ion Cr   0.831463756815355   0.166688965522638   0.502064528506186 1
ion Cr   0.666903593256219  -0.000309708066669   0.666755802762984 1
ion Cr   0.832897044478868   0.166977091043613   0.833622505167056 1
ion Cr   0.666938040578090   0.334085645565370   0.000199419674434 1
ion Cr   0.833160961708047   0.500481336370895   0.167601809029402 1
ion Cr   0.666856819955822   0.333189038459095   0.333455724035667 1
ion Cr   0.833088580388955   0.500428291733808   0.499420852331892 1
ion Cr   0.666820909808590   0.333936513485927   0.666683204390023 1
ion Cr   0.832158847807939   0.501602862571610   0.833479384834445 1
ion Cr   0.666857181365022   0.666978823618307  -0.000121773935566 1
ion Cr   0.833441119864915   0.833512580599916   0.167521194099506 1
ion Cr   0.666774958058995   0.666772247935497   0.333480984279851 1
ion Cr   0.833144990069984   0.833241229013242   0.499532101825584 1
ion Cr   0.666800282092517   0.666903208728502   0.667040457450992 1
ion Cr   0.832581586024220   0.832729712822339   0.833958319409890 1
ion O   0.167361214425413   0.166894591605468   0.333882844458191 1

# Forces in Lattice coordinates:
force Cr  -0.116061722245587  -0.115185801969706  -0.089270883941814 0
force Cr  -0.002439985487026  -0.004308083326307  -0.009840606268959 1
force Cr   0.004720099778704   0.001256474198891  -0.000331119411301 1
force Cr   0.000444555933384  -0.000727749699888  -0.003154125296806 1
force Cr  -0.002575224435638  -0.005433097395134   0.000868902305175 1
force Cr  -0.002087612963356   0.000717143426841   0.022566984686243 1
force Cr   0.005290622080847  -0.002005354485642  -0.000505084446226 1
force Cr  -0.002881052860140   0.001752526500398  -0.002339828534963 1
force Cr  -0.004777881568765   0.003179969658156   0.000923189969171 1
force Cr  -0.000834855625736   0.000515203065039  -0.000360086428847 1
force Cr   0.000352309540242   0.002956106722742   0.000315147909820 1
force Cr  -0.001726541639426  -0.001051240108577   0.002354226792594 1
force Cr  -0.000354055105872  -0.001421828995726  -0.000823017482095 1
force Cr  -0.001473631568157   0.002979033304140   0.002366369045663 1
force Cr   0.001356605609846   0.001836797412041  -0.004569193778377 1
force Cr   0.000792413909609   0.001838516556180  -0.001499701950440 1
force Cr  -0.000765171034834   0.001574749915740   0.000854167800646 1
force Cr  -0.001823703464404  -0.002012513950287   0.000252167175307 1
force Cr  -0.005338868560284   0.001930092267114   0.002913357080887 1
force Cr   0.001791038728297  -0.000277549720060   0.000171838363036 1
force Cr  -0.002037923865081  -0.004935667504624  -0.000424387959599 1
force Cr   0.001188119812997   0.001741540122507   0.001422352430893 1
force Cr   0.002187647415672  -0.004822395573294  -0.001184324158633 1
force Cr   0.001015402371042   0.004062701057074   0.000148333359819 1
force Cr  -0.003294823619910  -0.001749840571122  -0.002899636552173 1
force Cr   0.001325375547414   0.001476503414612  -0.001285295257737 1
force Cr   0.003419603226398   0.004938648180834   0.001416158895692 1
force Cr   0.000607943963593  -0.001559346049779   0.001247588576295 1
force Cr   0.004737603594027   0.002404505992543   0.003164512644108 1
force Cr   0.000342544182289  -0.006894599204418  -0.002617122049850 1
force Cr  -0.003018343082133   0.000503157926547  -0.000329856565826 1
force Cr   0.000410884993335  -0.000746445253451   0.000535489095036 1
force Cr  -0.002264454608919  -0.000326470846781  -0.001469017844184 1
force Cr  -0.001912058265818   0.000294575270809   0.001340140402295 1
force Cr  -0.000861173886732   0.001152065969972   0.000282778850611 1
force Cr  -0.002549846717506  -0.002116329270261  -0.003098348207430 1
force Cr   0.002306785592464   0.000573324874837   0.002029329564953 1
force Cr   0.000838070483906  -0.000498031941879  -0.003053318104064 1
force Cr  -0.003268117434499   0.001445689751453  -0.003444370518214 1
force Cr   0.003143499028958   0.003656969331425   0.001766864423590 1
force Cr   0.001214039083003  -0.003030333439572   0.001716812920432 1
force Cr   0.002124759151451   0.000221291593383   0.003470793922978 1
force Cr  -0.000483194317737  -0.001686753849079  -0.002286605194246 1
force Cr   0.000677685489796   0.004511535289238  -0.005794907032976 1
force Cr  -0.002702779769061   0.000270376296822   0.000535858432759 1
force Cr   0.000392708990805   0.000312629723595   0.002445100577562 1
force Cr  -0.001447990655822   0.001521128187247   0.000758147810415 1
force Cr   0.002344488325461   0.000258348877760  -0.000186921117036 1
force Cr   0.002898537419829  -0.002287674476007   0.004045142735949 1
force Cr   0.002051393397168  -0.002479628108290  -0.000370491598605 1
force Cr   0.001398876782973   0.001116280439218  -0.003076803999840 1
force Cr   0.002419809528182  -0.002775722734880   0.002348784314246 1
force Cr   0.002258461275850  -0.000814777679850  -0.002114982631574 1
force Cr   0.003554320369104  -0.002003667141589  -0.002713927893921 1
force O  -0.009954859435753  -0.004358877443625  -0.002474048566265 1

# Energy components:
   Eewald =    -3636.0611028311077462
       EH =      970.1483059447639334
     Eloc =    -3057.5439018338965980
      Enl =      509.5846634338912509
      Exc =     -604.5993242196869915
 Exc_core =       40.2054803115988619
       KE =     1067.1177026673708497
-------------------------------------
     Etot =    -4711.1481765270673350
       TS =        0.4635216059539395
-------------------------------------
        F =    -4711.6116981330214912

IonicMinimize: Iter:  25  F: -4711.611698133021491  |grad|_K:  1.983e-04  alpha:  1.000e+00  linmin:  8.220e-02  t[s]:  63181.86

#--- Lowdin population analysis ---
# oxidation-state Cr +0.260 +0.338 +0.343 +0.339 +0.260 +0.290 +0.261 +0.271 +0.343 +0.271 +0.260 +0.275 +0.276 +0.271 +0.284 +0.271 +0.276 +0.276 +0.261 +0.271 +0.343 +0.271 +0.260 +0.275 +0.260 +0.277 +0.343 +0.277 +0.260 +0.269 +0.276 +0.277 +0.284 +0.277 +0.276 +0.269 +0.276 +0.270 +0.284 +0.271 +0.276 +0.275 +0.276 +0.277 +0.284 +0.277 +0.276 +0.269 +0.268 +0.278 +0.271 +0.277 +0.269 +0.271
# oxidation-state O -0.654


-------- Electronic minimization -----------
Will mix electronic density at each iteration.
	FillingsUpdate:  mu: +0.741209140  nElectrons: 762.000000
	FillingsUpdate:  mu: +0.741215619  nElectrons: 762.000000
SCF: Cycle:  0   F: -4711.609761261081985   dF: +1.908e-03   |Residual|: 1.590e-02   |deigs|: 1.355e-07  t[s]:  63297.79
	FillingsUpdate:  mu: +0.741161285  nElectrons: 762.000000
SCF: Cycle:  1   F: -4711.573682464829290   dF: +3.608e-02   |Residual|: 8.108e-02   |deigs|: 3.101e-04  t[s]:  63386.16
	FillingsUpdate:  mu: +0.741214913  nElectrons: 762.000000
SCF: Cycle:  2   F: -4711.611517723657926   dF: -3.784e-02   |Residual|: 6.576e-03   |deigs|: 2.990e-04  t[s]:  63455.85
	FillingsUpdate:  mu: +0.741209189  nElectrons: 762.000000
SCF: Cycle:  3   F: -4711.611691507776413   dF: -1.738e-04   |Residual|: 2.565e-03   |deigs|: 2.632e-05  t[s]:  63525.48
	FillingsUpdate:  mu: +0.741206810  nElectrons: 762.000000
SCF: Cycle:  4   F: -4711.611670858980688   dF: +2.065e-05   |Residual|: 3.535e-03   |deigs|: 1.462e-05  t[s]:  63595.18
	FillingsUpdate:  mu: +0.741207647  nElectrons: 762.000000
SCF: Cycle:  5   F: -4711.611710725660487   dF: -3.987e-05   |Residual|: 7.456e-04   |deigs|: 9.909e-06  t[s]:  63664.81
	FillingsUpdate:  mu: +0.741209020  nElectrons: 762.000000
SCF: Cycle:  6   F: -4711.611707920426852   dF: +2.805e-06   |Residual|: 1.125e-03   |deigs|: 4.737e-06  t[s]:  63734.45
	FillingsUpdate:  mu: +0.741210353  nElectrons: 762.000000
SCF: Cycle:  7   F: -4711.611711923643270   dF: -4.003e-06   |Residual|: 2.450e-04   |deigs|: 3.083e-06  t[s]:  63804.14
	FillingsUpdate:  mu: +0.741209934  nElectrons: 762.000000
SCF: Cycle:  8   F: -4711.611711125813599   dF: +7.978e-07   |Residual|: 4.825e-04   |deigs|: 1.358e-06  t[s]:  63873.90
	FillingsUpdate:  mu: +0.741209721  nElectrons: 762.000000
SCF: Cycle:  9   F: -4711.611712057784644   dF: -9.320e-07   |Residual|: 7.392e-05   |deigs|: 9.273e-07  t[s]:  63943.59
	FillingsUpdate:  mu: +0.741209598  nElectrons: 762.000000
SCF: Cycle: 10   F: -4711.611712019249353   dF: +3.854e-08   |Residual|: 1.174e-04   |deigs|: 3.507e-07  t[s]:  64013.33
	FillingsUpdate:  mu: +0.741209601  nElectrons: 762.000000
SCF: Cycle: 11   F: -4711.611712072918635   dF: -5.367e-08   |Residual|: 1.628e-05   |deigs|: 2.034e-07  t[s]:  64083.05
	FillingsUpdate:  mu: +0.741209630  nElectrons: 762.000000
SCF: Cycle: 12   F: -4711.611712069816349   dF: +3.102e-09   |Residual|: 2.913e-05   |deigs|: 8.571e-08  t[s]:  64152.79
	FillingsUpdate:  mu: +0.741209644  nElectrons: 762.000000
SCF: Cycle: 13   F: -4711.611712072912269   dF: -3.096e-09   |Residual|: 5.184e-06   |deigs|: 7.836e-08  t[s]:  64221.51
	FillingsUpdate:  mu: +0.741209624  nElectrons: 762.000000
SCF: Cycle: 14   F: -4711.611712073301533   dF: -3.893e-10   |Residual|: 8.065e-06   |deigs|: 3.794e-08  t[s]:  64271.84
SCF: Converged (|Delta E|<1.000000e-08 for 2 iters).

Setting wave functions to eigenvectors of Hamiltonian

# Ionic positions in lattice coordinates:
ion Cr   0.000000000000000   0.000000000000000   0.000000000000000 0
ion Cr   0.167812492415349   0.167818186635555   0.124608848261543 1
ion Cr   0.000024948616319  -0.000057463206968   0.333971823360559 1
ion Cr   0.166726705230664   0.166761554197879   0.542968600854170 1
ion Cr  -0.003301803644648  -0.003273193178615   0.670076305011076 1
ion Cr   0.167252574204278   0.167251209752262   0.833419738329115 1
ion Cr  -0.003155491197189   0.337886159080320  -0.002329438984183 1
ion Cr   0.166883736048675   0.502290222641625   0.164933893798437 1
ion Cr  -0.000003532808046   0.333684887927873   0.333500171620630 1
ion Cr   0.166727939935366   0.502136174766496   0.502012679827535 1
ion Cr  -0.003458751886315   0.337187729029976   0.669347139405363 1
ion Cr   0.166820093503714   0.501195453502901   0.833397734025666 1
ion Cr  -0.000286008439867   0.667562099910845   0.000254454090857 1
ion Cr   0.167128239064439   0.831631958151225   0.165084652405313 1
ion Cr   0.000350537114102   0.666817408042136   0.333494511657433 1
ion Cr   0.166776139559885   0.831498251788729   0.502148991453066 1
ion Cr  -0.000404610096099   0.666949269439902   0.666814428897955 1
ion Cr   0.166974225005472   0.832997092911929   0.833674994992406 1
ion Cr   0.337954788293885  -0.003129215842643  -0.002349381667982 1
ion Cr   0.502373897138487   0.166829228118568   0.164885070083865 1
ion Cr   0.333855295587630  -0.000114274657832   0.333488187921396 1
ion Cr   0.502189323831296   0.166704601640417   0.501989691334593 1
ion Cr   0.337226283512321  -0.003391410726387   0.669334066570419 1
ion Cr   0.501197236205861   0.166846760240871   0.833367276535422 1
ion Cr   0.337477543850570   0.337434763314250  -0.002644879467936 1
ion Cr   0.500502792629965   0.500463572002120   0.167423328991548 1
ion Cr   0.333886293363115   0.333806762596471   0.333510163040730 1
ion Cr   0.500404215402400   0.500384851670460   0.499374780443421 1
ion Cr   0.337143958875167   0.337166572469532   0.669175106556402 1
ion Cr   0.501499497892154   0.501542211173631   0.833332368059704 1
ion Cr   0.334049308461104   0.666942243472364   0.000131014626611 1
ion Cr   0.500595525549001   0.833152862995469   0.167420552488423 1
ion Cr   0.333235413848854   0.666787308241105   0.333449650263607 1
ion Cr   0.500476408372155   0.833088773165573   0.499435806023298 1
ion Cr   0.333948469782117   0.666864825248487   0.666687003062557 1
ion Cr   0.501602533483873   0.832284633665388   0.833432351497608 1
ion Cr   0.667584851767490  -0.000272246700313   0.000218420270814 1
ion Cr   0.831704444861837   0.167083992782517   0.165116441426114 1
ion Cr   0.666900385782741   0.000303879254582   0.333451846588291 1
ion Cr   0.831526299252915   0.166728185259662   0.502079922063395 1
ion Cr   0.666954018229817  -0.000374893702198   0.666767153304801 1
ion Cr   0.832959088834877   0.166962268720661   0.833658030816773 1
ion Cr   0.666949409864907   0.334039148971491   0.000141793556829 1
ion Cr   0.833187997084616   0.500537358417735   0.167477411362140 1
ion Cr   0.666829861243599   0.333179358024410   0.333443243999633 1
ion Cr   0.833115475575263   0.500419097546289   0.499439925290375 1
ion Cr   0.666829190637246   0.333945959161689   0.666674316229012 1
ion Cr   0.832222815356046   0.501587541550185   0.833454765219593 1
ion Cr   0.666916394387525   0.666924057322514  -0.000076703944775 1
ion Cr   0.833483044852314   0.833455580127039   0.167485506656022 1
ion Cr   0.666811687707735   0.666770520827962   0.333405849751060 1
ion Cr   0.833192441434169   0.833177522283267   0.499552986845954 1
ion Cr   0.666856543104419   0.666870288792561   0.666983103219016 1
ion Cr   0.832656606532266   0.832677350579253   0.833889861777627 1
ion O   0.167150326044587   0.166769159010795   0.333759855193592 1

# Forces in Lattice coordinates:
force Cr  -0.117619336835444  -0.118393019282358  -0.089792828418939 0
force Cr  -0.000385490410339  -0.000918571602880  -0.000205142782656 1
force Cr   0.000238470896245   0.000645649420471   0.000399727782942 1
force Cr   0.000892166496933   0.000198680931723   0.000092090548144 1
force Cr   0.001059475912430  -0.000088091827986   0.000183222055347 1
force Cr  -0.000873879431954  -0.000637886236902  -0.001403830270695 1
force Cr   0.000736478936137   0.000555789926229   0.000856580288292 1
force Cr  -0.001061666498434   0.000483300999920  -0.000128913658876 1
force Cr  -0.001767680571751   0.001184992012527   0.000082319883529 1
force Cr  -0.000348802965556   0.000403498433600  -0.000149404035684 1
force Cr   0.002056443640948   0.000019670190802   0.000276918687780 1
force Cr  -0.000312645895970  -0.000057463672149   0.000241862469865 1
force Cr  -0.000036311357804  -0.000245855023586  -0.000545745382395 1
force Cr  -0.000475515508195   0.000718532995952   0.000911718581889 1
force Cr   0.000090920770005   0.001088959815142  -0.000702017393561 1
force Cr  -0.000088735240425   0.000665314620911  -0.000479996419249 1
force Cr   0.000587784258269  -0.000042052739799  -0.000469394630143 1
force Cr  -0.000617410896250  -0.000756496661491   0.000197026571821 1
force Cr  -0.001053702673417  -0.000380683734092   0.001360289079812 1
force Cr  -0.000280220937498   0.000313438965135   0.000665973296185 1
force Cr  -0.001994935751041  -0.000630298529237   0.000108531811747 1
force Cr   0.000049959677415   0.000277537530463   0.000368604320530 1
force Cr  -0.001091647805151   0.000471841085845   0.000161613017981 1
force Cr   0.000111299205253  -0.000351076652742   0.000640353592316 1
force Cr  -0.000828605869350   0.000436776200250   0.000629657935947 1
force Cr  -0.000301252881801   0.000238619579393  -0.000767931065280 1
force Cr  -0.000681919948076   0.000382962434001   0.000232735165678 1
force Cr   0.000134589002726   0.000311996336429  -0.000140687898140 1
force Cr  -0.000720142806708  -0.000610147781756   0.000957337718234 1
force Cr  -0.000167126249579  -0.001250569862540  -0.000079163088735 1
force Cr  -0.000743485227142   0.000308250013246   0.000064453116398 1
force Cr  -0.000056780125399  -0.000193980755509  -0.000125744749845 1
force Cr  -0.000423543621801  -0.000184989051060  -0.000251885415321 1
force Cr  -0.000290027343397  -0.000059445941460  -0.000272243727274 1
force Cr  -0.000620238399949  -0.000328553064698   0.000030663062791 1
force Cr  -0.000633368764863  -0.001188080706549   0.000169705177661 1
force Cr   0.000128464520814  -0.000848986622726   0.000117300028071 1
force Cr   0.000060874869948   0.000148664138116  -0.000183883330354 1
force Cr  -0.000271045077291   0.000370587870389   0.000132461423019 1
force Cr   0.001141305516889   0.001061698728998   0.001033464304917 1
force Cr   0.000347970740829  -0.000607133128202   0.000531253906317 1
force Cr   0.000546010555155  -0.000098781071153   0.000567545535326 1
force Cr   0.000578826096429  -0.000245321317142  -0.000376842002932 1
force Cr  -0.000023416001526   0.000644387883899  -0.001387680867445 1
force Cr  -0.000260929927468   0.000950159381788  -0.000063891446931 1
force Cr  -0.000130114239522   0.000590608129869  -0.000360719638380 1
force Cr   0.000849520420979  -0.000117131845750   0.000229381927674 1
force Cr   0.000589874373120  -0.000172845112190  -0.000068046776467 1
force Cr   0.000223577464666  -0.000573031175925  -0.000320559574707 1
force Cr   0.000408176969767   0.000031888682634   0.000350465233330 1
force Cr   0.000416255366885   0.000788857825158  -0.000304972189938 1
force Cr   0.000508252108033  -0.000226315915041  -0.000387603398099 1
force Cr   0.000241180052223  -0.000546594645064  -0.000357383984419 1
force Cr   0.000158751025852  -0.000890950189773   0.000152009326022 1
force O  -0.005119817528397  -0.000597197555482   0.005235409960857 1

# Energy components:
   Eewald =    -3636.0636695576204147
       EH =      970.1468147396512904
     Eloc =    -3057.5397267278135587
      Enl =      509.5845236191395315
      Exc =     -604.5992525055945634
 Exc_core =       40.2054802918177074
       KE =     1067.1176401034413175
-------------------------------------
     Etot =    -4711.1481900369781215
       TS =        0.4635220363238053
-------------------------------------
        F =    -4711.6117120733015327

IonicMinimize: Iter:  26  F: -4711.611712073301533  |grad|_K:  5.244e-05  alpha:  1.000e+00  linmin: -1.179e-02  t[s]:  64298.83
IonicMinimize: Converged (|grad|_K<1.000000e-04).

#--- Lowdin population analysis ---
# oxidation-state Cr +0.260 +0.338 +0.343 +0.339 +0.260 +0.290 +0.261 +0.271 +0.343 +0.271 +0.260 +0.275 +0.276 +0.270 +0.284 +0.271 +0.276 +0.275 +0.261 +0.271 +0.343 +0.271 +0.260 +0.275 +0.260 +0.277 +0.343 +0.277 +0.260 +0.269 +0.276 +0.277 +0.284 +0.277 +0.276 +0.269 +0.276 +0.270 +0.284 +0.271 +0.276 +0.275 +0.276 +0.277 +0.284 +0.277 +0.276 +0.269 +0.268 +0.278 +0.271 +0.277 +0.269 +0.271
# oxidation-state O -0.654


Dumping 'Cr_int_tet.Ecomponents' ... done
End date and time: Wed Jul 17 02:32:01 2024  (Duration: 0-17:51:49.21)
Done!
